 Gaussian 16, Revision A.03,
 Gaussian 16:  EM64L-G16RevA.03 25-Dec-2016

 -------------
 #p 6-31g* mp2
 -------------

 ------------------------------------------------------
 Input file generated by CHIRIPA (05-May-2021 14:53:17)
 ------------------------------------------------------
 Symbolic Z-matrix:
 Charge =  0 Multiplicity = 1

                         Standard orientation:
 ---------------------------------------------------------------------
 Center     Atomic      Atomic             Coordinates (Angstroms)
 Number     Number       Type             X           Y           Z
 ---------------------------------------------------------------------
      1          6           0       -3.741491    0.829351    0.380328
      2          6           0       -2.743020    1.412397   -0.620222
      3          6           0       -1.977419    2.611802   -0.060690
      4          1           0       -4.451636    1.612659    0.678769
      5          1           0       -3.204837    0.530382    1.291379
      6          1           0       -3.281195    1.708905   -1.529654
      7          1           0       -2.035286    0.627560   -0.916463
      8          1           0       -1.415414    2.326542    0.834507
      9          1           0       -2.668402    3.414030    0.217831
     10          1           0       -1.269196    3.012870   -0.792417
     11          6           0       -4.514597   -0.370336   -0.164453
     12          6           0       -5.513067   -0.953382    0.836096
     13          6           0       -6.278668   -2.152787    0.276564
     14          1           0       -5.051250   -0.071366   -1.075505
     15          1           0       -3.804452   -1.153644   -0.462895
     16          1           0       -6.220801   -0.168544    1.132337
     17          1           0       -4.974892   -1.249889    1.745529
     18          1           0       -5.587685   -2.955015   -0.001957
     19          1           0       -6.840673   -1.867526   -0.618633
     20          1           0       -6.986891   -2.553854    1.008292
     21          6           0        5.559789   -0.752756    0.681178
     22          6           0        4.834861   -1.662021   -0.096149
     23          6           0        3.540444   -1.354866   -0.525901
     24          6           0        2.999318   -0.123864   -0.158332
     25          6           0        3.696325    0.803034    0.615187
     26          6           0        4.989214    0.474706    1.033742
     27          1           0        6.564730   -0.999584    1.010671
     28          1           0        5.275447   -2.616030   -0.371463
     29          1           0        2.956941   -2.040282   -1.128519
     30          1           0        3.230469    1.746189    0.873748
     31          1           0        5.549867    1.182795    1.637337
     32          7           0        1.629786    0.212515   -0.607365
     33          8           0        1.175561    1.303655   -0.270125
     34          8           0        1.036504   -0.621341   -1.288054
 ---------------------------------------------------------------------

 SCF Done:  E(RHF) =  -669.536326470     A.U. after   15 cycles
 E2 =    -0.2091712090D+01 EUMP2 =    -0.67162803855997D+03

 The electronic state is 1-A.
 Alpha  occ. eigenvalues --  -20.61057 -20.61050 -15.86059 -11.31358 -11.27915
 Alpha  occ. eigenvalues --  -11.27911 -11.27646 -11.26914 -11.26904 -11.20755
 Alpha  occ. eigenvalues --  -11.20375 -11.20280 -11.20044 -11.19750 -11.19093
 Alpha  occ. eigenvalues --   -1.60099  -1.39657  -1.19521  -1.08931  -1.07184
 Alpha  occ. eigenvalues --   -1.04912  -1.02191  -0.95780  -0.94657  -0.86314
 Alpha  occ. eigenvalues --   -0.85696  -0.82609  -0.78334  -0.77667  -0.76915
 Alpha  occ. eigenvalues --   -0.72274  -0.71409  -0.70628  -0.65177  -0.64915
 Alpha  occ. eigenvalues --   -0.63821  -0.62258  -0.59585  -0.58118  -0.56241
 Alpha  occ. eigenvalues --   -0.55415  -0.53972  -0.53245  -0.53001  -0.51362
 Alpha  occ. eigenvalues --   -0.51105  -0.49057  -0.49034  -0.48551  -0.46625
 Alpha  occ. eigenvalues --   -0.45400  -0.45052  -0.44470  -0.44304  -0.42456
 Alpha  occ. eigenvalues --   -0.37499  -0.36511
 Alpha virt. eigenvalues --    0.04844   0.11145   0.16342   0.21278   0.24019
 Alpha virt. eigenvalues --    0.25707   0.27206   0.27825   0.28184   0.28709
 Alpha virt. eigenvalues --    0.29318   0.30870   0.32395   0.32679   0.32861

 Mulliken charges:
               1
     1  C   -0.297059
     2  C   -0.305636
     3  C   -0.465702
     4  H    0.144154
     5  H    0.146669
     6  H    0.143809
     7  H    0.171386
     8  H    0.156499
     9  H    0.139504
    10  H    0.166451
    11  C   -0.297862
    12  C   -0.298489
    13  C   -0.474956
    14  H    0.147293
    15  H    0.152013
    16  H    0.149800
    17  H    0.149944
    18  H    0.154534
    19  H    0.154141
    20  H    0.157013
    21  C   -0.170462
    22  C   -0.218606
    23  C   -0.170541
    24  C    0.157944
    25  C   -0.170861
    26  C   -0.218572
    27  H    0.226234
    28  H    0.224026
    29  H    0.275908
    30  H    0.276116
    31  H    0.224101
    32  N    0.490082
    33  O   -0.458828
    34  O   -0.460047
 Sum of Mulliken charges =  -0.00000

 Dipole moment (field-independent basis, Debye):
    X=              5.3143    Y=             -1.2445    Z=              1.5043  Tot=              5.6616
 Quadrupole moment (field-independent basis, Debye-Ang):
   XX=            -67.8861   YY=            -91.6289   ZZ=            -94.9108
   XY=             -4.6634   XZ=              4.6885   YZ=              1.9318

 Normal termination of Gaussian 16 at Thu May  6 09:07:49 2021.
