 Gaussian 16, Revision A.03,
 Gaussian 16:  EM64L-G16RevA.03 25-Dec-2016

 -------------
 #p 6-31g* mp2
 -------------

 ------------------------------------------------------
 Input file generated by CHIRIPA (05-May-2021 14:57:21)
 ------------------------------------------------------
 Symbolic Z-matrix:
 Charge =  0 Multiplicity = 1

                         Standard orientation:
 ---------------------------------------------------------------------
 Center     Atomic      Atomic             Coordinates (Angstroms)
 Number     Number       Type             X           Y           Z
 ---------------------------------------------------------------------
      1          6           0       -3.457447   -1.982607   -0.543714
      2          6           0       -3.572057   -1.018912   -1.551026
      3          6           0       -3.142957    0.293246   -1.330430
      4          6           0       -2.601654    0.608444   -0.085065
      5          6           0       -2.474176   -0.329276    0.938516
      6          6           0       -2.909838   -1.635326    0.695657
      7          1           0       -3.793331   -2.999551   -0.723726
      8          1           0       -3.996940   -1.285766   -2.514514
      9          1           0       -3.219957    1.059101   -2.092634
     10          1           0       -2.046446   -0.033240    1.888688
     11          1           0       -2.819601   -2.381670    1.479795
     12          7           0       -2.143912    1.994334    0.160255
     13          8           0       -1.670557    2.246677    1.266101
     14          8           0       -2.267156    2.802009   -0.757955
     15          6           0        0.781812   -1.561475    1.299387
     16          6           0        1.285724   -2.069243    0.097403
     17          6           0        2.335655   -1.422903   -0.561715
     18          6           0        2.860325   -0.265816    0.012010
     19          6           0        2.379917    0.264747    1.208254
     20          6           0        1.329552   -0.398151    1.850006
     21          1           0       -0.033968   -2.069999    1.804661
     22          1           0        0.862290   -2.972514   -0.332539
     23          1           0        2.744871   -1.794239   -1.493418
     24          1           0        2.822538    1.167084    1.612351
     25          1           0        0.940209   -0.001531    2.783361
     26          7           0        3.972070    0.427201   -0.676577
     27          8           0        4.416979    1.444983   -0.150447
     28          8           0        4.377495   -0.060517   -1.729382
 ---------------------------------------------------------------------

 SCF Done:  E(RHF) =  -868.335887138     A.U. after   16 cycles
 E2 =    -0.2602785697D+01 EUMP2 =    -0.87093867283489D+03

 The electronic state is 1-A.
 Alpha  occ. eigenvalues --  -20.61317 -20.61291 -20.60596 -20.60577 -15.86365
 Alpha  occ. eigenvalues --  -15.85646 -11.31846 -11.31077 -11.28562 -11.28408
 Alpha  occ. eigenvalues --  -11.28247 -11.27705 -11.27617 -11.27586 -11.27539
 Alpha  occ. eigenvalues --  -11.27425 -11.26774 -11.26683  -1.60370  -1.59662
 Alpha  occ. eigenvalues --   -1.39925  -1.39213  -1.20063  -1.19284  -1.09425
 Alpha  occ. eigenvalues --   -1.08700  -1.05514  -1.04685  -0.96245  -0.95510
 Alpha  occ. eigenvalues --   -0.86898  -0.86101  -0.83107  -0.82319  -0.78123
 Alpha  occ. eigenvalues --   -0.77332  -0.72591  -0.71868  -0.71688  -0.71209
 Alpha  occ. eigenvalues --   -0.70983  -0.70469  -0.65725  -0.65539  -0.64944
 Alpha  occ. eigenvalues --   -0.64717  -0.62862  -0.62022  -0.55996  -0.55350
 Alpha  occ. eigenvalues --   -0.53887  -0.53616  -0.52892  -0.52790  -0.49353
 Alpha  occ. eigenvalues --   -0.49328  -0.48634  -0.48611  -0.45307  -0.44604
 Alpha  occ. eigenvalues --   -0.38081  -0.37818  -0.36495  -0.36264
 Alpha virt. eigenvalues --    0.04342   0.05297   0.10334   0.11477   0.15660
 Alpha virt. eigenvalues --    0.16824   0.19116   0.22128   0.25450   0.26147
 Alpha virt. eigenvalues --    0.27899   0.29305   0.30030   0.31504   0.32512

 Mulliken charges:
               1
     1  C   -0.171461
     2  C   -0.218714
     3  C   -0.168828
     4  C    0.160183
     5  C   -0.164659
     6  C   -0.224180
     7  H    0.226483
     8  H    0.226220
     9  H    0.279020
    10  H    0.269627
    11  H    0.217807
    12  N    0.489030
    13  O   -0.463461
    14  O   -0.455828
    15  C   -0.167962
    16  C   -0.218210
    17  C   -0.171411
    18  C    0.157976
    19  C   -0.167096
    20  C   -0.217348
    21  H    0.214306
    22  H    0.219026
    23  H    0.274702
    24  H    0.279962
    25  H    0.226084
    26  N    0.488253
    27  O   -0.457646
    28  O   -0.461874
 Sum of Mulliken charges =  -0.00000

 Dipole moment (field-independent basis, Debye):
    X=             -5.5435    Y=             -7.0367    Z=              1.4012  Tot=              9.0669
 Quadrupole moment (field-independent basis, Debye-Ang):
   XX=           -119.5445   YY=           -107.9935   ZZ=            -98.1433
   XY=              5.6107   XZ=             11.5364   YZ=              0.9648

 Normal termination of Gaussian 16 at Thu May  6 04:53:56 2021.
