 Gaussian 16, Revision A.03,
 Gaussian 16:  EM64L-G16RevA.03 25-Dec-2016

 -------------
 #p 6-31g* mp2
 -------------

 ------------------------------------------------------
 Input file generated by CHIRIPA (05-May-2021 14:53:14)
 ------------------------------------------------------
 Symbolic Z-matrix:
 Charge =  0 Multiplicity = 1

                         Standard orientation:
 ---------------------------------------------------------------------
 Center     Atomic      Atomic             Coordinates (Angstroms)
 Number     Number       Type             X           Y           Z
 ---------------------------------------------------------------------
      1          6           0        3.239389   -0.344350   -0.574815
      2          6           0        1.890367    0.005923    0.054021
      3          6           0        0.705226   -0.495336   -0.771797
      4          1           0        3.287782    0.083556   -1.585508
      5          1           0        3.308815   -1.434550   -0.693301
      6          1           0        1.824074    1.095037    0.172558
      7          1           0        1.845255   -0.422705    1.063406
      8          1           0        0.743670   -1.584172   -0.879319
      9          1           0        0.722369   -0.057806   -1.775229
     10          1           0       -0.249143   -0.234103   -0.304041
     11          6           0        4.433847    0.150081    0.239147
     12          6           0        5.782869   -0.200192   -0.389688
     13          6           0        6.968009    0.301067    0.436130
     14          1           0        4.364421    1.240281    0.357633
     15          1           0        4.385453   -0.277825    1.249840
     16          1           0        5.827980    0.228435   -1.399074
     17          1           0        5.849162   -1.289306   -0.508225
     18          1           0        6.950867   -0.136463    1.439561
     19          1           0        6.929565    1.389903    0.543651
     20          1           0        7.922379    0.039833   -0.031627
     21          6           0       -3.121569   -2.440867    0.259367
     22          6           0       -3.556116   -1.776341   -0.892195
     23          6           0       -3.491940   -0.382181   -0.974313
     24          6           0       -2.985349    0.319197    0.118722
     25          6           0       -2.544629   -0.314072    1.279768
     26          6           0       -2.618101   -1.708902    1.339769
     27          1           0       -3.175034   -3.524144    0.314568
     28          1           0       -3.947577   -2.342215   -1.732785
     29          1           0       -3.821495    0.157697   -1.853713
     30          1           0       -2.159247    0.277207    2.101526
     31          1           0       -2.279907   -2.222316    2.235355
     32          7           0       -2.912489    1.795486    0.043494
     33          8           0       -2.462092    2.390447    1.020122
     34          8           0       -3.307157    2.329689   -0.990673
 ---------------------------------------------------------------------

 SCF Done:  E(RHF) =  -669.534341516     A.U. after   15 cycles
 E2 =    -0.2093113236D+01 EUMP2 =    -0.67162745475264D+03

 The electronic state is 1-A.
 Alpha  occ. eigenvalues --  -20.60798 -20.60793 -15.85849 -11.31198 -11.27799
 Alpha  occ. eigenvalues --  -11.27775 -11.27556 -11.26828 -11.26815 -11.21546
 Alpha  occ. eigenvalues --  -11.21483 -11.21326 -11.21267 -11.21016 -11.20870
 Alpha  occ. eigenvalues --   -1.59874  -1.39426  -1.19423  -1.08803  -1.08348
 Alpha  occ. eigenvalues --   -1.04818  -1.03442  -0.95902  -0.95629  -0.86919
 Alpha  occ. eigenvalues --   -0.86211  -0.82463  -0.79511  -0.78163  -0.77507
 Alpha  occ. eigenvalues --   -0.72069  -0.71212  -0.70515  -0.65061  -0.64979
 Alpha  occ. eigenvalues --   -0.64812  -0.62157  -0.60841  -0.59351  -0.57567
 Alpha  occ. eigenvalues --   -0.55313  -0.55184  -0.53659  -0.52901  -0.52370
 Alpha  occ. eigenvalues --   -0.51965  -0.49835  -0.48830  -0.48823  -0.47820
 Alpha  occ. eigenvalues --   -0.46543  -0.45707  -0.45629  -0.44827  -0.43686
 Alpha  occ. eigenvalues --   -0.37346  -0.36389
 Alpha virt. eigenvalues --    0.05009   0.11191   0.16497   0.21377   0.22941
 Alpha virt. eigenvalues --    0.24393   0.26719   0.27246   0.27610   0.28014
 Alpha virt. eigenvalues --    0.28321   0.30844   0.31474   0.31952   0.32068

 Mulliken charges:
               1
     1  C   -0.298205
     2  C   -0.299136
     3  C   -0.481606
     4  H    0.150687
     5  H    0.146897
     6  H    0.157780
     7  H    0.146941
     8  H    0.149931
     9  H    0.155654
    10  H    0.167348
    11  C   -0.298296
    12  C   -0.299537
    13  C   -0.475676
    14  H    0.151676
    15  H    0.148195
    16  H    0.152435
    17  H    0.150623
    18  H    0.154523
    19  H    0.156169
    20  H    0.159904
    21  C   -0.171134
    22  C   -0.216198
    23  C   -0.171133
    24  C    0.160839
    25  C   -0.179626
    26  C   -0.212122
    27  H    0.225876
    28  H    0.223877
    29  H    0.275921
    30  H    0.275819
    31  H    0.223785
    32  N    0.488984
    33  O   -0.460656
    34  O   -0.460537
 Sum of Mulliken charges =  -0.00000

 Dipole moment (field-independent basis, Debye):
    X=             -0.3589    Y=             -5.1810    Z=              0.2558  Tot=              5.1997
 Quadrupole moment (field-independent basis, Debye-Ang):
   XX=            -94.1609   YY=            -97.9835   ZZ=            -90.5468
   XY=             15.7100   XZ=              0.8509   YZ=             -1.0427

 Normal termination of Gaussian 16 at Thu May  6 01:02:27 2021.
