 Gaussian 16, Revision A.03,
 Gaussian 16:  EM64L-G16RevA.03 25-Dec-2016

 -------------
 #p 6-31g* mp2
 -------------

 ------------------------------------------------------
 Input file generated by CHIRIPA (05-May-2021 14:51:11)
 ------------------------------------------------------
 Symbolic Z-matrix:
 Charge =  0 Multiplicity = 1

                         Standard orientation:
 ---------------------------------------------------------------------
 Center     Atomic      Atomic             Coordinates (Angstroms)
 Number     Number       Type             X           Y           Z
 ---------------------------------------------------------------------
      1          6           0        3.699396    0.311889   -0.156490
      2          6           0        5.214421    0.369042    0.042047
      3          6           0        5.818079    1.703813   -0.395876
      4          1           0        3.467741    0.490896   -1.215376
      5          1           0        3.231447    1.129956    0.408474
      6          1           0        5.679258   -0.449727   -0.522011
      7          1           0        5.442507    0.189688    1.100548
      8          1           0        5.381526    2.529797    0.174888
      9          1           0        5.619622    1.886749   -1.456890
     10          1           0        6.901965    1.722916   -0.245253
     11          6           0        3.081309   -1.016276    0.276724
     12          6           0        1.566284   -1.073428    0.078187
     13          6           0        0.962625   -2.408199    0.516110
     14          1           0        3.549258   -1.834343   -0.288241
     15          1           0        3.312963   -1.195282    1.335609
     16          1           0        1.338197   -0.894074   -0.980314
     17          1           0        1.101447   -0.254660    0.642245
     18          1           0        1.161083   -2.591136    1.577124
     19          1           0        1.399178   -3.234183   -0.054655
     20          1           0       -0.121260   -2.427303    0.365487
     21          6           0       -3.773341   -0.302068   -0.153353
     22          6           0       -2.869793   -1.535341   -0.178280
     23          6           0       -3.650594   -2.836534   -0.365481
     24          1           0       -4.508214   -0.410083    0.656116
     25          1           0       -4.345146   -0.256059   -1.090540
     26          1           0       -2.298845   -1.578252    0.758092
     27          1           0       -2.136864   -1.424292   -0.987662
     28          1           0       -4.207557   -2.819415   -1.307871
     29          1           0       -4.370459   -2.974250    0.447802
     30          1           0       -2.985231   -3.705400   -0.380372
     31          6           0       -3.007363    1.006455    0.033119
     32          6           0       -3.910912    2.239728    0.058047
     33          6           0       -3.130111    3.540920    0.245248
     34          1           0       -2.435560    0.960446    0.970306
     35          1           0       -2.272491    1.114470   -0.776350
     36          1           0       -4.643841    2.128678    0.867429
     37          1           0       -4.481860    2.282639   -0.878326
     38          1           0       -2.410246    3.678636   -0.568036
     39          1           0       -2.573148    3.523801    1.187638
     40          1           0       -3.795474    4.409787    0.260138
 ---------------------------------------------------------------------

 SCF Done:  E(RHF) =  -470.732910207     A.U. after   11 cycles
 E2 =    -0.1583064328D+01 EUMP2 =    -0.47231597453499D+03

 The electronic state is 1-A.
 Alpha  occ. eigenvalues --  -11.21634 -11.21613 -11.21577 -11.21535 -11.21424
 Alpha  occ. eigenvalues --  -11.21365 -11.21363 -11.21304 -11.21105 -11.21080
 Alpha  occ. eigenvalues --  -11.21052 -11.20906  -1.08460  -1.08380  -1.03577
 Alpha  occ. eigenvalues --   -1.03459  -0.96014  -0.95913  -0.87028  -0.86933
 Alpha  occ. eigenvalues --   -0.79668  -0.79509  -0.78284  -0.78193  -0.65091
 Alpha  occ. eigenvalues --   -0.65010  -0.60970  -0.60861  -0.59618  -0.59123
 Alpha  occ. eigenvalues --   -0.57746  -0.57383  -0.55288  -0.55208  -0.52740
 Alpha  occ. eigenvalues --   -0.52588  -0.52443  -0.52327  -0.49944  -0.49863
 Alpha  occ. eigenvalues --   -0.48064  -0.47704  -0.46655  -0.46577  -0.45796
 Alpha  occ. eigenvalues --   -0.45757  -0.45712  -0.45657  -0.43835  -0.43662
 Alpha virt. eigenvalues --    0.21767   0.23142   0.23483   0.24810   0.26075
 Alpha virt. eigenvalues --    0.26603   0.26844   0.27096   0.28083   0.29113
 Alpha virt. eigenvalues --    0.30669   0.30982   0.31404   0.31762   0.32310

 Mulliken charges:
               1
     1  C   -0.298179
     2  C   -0.299602
     3  C   -0.475673
     4  H    0.149388
     5  H    0.149526
     6  H    0.151849
     7  H    0.151873
     8  H    0.155180
     9  H    0.155086
    10  H    0.160156
    11  C   -0.298179
    12  C   -0.298739
    13  C   -0.485974
    14  H    0.149370
    15  H    0.149466
    16  H    0.150953
    17  H    0.152106
    18  H    0.153753
    19  H    0.153987
    20  H    0.172703
    21  C   -0.297152
    22  C   -0.304809
    23  C   -0.477147
    24  H    0.149689
    25  H    0.149569
    26  H    0.154548
    27  H    0.153589
    28  H    0.155566
    29  H    0.155538
    30  H    0.161285
    31  C   -0.298621
    32  C   -0.299687
    33  C   -0.475694
    34  H    0.149366
    35  H    0.150298
    36  H    0.151928
    37  H    0.151981
    38  H    0.155373
    39  H    0.155039
    40  H    0.160287
 Sum of Mulliken charges =  -0.00000

 Dipole moment (field-independent basis, Debye):
    X=             -0.0583    Y=              0.0054    Z=             -0.0064  Tot=              0.0589
 Quadrupole moment (field-independent basis, Debye-Ang):
   XX=            -85.3496   YY=            -86.5646   ZZ=            -82.9260
   XY=             -0.9063   XZ=             -0.1314   YZ=              0.3977

 Normal termination of Gaussian 16 at Thu May  6 03:50:31 2021.
