 Gaussian 16, Revision A.03,
 Gaussian 16:  EM64L-G16RevA.03 25-Dec-2016

 -------------
 #p 6-31g* mp2
 -------------

 ------------------------------------------------------
 Input file generated by CHIRIPA (05-May-2021 14:53:15)
 ------------------------------------------------------
 Symbolic Z-matrix:
 Charge =  0 Multiplicity = 1

                         Standard orientation:
 ---------------------------------------------------------------------
 Center     Atomic      Atomic             Coordinates (Angstroms)
 Number     Number       Type             X           Y           Z
 ---------------------------------------------------------------------
      1          6           0        4.175034   -0.585275   -0.210996
      2          6           0        4.947161    0.502954    0.535704
      3          6           0        6.458715    0.273443    0.517689
      4          1           0        4.404438   -1.561778    0.237067
      5          1           0        4.528021   -0.627761   -1.250703
      6          1           0        4.591854    0.544312    1.573327
      7          1           0        4.715744    1.477001    0.085933
      8          1           0        6.833084    0.253356   -0.510924
      9          1           0        6.708490   -0.684632    0.984921
     10          1           0        6.991124    1.062998    1.057136
     11          6           0        2.662689   -0.369742   -0.201812
     12          6           0        1.890561   -1.457971   -0.948513
     13          6           0        0.379008   -1.228460   -0.930498
     14          1           0        2.309702   -0.327256    0.837894
     15          1           0        2.433284    0.606761   -0.649876
     16          1           0        2.121979   -2.432018   -0.498742
     17          1           0        2.245869   -1.499329   -1.986136
     18          1           0        0.129233   -0.270385   -1.397730
     19          1           0        0.004638   -1.208373    0.098115
     20          1           0       -0.153401   -2.018015   -1.469945
     21          6           0       -1.573516    2.595757   -0.308928
     22          6           0       -1.501312    2.036265    0.971023
     23          6           0       -2.105670    0.805264    1.242934
     24          6           0       -2.777085    0.158171    0.206709
     25          6           0       -2.866506    0.689788   -1.078856
     26          6           0       -2.254682    1.921921   -1.327986
     27          1           0       -1.101136    3.552469   -0.511307
     28          1           0       -0.972980    2.557331    1.764372
     29          1           0       -2.065198    0.349341    2.224726
     30          1           0       -3.400237    0.146714   -1.849323
     31          1           0       -2.312373    2.354043   -2.322967
     32          7           0       -3.420844   -1.145634    0.482510
     33          8           0       -4.006397   -1.695758   -0.447612
     34          8           0       -3.327679   -1.592745    1.623584
 ---------------------------------------------------------------------

 SCF Done:  E(RHF) =  -669.534875817     A.U. after   15 cycles
 E2 =    -0.2093503551D+01 EUMP2 =    -0.67162837936800D+03

 The electronic state is 1-A.
 Alpha  occ. eigenvalues --  -20.60755 -20.60750 -15.85803 -11.31142 -11.27741
 Alpha  occ. eigenvalues --  -11.27734 -11.27520 -11.26787 -11.26774 -11.21825
 Alpha  occ. eigenvalues --  -11.21594 -11.21546 -11.21492 -11.21257 -11.20909
 Alpha  occ. eigenvalues --   -1.59826  -1.39381  -1.19358  -1.08753  -1.08553
 Alpha  occ. eigenvalues --   -1.04768  -1.03614  -0.96065  -0.95583  -0.87086
 Alpha  occ. eigenvalues --   -0.86165  -0.82420  -0.79699  -0.78378  -0.77461
 Alpha  occ. eigenvalues --   -0.72028  -0.71143  -0.70476  -0.65187  -0.65015
 Alpha  occ. eigenvalues --   -0.64774  -0.62116  -0.61017  -0.59432  -0.57712
 Alpha  occ. eigenvalues --   -0.55367  -0.55271  -0.53522  -0.52863  -0.52727
 Alpha  occ. eigenvalues --   -0.52084  -0.50023  -0.48786  -0.48781  -0.47928
 Alpha  occ. eigenvalues --   -0.46743  -0.45883  -0.45852  -0.44785  -0.43882
 Alpha  occ. eigenvalues --   -0.37292  -0.36329
 Alpha virt. eigenvalues --    0.05069   0.11214   0.16552   0.21388   0.22740
 Alpha virt. eigenvalues --    0.24225   0.26462   0.27199   0.27417   0.27727
 Alpha virt. eigenvalues --    0.28371   0.30783   0.31295   0.31696   0.31819

 Mulliken charges:
               1
     1  C   -0.298259
     2  C   -0.299240
     3  C   -0.475673
     4  H    0.151368
     5  H    0.149596
     6  H    0.151021
     7  H    0.149384
     8  H    0.155441
     9  H    0.156385
    10  H    0.159787
    11  C   -0.296742
    12  C   -0.300321
    13  C   -0.481342
    14  H    0.147888
    15  H    0.145564
    16  H    0.154095
    17  H    0.150592
    18  H    0.155042
    19  H    0.155323
    20  H    0.163862
    21  C   -0.171131
    22  C   -0.216104
    23  C   -0.173049
    24  C    0.166046
    25  C   -0.170069
    26  C   -0.219278
    27  H    0.225602
    28  H    0.223593
    29  H    0.275141
    30  H    0.275613
    31  H    0.223424
    32  N    0.488208
    33  O   -0.460528
    34  O   -0.461240
 Sum of Mulliken charges =  -0.00000

 Dipole moment (field-independent basis, Debye):
    X=              2.1983    Y=              4.5813    Z=             -0.9762  Tot=              5.1744
 Quadrupole moment (field-independent basis, Debye-Ang):
   XX=           -108.9434   YY=            -93.6142   ZZ=            -90.0227
   XY=            -12.4417   XZ=              4.8504   YZ=              0.5576

 Normal termination of Gaussian 16 at Thu May  6 18:50:45 2021.
