 Gaussian 16, Revision A.03,
 Gaussian 16:  EM64L-G16RevA.03 25-Dec-2016

 -------------
 #p 6-31g* mp2
 -------------

 ------------------------------------------------------
 Input file generated by CHIRIPA (05-May-2021 14:55:21)
 ------------------------------------------------------
 Symbolic Z-matrix:
 Charge =  0 Multiplicity = 1

                         Standard orientation:
 ---------------------------------------------------------------------
 Center     Atomic      Atomic             Coordinates (Angstroms)
 Number     Number       Type             X           Y           Z
 ---------------------------------------------------------------------
      1          6           0        2.410386    2.221444   -0.870260
      2          6           0        3.725607    1.802294   -0.644366
      3          6           0        3.990814    0.501809   -0.205104
      4          6           0        2.911993   -0.357122   -0.000965
      5          6           0        1.590617    0.030828   -0.217179
      6          6           0        1.348960    1.335935   -0.656323
      7          1           0        2.213513    3.233487   -1.211443
      8          1           0        4.551894    2.487835   -0.809679
      9          1           0        4.999318    0.151146   -0.022416
     10          1           0        0.787688   -0.675284   -0.043604
     11          1           0        0.326526    1.658709   -0.830936
     12          7           0        3.180291   -1.736334    0.463999
     13          8           0        2.212326   -2.473863    0.636431
     14          8           0        4.353467   -2.053716    0.647202
     15          6           0       -3.789226    0.873120    0.363148
     16          6           0       -2.512449    1.710001    0.449498
     17          6           0       -2.765711    3.121829    0.979022
     18          1           0       -4.512636    1.385397   -0.285846
     19          1           0       -4.249338    0.815057    1.359300
     20          1           0       -2.054144    1.765312   -0.546249
     21          1           0       -1.791922    1.195577    1.098209
     22          1           0       -3.201369    3.084434    1.982717
     23          1           0       -3.465081    3.657405    0.328916
     24          1           0       -1.839621    3.702647    1.032578
     25          6           0       -3.552277   -0.540802   -0.164499
     26          6           0       -4.829054   -1.377683   -0.250851
     27          6           0       -4.575793   -2.789510   -0.780374
     28          1           0       -3.092165   -0.482739   -1.160653
     29          1           0       -2.828866   -1.053079    0.484494
     30          1           0       -5.549582   -0.863259   -0.899561
     31          1           0       -5.287359   -1.432994    0.744897
     32          1           0       -3.876422   -3.325087   -0.130268
     33          1           0       -4.140134   -2.752115   -1.784069
     34          1           0       -5.501882   -3.370329   -0.833930
 ---------------------------------------------------------------------

 SCF Done:  E(RHF) =  -669.535629720     A.U. after   15 cycles
 E2 =    -0.2091503995D+01 EUMP2 =    -0.67162713371469D+03

 The electronic state is 1-A.
 Alpha  occ. eigenvalues --  -20.60714 -20.60708 -15.85765 -11.31111 -11.27680
 Alpha  occ. eigenvalues --  -11.27653 -11.27408 -11.26699 -11.26614 -11.22576
 Alpha  occ. eigenvalues --  -11.22021 -11.21924 -11.21876 -11.21860 -11.21211
 Alpha  occ. eigenvalues --   -1.59789  -1.39343  -1.19276  -1.09028  -1.08677
 Alpha  occ. eigenvalues --   -1.04674  -1.04093  -0.96503  -0.95517  -0.87523
 Alpha  occ. eigenvalues --   -0.86075  -0.82353  -0.80222  -0.78826  -0.77383
 Alpha  occ. eigenvalues --   -0.71984  -0.71112  -0.70390  -0.65661  -0.64926
 Alpha  occ. eigenvalues --   -0.64680  -0.62052  -0.61472  -0.59902  -0.58122
 Alpha  occ. eigenvalues --   -0.55765  -0.55182  -0.53223  -0.53008  -0.52944
 Alpha  occ. eigenvalues --   -0.52747  -0.50440  -0.48758  -0.48741  -0.48462
 Alpha  occ. eigenvalues --   -0.47242  -0.46341  -0.46246  -0.44753  -0.44342
 Alpha  occ. eigenvalues --   -0.37263  -0.36271
 Alpha virt. eigenvalues --    0.05121   0.11362   0.16589   0.19985   0.22674
 Alpha virt. eigenvalues --    0.23743   0.25183   0.25321   0.27107   0.28491
 Alpha virt. eigenvalues --    0.29615   0.30192   0.31007   0.31318   0.32200

 Mulliken charges:
               1
     1  C   -0.172886
     2  C   -0.218419
     3  C   -0.171377
     4  C    0.158810
     5  C   -0.175178
     6  C   -0.224481
     7  H    0.225511
     8  H    0.222976
     9  H    0.275227
    10  H    0.276281
    11  H    0.234942
    12  N    0.488125
    13  O   -0.460729
    14  O   -0.460750
    15  C   -0.297038
    16  C   -0.307417
    17  C   -0.475717
    18  H    0.151456
    19  H    0.153563
    20  H    0.143790
    21  H    0.154471
    22  H    0.160476
    23  H    0.157398
    24  H    0.157635
    25  C   -0.300713
    26  C   -0.300058
    27  C   -0.476765
    28  H    0.147162
    29  H    0.151883
    30  H    0.152089
    31  H    0.153643
    32  H    0.159101
    33  H    0.155359
    34  H    0.161629
 Sum of Mulliken charges =  -0.00000

 Dipole moment (field-independent basis, Debye):
    X=             -1.1690    Y=              4.8233    Z=             -1.5666  Tot=              5.2043
 Quadrupole moment (field-independent basis, Debye-Ang):
   XX=            -94.7253   YY=            -99.4929   ZZ=            -94.7875
   XY=             15.7689   XZ=             -4.8790   YZ=             -0.0460

 Normal termination of Gaussian 16 at Thu May  6 15:51:01 2021.
