 Gaussian 16, Revision A.03,
 Gaussian 16:  EM64L-G16RevA.03 25-Dec-2016

 -------------
 #p 6-31g* mp2
 -------------

 ------------------------------------------------------
 Input file generated by CHIRIPA (05-May-2021 14:55:25)
 ------------------------------------------------------
 Symbolic Z-matrix:
 Charge =  0 Multiplicity = 1

                         Standard orientation:
 ---------------------------------------------------------------------
 Center     Atomic      Atomic             Coordinates (Angstroms)
 Number     Number       Type             X           Y           Z
 ---------------------------------------------------------------------
      1          6           0       -1.759713    1.724371    1.214635
      2          6           0       -2.918394    1.276642    1.857690
      3          6           0       -3.721842    0.294601    1.270652
      4          6           0       -3.335035   -0.220206    0.034268
      5          6           0       -2.186472    0.205299   -0.631341
      6          6           0       -1.398088    1.188216   -0.025641
      7          1           0       -1.141426    2.487585    1.677909
      8          1           0       -3.201689    1.691234    2.820966
      9          1           0       -4.624023   -0.070175    1.746495
     10          1           0       -1.929906   -0.226872   -1.590935
     11          1           0       -0.498783    1.534026   -0.527350
     12          7           0       -4.177636   -1.260313   -0.597081
     13          8           0       -3.815046   -1.697915   -1.686884
     14          8           0       -5.184703   -1.618252    0.009825
     15          6           0        4.182070   -0.641229    0.105791
     16          6           0        5.643227   -1.002056    0.375618
     17          6           0        5.809001   -2.412869    0.941231
     18          1           0        3.609932   -0.733183    1.039144
     19          1           0        3.754966   -1.371087   -0.595838
     20          1           0        6.067845   -0.270931    1.075455
     21          1           0        6.211991   -0.909046   -0.558444
     22          1           0        5.411353   -3.156862    0.243413
     23          1           0        5.266388   -2.515121    1.886597
     24          1           0        6.861263   -2.649975    1.126666
     25          6           0        4.000111    0.766116   -0.459895
     26          6           0        2.538954    1.126943   -0.729723
     27          6           0        2.373180    2.537756   -1.295336
     28          1           0        4.427216    1.495974    0.241734
     29          1           0        4.572249    0.858071   -1.393249
     30          1           0        1.970190    1.033934    0.204340
     31          1           0        2.114336    0.395818   -1.429561
     32          1           0        2.915794    2.640009   -2.240701
     33          1           0        2.770828    3.281749   -0.597517
     34          1           0        1.320918    2.774863   -1.480771
 ---------------------------------------------------------------------

 SCF Done:  E(RHF) =  -669.535292494     A.U. after   15 cycles
 E2 =    -0.2091600978D+01 EUMP2 =    -0.67162689347266D+03

 The electronic state is 1-A.
 Alpha  occ. eigenvalues --  -20.60724 -20.60719 -15.85776 -11.31132 -11.27700
 Alpha  occ. eigenvalues --  -11.27683 -11.27435 -11.26720 -11.26647 -11.22616
 Alpha  occ. eigenvalues --  -11.22212 -11.22122 -11.22028 -11.21907 -11.21391
 Alpha  occ. eigenvalues --   -1.59799  -1.39353  -1.19300  -1.09125  -1.08697
 Alpha  occ. eigenvalues --   -1.04705  -1.04253  -0.96695  -0.95535  -0.87703
 Alpha  occ. eigenvalues --   -0.86102  -0.82368  -0.80341  -0.78887  -0.77414
 Alpha  occ. eigenvalues --   -0.71995  -0.71122  -0.70413  -0.65754  -0.64950
 Alpha  occ. eigenvalues --   -0.64760  -0.62140  -0.61625  -0.60057  -0.58288
 Alpha  occ. eigenvalues --   -0.55948  -0.55197  -0.53448  -0.53181  -0.53027
 Alpha  occ. eigenvalues --   -0.52644  -0.50609  -0.48751  -0.48750  -0.48649
 Alpha  occ. eigenvalues --   -0.47359  -0.46428  -0.46320  -0.44761  -0.44492
 Alpha  occ. eigenvalues --   -0.37282  -0.36293
 Alpha virt. eigenvalues --    0.05114   0.11283   0.16600   0.19776   0.22528
 Alpha virt. eigenvalues --    0.23835   0.25825   0.26026   0.26874   0.28124
 Alpha virt. eigenvalues --    0.29015   0.30031   0.30776   0.31434   0.31910

 Mulliken charges:
               1
     1  C   -0.174834
     2  C   -0.218347
     3  C   -0.171389
     4  C    0.159027
     5  C   -0.174243
     6  C   -0.226984
     7  H    0.225513
     8  H    0.223060
     9  H    0.275336
    10  H    0.275682
    11  H    0.240330
    12  N    0.488052
    13  O   -0.460540
    14  O   -0.460686
    15  C   -0.299163
    16  C   -0.300302
    17  C   -0.476150
    18  H    0.150100
    19  H    0.151723
    20  H    0.151965
    21  H    0.152993
    22  H    0.156744
    23  H    0.155620
    24  H    0.161591
    25  C   -0.298216
    26  C   -0.305381
    27  C   -0.481385
    28  H    0.150486
    29  H    0.152503
    30  H    0.149284
    31  H    0.153418
    32  H    0.162766
    33  H    0.158392
    34  H    0.153035
 Sum of Mulliken charges =  -0.00000

 Dipole moment (field-independent basis, Debye):
    X=              3.2069    Y=              3.6260    Z=              2.2098  Tot=              5.3212
 Quadrupole moment (field-independent basis, Debye-Ang):
   XX=           -112.3691   YY=            -97.9418   ZZ=            -91.0661
   XY=            -12.8439   XZ=            -10.5393   YZ=              0.5912

 Normal termination of Gaussian 16 at Thu May  6 06:24:43 2021.
