 Gaussian 16, Revision A.03,
 Gaussian 16:  EM64L-G16RevA.03 25-Dec-2016

 -------------
 #p 6-31g* mp2
 -------------

 ------------------------------------------------------
 Input file generated by CHIRIPA (05-May-2021 14:51:12)
 ------------------------------------------------------
 Symbolic Z-matrix:
 Charge =  0 Multiplicity = 1

                         Standard orientation:
 ---------------------------------------------------------------------
 Center     Atomic      Atomic             Coordinates (Angstroms)
 Number     Number       Type             X           Y           Z
 ---------------------------------------------------------------------
      1          6           0       -3.128138   -0.416728   -0.750418
      2          6           0       -3.952334   -1.306220    0.180974
      3          6           0       -4.337325   -2.638947   -0.461998
      4          1           0       -3.699855   -0.230297   -1.669835
      5          1           0       -2.219189   -0.955792   -1.051445
      6          1           0       -4.858781   -0.765110    0.481257
      7          1           0       -3.378666   -1.490398    1.098361
      8          1           0       -3.442611   -3.202330   -0.746056
      9          1           0       -4.931135   -2.472921   -1.366667
     10          1           0       -4.926035   -3.259067    0.221180
     11          6           0       -2.735606    0.919139   -0.121843
     12          6           0       -1.911410    1.808630   -1.053235
     13          6           0       -1.526419    3.141358   -0.410263
     14          1           0       -3.644555    1.458203    0.179183
     15          1           0       -2.163889    0.732707    0.797574
     16          1           0       -2.485077    1.992808   -1.970623
     17          1           0       -1.004963    1.267520   -1.353518
     18          1           0       -0.932608    2.975331    0.494405
     19          1           0       -2.421132    3.704740   -0.126206
     20          1           0       -0.937709    3.761477   -1.093441
     21          6           0        2.219994   -0.026755    0.598253
     22          6           0        1.858673   -0.176888    2.076391
     23          6           0        0.431363    0.276239    2.385030
     24          1           0        2.095019    1.023653    0.301654
     25          1           0        1.510703   -0.608777   -0.006356
     26          1           0        2.569272    0.404130    2.678123
     27          1           0        1.984706   -1.227024    2.369554
     28          1           0       -0.292016   -0.310599    1.809753
     29          1           0        0.295872    1.329825    2.120075
     30          1           0        0.194175    0.160312    3.447180
     31          6           0        3.643750   -0.475656    0.274009
     32          6           0        4.005071   -0.325522   -1.204130
     33          6           0        5.432380   -0.778650   -1.512769
     34          1           0        4.353040    0.106366    0.878617
     35          1           0        3.768724   -1.526064    0.570607
     36          1           0        3.879038    0.724615   -1.497293
     37          1           0        3.294471   -0.906541   -1.805862
     38          1           0        5.567871   -1.832234   -1.247814
     39          1           0        6.155759   -0.191812   -0.937491
     40          1           0        5.669569   -0.662723   -2.574919
 ---------------------------------------------------------------------

 SCF Done:  E(RHF) =  -470.732888867     A.U. after   11 cycles
 E2 =    -0.1583882040D+01 EUMP2 =    -0.47231677090776D+03

 The electronic state is 1-A.
 Alpha  occ. eigenvalues --  -11.21695 -11.21644 -11.21581 -11.21515 -11.21481
 Alpha  occ. eigenvalues --  -11.21415 -11.21340 -11.21213 -11.21188 -11.21102
 Alpha  occ. eigenvalues --  -11.21060 -11.21021  -1.08507  -1.08363  -1.03612
 Alpha  occ. eigenvalues --   -1.03475  -0.96064  -0.95930  -0.87087  -0.86946
 Alpha  occ. eigenvalues --   -0.79699  -0.79528  -0.78327  -0.78159  -0.65150
 Alpha  occ. eigenvalues --   -0.65007  -0.61031  -0.60877  -0.59417  -0.59298
 Alpha  occ. eigenvalues --   -0.57667  -0.57546  -0.55492  -0.55097  -0.52754
 Alpha  occ. eigenvalues --   -0.52639  -0.52520  -0.52346  -0.50110  -0.49769
 Alpha  occ. eigenvalues --   -0.48129  -0.47795  -0.46710  -0.46540  -0.45992
 Alpha  occ. eigenvalues --   -0.45776  -0.45653  -0.45409  -0.43858  -0.43725
 Alpha virt. eigenvalues --    0.20124   0.22906   0.23199   0.25099   0.25506
 Alpha virt. eigenvalues --    0.25719   0.26516   0.27865   0.28425   0.29391
 Alpha virt. eigenvalues --    0.30580   0.31441   0.31783   0.31838   0.32331

 Mulliken charges:
               1
     1  C   -0.298350
     2  C   -0.300011
     3  C   -0.475564
     4  H    0.149594
     5  H    0.148251
     6  H    0.152223
     7  H    0.151611
     8  H    0.154743
     9  H    0.155264
    10  H    0.160190
    11  C   -0.306056
    12  C   -0.299838
    13  C   -0.479320
    14  H    0.148809
    15  H    0.159526
    16  H    0.151478
    17  H    0.153005
    18  H    0.157819
    19  H    0.155136
    20  H    0.159700
    21  C   -0.299350
    22  C   -0.299867
    23  C   -0.482916
    24  H    0.150669
    25  H    0.149156
    26  H    0.152467
    27  H    0.152281
    28  H    0.158176
    29  H    0.159033
    30  H    0.161266
    31  C   -0.298352
    32  C   -0.299762
    33  C   -0.475761
    34  H    0.149847
    35  H    0.149813
    36  H    0.152213
    37  H    0.151897
    38  H    0.155229
    39  H    0.155290
    40  H    0.160463
 Sum of Mulliken charges =  -0.00000

 Dipole moment (field-independent basis, Debye):
    X=              0.0484    Y=             -0.0031    Z=              0.0409  Tot=              0.0635
 Quadrupole moment (field-independent basis, Debye-Ang):
   XX=            -85.0672   YY=            -84.8749   ZZ=            -84.8400
   XY=             -0.0950   XZ=              0.6028   YZ=             -0.3875

 Normal termination of Gaussian 16 at Thu May  6 05:31:45 2021.
