 Gaussian 16, Revision A.03,
 Gaussian 16:  EM64L-G16RevA.03 25-Dec-2016

 -------------
 #p 6-31g* mp2
 -------------

 ------------------------------------------------------
 Input file generated by CHIRIPA (05-May-2021 14:55:24)
 ------------------------------------------------------
 Symbolic Z-matrix:
 Charge =  0 Multiplicity = 1

                         Standard orientation:
 ---------------------------------------------------------------------
 Center     Atomic      Atomic             Coordinates (Angstroms)
 Number     Number       Type             X           Y           Z
 ---------------------------------------------------------------------
      1          6           0       -2.176590   -2.080790   -1.288078
      2          6           0       -1.192933   -1.187345   -0.851390
      3          6           0       -1.549748    0.035526   -0.275354
      4          6           0       -2.905728    0.334044   -0.150877
      5          6           0       -3.909129   -0.535146   -0.576302
      6          6           0       -3.529164   -1.752417   -1.149385
      7          1           0       -1.890415   -3.028570   -1.734410
      8          1           0       -0.141731   -1.439714   -0.957833
      9          1           0       -0.808845    0.745705    0.071239
     10          1           0       -4.948855   -0.255653   -0.456835
     11          1           0       -4.295245   -2.444338   -1.487630
     12          7           0       -3.295726    1.625678    0.457383
     13          8           0       -4.497239    1.865102    0.555769
     14          8           0       -2.392509    2.374181    0.824235
     15          6           0        4.317215   -0.088782   -0.019763
     16          6           0        4.507945    1.247968   -0.737193
     17          6           0        5.873471    1.365599   -1.414905
     18          1           0        5.111612   -0.212452    0.728961
     19          1           0        4.439959   -0.906280   -0.743660
     20          1           0        4.383509    2.062745   -0.012439
     21          1           0        3.712891    1.368557   -1.484164
     22          1           0        6.003880    0.573035   -2.158840
     23          1           0        6.678309    1.271167   -0.678752
     24          1           0        5.988512    2.328832   -1.921666
     25          6           0        2.956900   -0.221405    0.662645
     26          6           0        2.766172   -1.558155    1.380076
     27          6           0        1.400644   -1.675785    2.057788
     28          1           0        2.834157    0.596093    1.386542
     29          1           0        2.162505   -0.097734   -0.086078
     30          1           0        3.561225   -1.678745    2.127046
     31          1           0        2.890607   -2.372932    0.655322
     32          1           0        0.595807   -1.581354    1.321636
     33          1           0        1.270235   -0.883222    2.801722
     34          1           0        1.285604   -2.639019    2.564549
 ---------------------------------------------------------------------

 SCF Done:  E(RHF) =  -669.534754826     A.U. after   15 cycles
 E2 =    -0.2092728361D+01 EUMP2 =    -0.67162748318684D+03

 The electronic state is 1-A.
 Alpha  occ. eigenvalues --  -20.60758 -20.60753 -15.85813 -11.31193 -11.27777
 Alpha  occ. eigenvalues --  -11.27762 -11.27524 -11.26790 -11.26772 -11.22220
 Alpha  occ. eigenvalues --  -11.22086 -11.21972 -11.21871 -11.21559 -11.21361
 Alpha  occ. eigenvalues --   -1.59833  -1.39386  -1.19381  -1.08987  -1.08769
 Alpha  occ. eigenvalues --   -1.04799  -1.04012  -0.96465  -0.95598  -0.87479
 Alpha  occ. eigenvalues --   -0.86183  -0.82446  -0.80080  -0.78804  -0.77473
 Alpha  occ. eigenvalues --   -0.72031  -0.71156  -0.70480  -0.65684  -0.65030
 Alpha  occ. eigenvalues --   -0.64783  -0.62223  -0.61334  -0.59825  -0.58075
 Alpha  occ. eigenvalues --   -0.55799  -0.55280  -0.53229  -0.53114  -0.52903
 Alpha  occ. eigenvalues --   -0.52751  -0.50399  -0.48794  -0.48784  -0.48376
 Alpha  occ. eigenvalues --   -0.47118  -0.46332  -0.46247  -0.44787  -0.44286
 Alpha  occ. eigenvalues --   -0.37356  -0.36337
 Alpha virt. eigenvalues --    0.05037   0.11225   0.16380   0.19086   0.22825
 Alpha virt. eigenvalues --    0.23855   0.25334   0.26457   0.27697   0.28098
 Alpha virt. eigenvalues --    0.29493   0.30184   0.31244   0.31521   0.32109

 Mulliken charges:
               1
     1  C   -0.172155
     2  C   -0.220943
     3  C   -0.170139
     4  C    0.158369
     5  C   -0.170493
     6  C   -0.218748
     7  H    0.225965
     8  H    0.226489
     9  H    0.277976
    10  H    0.275791
    11  H    0.223587
    12  N    0.488137
    13  O   -0.460556
    14  O   -0.460058
    15  C   -0.298251
    16  C   -0.300275
    17  C   -0.476083
    18  H    0.152622
    19  H    0.148189
    20  H    0.155185
    21  H    0.150912
    22  H    0.154564
    23  H    0.156213
    24  H    0.162384
    25  C   -0.300575
    26  C   -0.300890
    27  C   -0.482834
    28  H    0.156071
    29  H    0.138962
    30  H    0.156278
    31  H    0.148144
    32  H    0.152959
    33  H    0.160930
    34  H    0.162270
 Sum of Mulliken charges =  -0.00000

 Dipole moment (field-independent basis, Debye):
    X=              1.4563    Y=             -4.4965    Z=             -2.0812  Tot=              5.1644
 Quadrupole moment (field-independent basis, Debye-Ang):
   XX=            -98.1332   YY=            -98.0524   ZZ=            -94.2050
   XY=             15.3126   XZ=              7.8439   YZ=              0.6882

 Normal termination of Gaussian 16 at Thu May  6 15:59:59 2021.
