 Gaussian 16, Revision A.03,
 Gaussian 16:  EM64L-G16RevA.03 25-Dec-2016

 -------------
 #p 6-31g* mp2
 -------------

 ------------------------------------------------------
 Input file generated by CHIRIPA (05-May-2021 14:51:11)
 ------------------------------------------------------
 Symbolic Z-matrix:
 Charge =  0 Multiplicity = 1

                         Standard orientation:
 ---------------------------------------------------------------------
 Center     Atomic      Atomic             Coordinates (Angstroms)
 Number     Number       Type             X           Y           Z
 ---------------------------------------------------------------------
      1          6           0        2.890347   -0.176930    0.120264
      2          6           0        4.399872   -0.082133    0.344612
      3          6           0        4.866109    1.345093    0.633479
      4          1           0        2.608334    0.478590   -0.715025
      5          1           0        2.369842    0.207126    1.008504
      6          1           0        4.917373   -0.467538   -0.543235
      7          1           0        4.678352   -0.738101    1.179340
      8          1           0        4.376336    1.736102    1.531162
      9          1           0        4.616715    2.008203   -0.201200
     10          1           0        5.948305    1.389842    0.790670
     11          6           0        2.408998   -1.597486   -0.169653
     12          6           0        0.899472   -1.692283   -0.394001
     13          6           0        0.433236   -3.119509   -0.682868
     14          1           0        2.929503   -1.981542   -1.057893
     15          1           0        2.691011   -2.253006    0.665636
     16          1           0        0.620993   -1.036315   -1.228729
     17          1           0        0.381972   -1.306878    0.493846
     18          1           0        0.682630   -3.782619    0.151811
     19          1           0        0.923009   -3.510518   -1.580551
     20          1           0       -0.648960   -3.164258   -0.840060
     21          6           0       -1.961622    1.186529    0.167611
     22          6           0       -1.611477    2.363833   -0.743067
     23          6           0       -0.231952    2.951912   -0.444959
     24          1           0       -1.920518    1.516311    1.214749
     25          1           0       -1.197012    0.405351    0.055687
     26          1           0       -2.377264    3.141980   -0.630491
     27          1           0       -1.653606    2.031259   -1.788168
     28          1           0        0.546654    2.193502   -0.576060
     29          1           0       -0.181116    3.310534    0.588195
     30          1           0       -0.002039    3.792209   -1.107456
     31          6           0       -3.337723    0.587887   -0.118222
     32          6           0       -3.687867   -0.589418    0.792457
     33          6           0       -5.067393   -1.177496    0.494348
     34          1           0       -4.102334    1.369065   -0.006298
     35          1           0       -3.378827    0.258104   -1.165361
     36          1           0       -3.645738   -0.256844    1.837558
     37          1           0       -2.922080   -1.367565    0.679880
     38          1           0       -5.118229   -1.536118   -0.538806
     39          1           0       -5.845999   -0.419086    0.625450
     40          1           0       -5.297305   -2.017793    1.156844
 ---------------------------------------------------------------------

 SCF Done:  E(RHF) =  -470.732756502     A.U. after   11 cycles
 E2 =    -0.1584415908D+01 EUMP2 =    -0.47231717240938D+03

 The electronic state is 1-A.
 Alpha  occ. eigenvalues --  -11.21703 -11.21638 -11.21575 -11.21511 -11.21476
 Alpha  occ. eigenvalues --  -11.21415 -11.21315 -11.21189 -11.21175 -11.21076
 Alpha  occ. eigenvalues --  -11.21050 -11.20962  -1.08517  -1.08342  -1.03603
 Alpha  occ. eigenvalues --   -1.03464  -0.96049  -0.95904  -0.87071  -0.86916
 Alpha  occ. eigenvalues --   -0.79707  -0.79530  -0.78453  -0.78032  -0.65137
 Alpha  occ. eigenvalues --   -0.64995  -0.60996  -0.60868  -0.59427  -0.59277
 Alpha  occ. eigenvalues --   -0.57723  -0.57472  -0.55332  -0.55192  -0.52744
 Alpha  occ. eigenvalues --   -0.52609  -0.52541  -0.52268  -0.49987  -0.49874
 Alpha  occ. eigenvalues --   -0.48057  -0.47848  -0.46768  -0.46645  -0.46181
 Alpha  occ. eigenvalues --   -0.45766  -0.45678  -0.45028  -0.43845  -0.43705
 Alpha virt. eigenvalues --    0.20706   0.22339   0.23449   0.24400   0.25585
 Alpha virt. eigenvalues --    0.26018   0.27024   0.27340   0.28531   0.29544
 Alpha virt. eigenvalues --    0.31135   0.31271   0.31746   0.31946   0.32260

 Mulliken charges:
               1
     1  C   -0.302420
     2  C   -0.299461
     3  C   -0.475846
     4  H    0.152280
     5  H    0.151202
     6  H    0.151913
     7  H    0.152095
     8  H    0.155622
     9  H    0.155615
    10  H    0.160288
    11  C   -0.297249
    12  C   -0.306217
    13  C   -0.476406
    14  H    0.149640
    15  H    0.150045
    16  H    0.152416
    17  H    0.156895
    18  H    0.155878
    19  H    0.155688
    20  H    0.160641
    21  C   -0.309724
    22  C   -0.298595
    23  C   -0.481093
    24  H    0.147985
    25  H    0.163334
    26  H    0.151356
    27  H    0.150731
    28  H    0.160745
    29  H    0.154674
    30  H    0.159347
    31  C   -0.297239
    32  C   -0.301388
    33  C   -0.475567
    34  H    0.149157
    35  H    0.148919
    36  H    0.151735
    37  H    0.152637
    38  H    0.155009
    39  H    0.155284
    40  H    0.160073
 Sum of Mulliken charges =  -0.00000

 Dipole moment (field-independent basis, Debye):
    X=              0.0820    Y=             -0.0547    Z=              0.0126  Tot=              0.0994
 Quadrupole moment (field-independent basis, Debye-Ang):
   XX=            -85.8500   YY=            -85.6828   ZZ=            -83.3727
   XY=             -1.1989   XZ=             -0.6136   YZ=              0.0360

 Normal termination of Gaussian 16 at Thu May  6 07:00:53 2021.
