 Gaussian 16, Revision A.03,
 Gaussian 16:  EM64L-G16RevA.03 25-Dec-2016

 -------------
 #p 6-31g* mp2
 -------------

 ------------------------------------------------------
 Input file generated by CHIRIPA (05-May-2021 14:57:22)
 ------------------------------------------------------
 Symbolic Z-matrix:
 Charge =  0 Multiplicity = 1

                         Standard orientation:
 ---------------------------------------------------------------------
 Center     Atomic      Atomic             Coordinates (Angstroms)
 Number     Number       Type             X           Y           Z
 ---------------------------------------------------------------------
      1          6           0       -2.113213    1.272453   -0.118813
      2          6           0       -3.289096    2.026730   -0.188715
      3          6           0       -4.537950    1.404912   -0.097863
      4          6           0       -4.574163    0.020711    0.063280
      5          6           0       -3.420368   -0.758202    0.136370
      6          6           0       -2.182480   -0.115160    0.043220
      7          1           0       -1.147332    1.763740   -0.190282
      8          1           0       -3.238336    3.104524   -0.314525
      9          1           0       -5.463956    1.964664   -0.148938
     10          1           0       -3.502934   -1.830956    0.262072
     11          1           0       -1.270917   -0.703476    0.097825
     12          7           0       -5.890464   -0.648815    0.160677
     13          8           0       -5.895381   -1.869686    0.302401
     14          8           0       -6.892340    0.059960    0.093448
     15          6           0        6.769267    0.121456    0.648609
     16          6           0        5.755788    0.152921    1.612140
     17          6           0        4.415897    0.014013    1.238047
     18          6           0        4.124033   -0.155469   -0.114498
     19          6           0        5.111287   -0.191042   -1.098039
     20          6           0        6.444356   -0.050122   -0.701026
     21          1           0        7.807477    0.230146    0.948116
     22          1           0        6.005173    0.286036    2.661012
     23          1           0        3.611443    0.034645    1.963199
     24          1           0        4.831646   -0.325166   -2.135935
     25          1           0        7.229356   -0.074949   -1.451493
     26          7           0        2.709162   -0.303590   -0.522666
     27          8           0        2.478237   -0.451698   -1.720737
     28          8           0        1.857901   -0.268774    0.363213
 ---------------------------------------------------------------------

 SCF Done:  E(RHF) =  -868.340952036     A.U. after   16 cycles
 E2 =    -0.2598163378D+01 EUMP2 =    -0.87093911541336D+03

 The electronic state is 1-A.
 Alpha  occ. eigenvalues --  -20.61969 -20.61951 -20.59914 -20.59905 -15.86965
 Alpha  occ. eigenvalues --  -15.84954 -11.32001 -11.30093 -11.28532 -11.28516
 Alpha  occ. eigenvalues --  -11.28202 -11.27464 -11.27452 -11.26671 -11.26546
 Alpha  occ. eigenvalues --  -11.26186 -11.25641 -11.25319  -1.61017  -1.58992
 Alpha  occ. eigenvalues --   -1.40576  -1.38553  -1.20140  -1.18211  -1.09597
 Alpha  occ. eigenvalues --   -1.07622  -1.05490  -1.03567  -0.96487  -0.94509
 Alpha  occ. eigenvalues --   -0.86903  -0.84949  -0.83329  -0.81349  -0.78412
 Alpha  occ. eigenvalues --   -0.76446  -0.73201  -0.72310  -0.71239  -0.71178
 Alpha  occ. eigenvalues --   -0.70313  -0.69269  -0.65794  -0.65487  -0.63840
 Alpha  occ. eigenvalues --   -0.63506  -0.62839  -0.60904  -0.56000  -0.53997
 Alpha  occ. eigenvalues --   -0.53838  -0.53575  -0.51929  -0.51625  -0.49966
 Alpha  occ. eigenvalues --   -0.49923  -0.47948  -0.47907  -0.46050  -0.44010
 Alpha  occ. eigenvalues --   -0.38099  -0.37078  -0.36154  -0.35180
 Alpha virt. eigenvalues --    0.04090   0.06053   0.10582   0.12485   0.15656
 Alpha virt. eigenvalues --    0.17633   0.20762   0.22768   0.26702   0.27613
 Alpha virt. eigenvalues --    0.28696   0.29535   0.30392   0.31835   0.32429

 Mulliken charges:
               1
     1  C   -0.172202
     2  C   -0.219414
     3  C   -0.173446
     4  C    0.157970
     5  C   -0.173733
     6  C   -0.224092
     7  H    0.231371
     8  H    0.218648
     9  H    0.271297
    10  H    0.272840
    11  H    0.245553
    12  N    0.488189
    13  O   -0.462677
    14  O   -0.463967
    15  C   -0.169542
    16  C   -0.218535
    17  C   -0.170770
    18  C    0.157120
    19  C   -0.170283
    20  C   -0.218581
    21  H    0.228417
    22  H    0.225839
    23  H    0.275379
    24  H    0.276772
    25  H    0.226026
    26  N    0.489720
    27  O   -0.456950
    28  O   -0.470948
 Sum of Mulliken charges =  -0.00000

 Dipole moment (field-independent basis, Debye):
    X=             10.3755    Y=              2.8246    Z=              1.0601  Tot=             10.8053
 Quadrupole moment (field-independent basis, Debye-Ang):
   XX=           -106.0594   YY=           -102.2110   ZZ=           -101.3188
   XY=            -11.5490   XZ=              6.0545   YZ=             -0.1135

 Normal termination of Gaussian 16 at Thu May  6 22:41:09 2021.
