 Gaussian 16, Revision A.03,
 Gaussian 16:  EM64L-G16RevA.03 25-Dec-2016

 -------------
 #p 6-31g* mp2
 -------------

 ------------------------------------------------------
 Input file generated by CHIRIPA (05-May-2021 14:53:12)
 ------------------------------------------------------
 Symbolic Z-matrix:
 Charge =  0 Multiplicity = 1

                         Standard orientation:
 ---------------------------------------------------------------------
 Center     Atomic      Atomic             Coordinates (Angstroms)
 Number     Number       Type             X           Y           Z
 ---------------------------------------------------------------------
      1          6           0        2.702904    1.022249    0.208005
      2          6           0        2.144354    1.795542   -0.986996
      3          6           0        1.789913    3.242211   -0.641579
      4          1           0        1.965876    1.036212    1.022585
      5          1           0        3.595885    1.539395    0.585548
      6          1           0        1.253492    1.276336   -1.363035
      7          1           0        2.882718    1.779574   -1.798894
      8          1           0        2.674295    3.781365   -0.286920
      9          1           0        1.035812    3.275268    0.151416
     10          1           0        1.392503    3.776539   -1.510152
     11          6           0        3.061946   -0.425580   -0.121554
     12          6           0        3.620495   -1.198873    1.073446
     13          6           0        3.974936   -2.645542    0.728029
     14          1           0        2.168964   -0.942726   -0.499098
     15          1           0        3.798973   -0.439543   -0.936134
     16          1           0        2.882131   -1.182904    1.885345
     17          1           0        4.511357   -0.679666    1.449485
     18          1           0        4.729037   -2.678598   -0.064966
     19          1           0        3.090554   -3.184696    0.373371
     20          1           0        4.372346   -3.179870    1.596602
     21          6           0       -2.426489    2.066880    0.988803
     22          6           0       -3.084281    0.984857    1.582990
     23          6           0       -2.994539   -0.293911    1.025097
     24          6           0       -2.235015   -0.455425   -0.132628
     25          6           0       -1.568079    0.602738   -0.748078
     26          6           0       -1.671817    1.872709   -0.172786
     27          1           0       -2.501638    3.056841    1.428946
     28          1           0       -3.671074    1.132699    2.485133
     29          1           0       -3.493580   -1.149121    1.464407
     30          1           0       -0.990567    0.424230   -1.646985
     31          1           0       -1.159898    2.711182   -0.636409
     32          7           0       -2.132601   -1.804544   -0.732454
     33          8           0       -1.457184   -1.920554   -1.752744
     34          8           0       -2.729685   -2.720426   -0.170951
 ---------------------------------------------------------------------

 SCF Done:  E(RHF) =  -669.534529471     A.U. after   15 cycles
 E2 =    -0.2093749531D+01 EUMP2 =    -0.67162827900201D+03

 The electronic state is 1-A.
 Alpha  occ. eigenvalues --  -20.60842 -20.60836 -15.85890 -11.31249 -11.27809
 Alpha  occ. eigenvalues --  -11.27795 -11.27540 -11.26827 -11.26758 -11.22155
 Alpha  occ. eigenvalues --  -11.21872 -11.21641 -11.21528 -11.21353 -11.20838
 Alpha  occ. eigenvalues --   -1.59915  -1.39468  -1.19420  -1.08816  -1.08632
 Alpha  occ. eigenvalues --   -1.04831  -1.03772  -0.96232  -0.95651  -0.87263
 Alpha  occ. eigenvalues --   -0.86206  -0.82484  -0.79881  -0.78376  -0.77538
 Alpha  occ. eigenvalues --   -0.72107  -0.71238  -0.70536  -0.65364  -0.65046
 Alpha  occ. eigenvalues --   -0.64822  -0.62330  -0.61008  -0.59644  -0.57810
 Alpha  occ. eigenvalues --   -0.55593  -0.55243  -0.53143  -0.52993  -0.52877
 Alpha  occ. eigenvalues --   -0.52630  -0.50128  -0.48866  -0.48859  -0.48165
 Alpha  occ. eigenvalues --   -0.46895  -0.45925  -0.45803  -0.44867  -0.43999
 Alpha  occ. eigenvalues --   -0.37392  -0.36379
 Alpha virt. eigenvalues --    0.04962   0.11106   0.16383   0.20206   0.23119
 Alpha virt. eigenvalues --    0.24172   0.25284   0.26552   0.26995   0.28600
 Alpha virt. eigenvalues --    0.29302   0.30835   0.31317   0.31684   0.31742

 Mulliken charges:
               1
     1  C   -0.298701
     2  C   -0.301341
     3  C   -0.482721
     4  H    0.150509
     5  H    0.149832
     6  H    0.147187
     7  H    0.156598
     8  H    0.161225
     9  H    0.150638
    10  H    0.156644
    11  C   -0.301211
    12  C   -0.299728
    13  C   -0.476884
    14  H    0.156630
    15  H    0.150344
    16  H    0.151470
    17  H    0.150277
    18  H    0.155016
    19  H    0.161296
    20  H    0.159682
    21  C   -0.173220
    22  C   -0.218121
    23  C   -0.171269
    24  C    0.158229
    25  C   -0.175189
    26  C   -0.219197
    27  H    0.226184
    28  H    0.223695
    29  H    0.275711
    30  H    0.277203
    31  H    0.231869
    32  N    0.488027
    33  O   -0.460709
    34  O   -0.459974
 Sum of Mulliken charges =  -0.00000

 Dipole moment (field-independent basis, Debye):
    X=             -0.3137    Y=              4.6574    Z=              2.1304  Tot=              5.1311
 Quadrupole moment (field-independent basis, Debye-Ang):
   XX=            -90.9095   YY=           -100.0750   ZZ=            -93.0919
   XY=             -8.8559   XZ=             -7.5485   YZ=             -3.1710

 Normal termination of Gaussian 16 at Wed May  5 21:43:31 2021.
