 Gaussian 16, Revision A.03,
 Gaussian 16:  EM64L-G16RevA.03 25-Dec-2016

 -------------
 #p 6-31g* mp2
 -------------

 ------------------------------------------------------
 Input file generated by CHIRIPA (05-May-2021 14:53:13)
 ------------------------------------------------------
 Symbolic Z-matrix:
 Charge =  0 Multiplicity = 1

                         Standard orientation:
 ---------------------------------------------------------------------
 Center     Atomic      Atomic             Coordinates (Angstroms)
 Number     Number       Type             X           Y           Z
 ---------------------------------------------------------------------
      1          6           0       -4.409565   -0.259639   -0.418727
      2          6           0       -5.864901   -0.510061   -0.022152
      3          6           0       -6.404669   -1.835396   -0.560605
      4          1           0       -4.327233   -0.272767   -1.514169
      5          1           0       -3.788406   -1.087045   -0.048653
      6          1           0       -6.482923    0.318264   -0.391668
      7          1           0       -5.943813   -0.496145    1.072469
      8          1           0       -5.812799   -2.674844   -0.181637
      9          1           0       -6.354973   -1.855808   -1.654093
     10          1           0       -7.446517   -1.994204   -0.265321
     11          6           0       -3.855719    1.061401    0.112154
     12          6           0       -2.400383    1.311823   -0.284422
     13          6           0       -1.860615    2.637157    0.254032
     14          1           0       -4.476878    1.888807   -0.257920
     15          1           0       -3.938051    1.074528    1.207596
     16          1           0       -2.321471    1.297907   -1.379043
     17          1           0       -1.782361    0.483498    0.085095
     18          1           0       -1.910311    2.657569    1.347520
     19          1           0       -2.452485    3.476605   -0.124937
     20          1           0       -0.818767    2.795966   -0.041252
     21          6           0        0.948653   -0.867828    1.047126
     22          6           0        1.321289    0.466917    0.857072
     23          6           0        2.582013    0.785935    0.343895
     24          6           0        3.449046   -0.259568    0.030101
     25          6           0        3.106998   -1.599199    0.208094
     26          6           0        1.841123   -1.894816    0.722603
     27          1           0       -0.032708   -1.106560    1.446291
     28          1           0        0.630234    1.266549    1.108219
     29          1           0        2.896278    1.810609    0.186736
     30          1           0        3.817470   -2.374589   -0.051554
     31          1           0        1.554431   -2.932300    0.869151
     32          7           0        4.786445    0.065777   -0.513882
     33          8           0        5.532070   -0.873654   -0.782490
     34          8           0        5.063747    1.254050   -0.661346
 ---------------------------------------------------------------------

 SCF Done:  E(RHF) =  -669.534916514     A.U. after   15 cycles
 E2 =    -0.2092348900D+01 EUMP2 =    -0.67162726541394D+03

 The electronic state is 1-A.
 Alpha  occ. eigenvalues --  -20.60742 -20.60737 -15.85794 -11.31162 -11.27726
 Alpha  occ. eigenvalues --  -11.27709 -11.27463 -11.26748 -11.26669 -11.22621
 Alpha  occ. eigenvalues --  -11.22247 -11.22230 -11.22205 -11.22127 -11.21618
 Alpha  occ. eigenvalues --   -1.59817  -1.39371  -1.19329  -1.09266  -1.08724
 Alpha  occ. eigenvalues --   -1.04738  -1.04364  -0.96828  -0.95563  -0.87844
 Alpha  occ. eigenvalues --   -0.86127  -0.82394  -0.80432  -0.79044  -0.77442
 Alpha  occ. eigenvalues --   -0.72014  -0.71140  -0.70455  -0.65943  -0.64978
 Alpha  occ. eigenvalues --   -0.64769  -0.62221  -0.61666  -0.60156  -0.58404
 Alpha  occ. eigenvalues --   -0.56111  -0.55249  -0.53580  -0.53278  -0.53054
 Alpha  occ. eigenvalues --   -0.52670  -0.50753  -0.48782  -0.48768  -0.48725
 Alpha  occ. eigenvalues --   -0.47473  -0.46586  -0.46505  -0.44776  -0.44616
 Alpha  occ. eigenvalues --   -0.37294  -0.36319
 Alpha virt. eigenvalues --    0.05066   0.11230   0.16492   0.19544   0.22607
 Alpha virt. eigenvalues --    0.23844   0.24945   0.26079   0.26608   0.28337
 Alpha virt. eigenvalues --    0.29132   0.30454   0.30820   0.31335   0.32298

 Mulliken charges:
               1
     1  C   -0.297680
     2  C   -0.300236
     3  C   -0.475974
     4  H    0.152518
     5  H    0.145160
     6  H    0.153955
     7  H    0.151903
     8  H    0.154306
     9  H    0.156654
    10  H    0.162255
    11  C   -0.298988
    12  C   -0.302377
    13  C   -0.483337
    14  H    0.153231
    15  H    0.148695
    16  H    0.158564
    17  H    0.145317
    18  H    0.153239
    19  H    0.164051
    20  H    0.157480
    21  C   -0.173205
    22  C   -0.221719
    23  C   -0.173799
    24  C    0.158878
    25  C   -0.171233
    26  C   -0.218691
    27  H    0.225180
    28  H    0.234612
    29  H    0.275419
    30  H    0.275484
    31  H    0.223222
    32  N    0.488071
    33  O   -0.460532
    34  O   -0.460424
 Sum of Mulliken charges =  -0.00000

 Dipole moment (field-independent basis, Debye):
    X=             -4.9149    Y=             -1.0964    Z=              1.8347  Tot=              5.3595
 Quadrupole moment (field-independent basis, Debye-Ang):
   XX=           -127.1249   YY=            -89.8410   ZZ=            -94.8322
   XY=             -4.7858   XZ=              6.7903   YZ=             -1.0358

 Normal termination of Gaussian 16 at Thu May  6 18:44:06 2021.
