 Gaussian 16, Revision A.03,
 Gaussian 16:  EM64L-G16RevA.03 25-Dec-2016

 -------------
 #p 6-31g* mp2
 -------------

 ------------------------------------------------------
 Input file generated by CHIRIPA (05-May-2021 14:57:25)
 ------------------------------------------------------
 Symbolic Z-matrix:
 Charge =  0 Multiplicity = 1

                         Standard orientation:
 ---------------------------------------------------------------------
 Center     Atomic      Atomic             Coordinates (Angstroms)
 Number     Number       Type             X           Y           Z
 ---------------------------------------------------------------------
      1          6           0        2.298846    0.385885    1.696605
      2          6           0        3.545991    0.002086    2.200437
      3          6           0        4.616327   -0.243386    1.335179
      4          6           0        4.403296   -0.094825   -0.034434
      5          6           0        3.172645    0.286186   -0.566992
      6          6           0        2.116475    0.526463    0.316931
      7          1           0        1.472885    0.574556    2.376007
      8          1           0        3.690521   -0.107874    3.271448
      9          1           0        5.592336   -0.541725    1.698248
     10          1           0        3.059104    0.387516   -1.639493
     11          1           0        1.149026    0.824399   -0.077180
     12          7           0        5.528915   -0.351946   -0.960323
     13          8           0        5.315456   -0.214069   -2.162847
     14          8           0        6.603320   -0.686484   -0.465980
     15          6           0       -5.704104   -1.984887   -0.040509
     16          6           0       -6.266969   -0.713019   -0.189030
     17          6           0       -5.453083    0.422840   -0.233316
     18          6           0       -4.074089    0.249411   -0.125672
     19          6           0       -3.483299   -1.004427    0.023154
     20          6           0       -4.316512   -2.126282    0.064923
     21          1           0       -6.343857   -2.861810   -0.007084
     22          1           0       -7.344267   -0.600200   -0.271151
     23          1           0       -5.862367    1.419261   -0.347546
     24          1           0       -2.405985   -1.085165    0.102482
     25          1           0       -3.876609   -3.112795    0.180345
     26          7           0       -3.202233    1.444481   -0.171223
     27          8           0       -1.990216    1.264905   -0.074249
     28          8           0       -3.747399    2.538125   -0.303037
 ---------------------------------------------------------------------

 SCF Done:  E(RHF) =  -868.339835763     A.U. after   16 cycles
 E2 =    -0.2598253912D+01 EUMP2 =    -0.87093808967475D+03

 The electronic state is 1-A.
 Alpha  occ. eigenvalues --  -20.61727 -20.61658 -20.60300 -20.60292 -15.86745
 Alpha  occ. eigenvalues --  -15.85344 -11.31877 -11.30585 -11.28443 -11.28392
 Alpha  occ. eigenvalues --  -11.28098 -11.27379 -11.27356 -11.27158 -11.27060
 Alpha  occ. eigenvalues --  -11.26778 -11.26163 -11.25910  -1.60756  -1.59377
 Alpha  occ. eigenvalues --   -1.40322  -1.38933  -1.20023  -1.18722  -1.09455
 Alpha  occ. eigenvalues --   -1.08131  -1.05393  -1.04089  -0.96332  -0.94996
 Alpha  occ. eigenvalues --   -0.86801  -0.85480  -0.83179  -0.81822  -0.78255
 Alpha  occ. eigenvalues --   -0.76893  -0.72980  -0.72063  -0.71564  -0.71127
 Alpha  occ. eigenvalues --   -0.70699  -0.69815  -0.65682  -0.65389  -0.64359
 Alpha  occ. eigenvalues --   -0.64036  -0.62747  -0.61416  -0.55890  -0.54569
 Alpha  occ. eigenvalues --   -0.53732  -0.53480  -0.52453  -0.52138  -0.49737
 Alpha  occ. eigenvalues --   -0.49682  -0.48329  -0.48307  -0.45778  -0.44367
 Alpha  occ. eigenvalues --   -0.37982  -0.36986  -0.36699  -0.35702
 Alpha virt. eigenvalues --    0.04273   0.05605   0.10672   0.11951   0.15819
 Alpha virt. eigenvalues --    0.17145   0.20725   0.22177   0.26642   0.27213
 Alpha virt. eigenvalues --    0.28437   0.28993   0.30424   0.31470   0.32222

 Mulliken charges:
               1
     1  C   -0.173634
     2  C   -0.218936
     3  C   -0.172907
     4  C    0.158364
     5  C   -0.173420
     6  C   -0.228247
     7  H    0.227781
     8  H    0.220552
     9  H    0.273045
    10  H    0.275073
    11  H    0.246534
    12  N    0.488061
    13  O   -0.461367
    14  O   -0.462592
    15  C   -0.169969
    16  C   -0.218354
    17  C   -0.170379
    18  C    0.157999
    19  C   -0.170744
    20  C   -0.218282
    21  H    0.228091
    22  H    0.225760
    23  H    0.276898
    24  H    0.271886
    25  H    0.225438
    26  N    0.494057
    27  O   -0.475807
    28  O   -0.454901
 Sum of Mulliken charges =  -0.00000

 Dipole moment (field-independent basis, Debye):
    X=             -7.5596    Y=             -3.2737    Z=              3.3868  Tot=              8.9070
 Quadrupole moment (field-independent basis, Debye-Ang):
   XX=           -110.1234   YY=           -106.0643   ZZ=           -103.2903
   XY=             17.8707   XZ=             17.3728   YZ=             -1.0969

 Normal termination of Gaussian 16 at Fri May  7 05:01:00 2021.
