 Gaussian 16, Revision A.03,
 Gaussian 16:  EM64L-G16RevA.03 25-Dec-2016

 -------------
 #p 6-31g* mp2
 -------------

 ------------------------------------------------------
 Input file generated by CHIRIPA (05-May-2021 14:53:17)
 ------------------------------------------------------
 Symbolic Z-matrix:
 Charge =  0 Multiplicity = 1

                         Standard orientation:
 ---------------------------------------------------------------------
 Center     Atomic      Atomic             Coordinates (Angstroms)
 Number     Number       Type             X           Y           Z
 ---------------------------------------------------------------------
      1          6           0       -3.647640    0.916524   -0.235147
      2          6           0       -2.934339    1.816027    0.774844
      3          6           0       -2.070809    2.886381    0.106674
      4          1           0       -2.899869    0.435999   -0.880809
      5          1           0       -4.273763    1.537563   -0.890643
      6          1           0       -2.310819    1.193328    1.429126
      7          1           0       -3.683884    2.294317    1.418301
      8          1           0       -2.682695    3.531736   -0.531851
      9          1           0       -1.301829    2.424492   -0.520964
     10          1           0       -1.570115    3.518086    0.847021
     11          6           0       -4.514806   -0.158517    0.417570
     12          6           0       -5.228107   -1.058021   -0.592421
     13          6           0       -6.091637   -2.128375    0.075749
     14          1           0       -3.888683   -0.779557    1.073066
     15          1           0       -5.262577    0.322007    1.063232
     16          1           0       -4.478563   -1.536311   -1.235878
     17          1           0       -5.851627   -0.435322   -1.246703
     18          1           0       -6.860617   -1.666486    0.703387
     19          1           0       -5.479751   -2.773730    0.714274
     20          1           0       -6.592331   -2.760080   -0.664598
     21          6           0        5.687472   -0.065042    0.188459
     22          6           0        4.919178    1.037380   -0.200015
     23          6           0        3.533767    0.920915   -0.347057
     24          6           0        2.946859   -0.318434   -0.096368
     25          6           0        3.685193   -1.435253    0.292051
     26          6           0        5.069118   -1.295670    0.432822
     27          1           0        6.763115    0.034410    0.300248
     28          1           0        5.396702    1.994326   -0.390459
     29          1           0        2.915034    1.758093   -0.646590
     30          1           0        3.180740   -2.376278    0.474854
     31          1           0        5.663275   -2.153531    0.734643
     32          7           0        1.480974   -0.453967   -0.248714
     33          8           0        0.987913   -1.556730   -0.021912
     34          8           0        0.852831    0.545133   -0.592040
 ---------------------------------------------------------------------

 SCF Done:  E(RHF) =  -669.536389996     A.U. after   15 cycles
 E2 =    -0.2090888536D+01 EUMP2 =    -0.67162727853183D+03

 The electronic state is 1-A.
 Alpha  occ. eigenvalues --  -20.61015 -20.61005 -15.86049 -11.31333 -11.27893
 Alpha  occ. eigenvalues --  -11.27888 -11.27626 -11.26893 -11.26883 -11.20604
 Alpha  occ. eigenvalues --  -11.20244 -11.20235 -11.20227 -11.19993 -11.19580
 Alpha  occ. eigenvalues --   -1.60074  -1.39630  -1.19499  -1.08910  -1.07200
 Alpha  occ. eigenvalues --   -1.04890  -1.02333  -0.95759  -0.94789  -0.86292
 Alpha  occ. eigenvalues --   -0.85815  -0.82594  -0.78429  -0.77648  -0.77000
 Alpha  occ. eigenvalues --   -0.72280  -0.71386  -0.70608  -0.65157  -0.64893
 Alpha  occ. eigenvalues --   -0.63807  -0.62237  -0.59703  -0.58196  -0.56411
 Alpha  occ. eigenvalues --   -0.55396  -0.54046  -0.53223  -0.52981  -0.51532
 Alpha  occ. eigenvalues --   -0.51225  -0.49056  -0.49028  -0.48669  -0.46742
 Alpha  occ. eigenvalues --   -0.45438  -0.45042  -0.44552  -0.44415  -0.42595
 Alpha  occ. eigenvalues --   -0.37477  -0.36490
 Alpha virt. eigenvalues --    0.04878   0.11166   0.16379   0.21281   0.24094
 Alpha virt. eigenvalues --    0.25486   0.27220   0.27789   0.28182   0.28739
 Alpha virt. eigenvalues --    0.29201   0.30861   0.32219   0.32706   0.32859

 Mulliken charges:
               1
     1  C   -0.300742
     2  C   -0.295573
     3  C   -0.484294
     4  H    0.163295
     5  H    0.143374
     6  H    0.155610
     7  H    0.143930
     8  H    0.146682
     9  H    0.179558
    10  H    0.151148
    11  C   -0.297969
    12  C   -0.299393
    13  C   -0.475176
    14  H    0.152446
    15  H    0.144739
    16  H    0.155071
    17  H    0.148828
    18  H    0.152611
    19  H    0.155429
    20  H    0.157298
    21  C   -0.170496
    22  C   -0.218572
    23  C   -0.170587
    24  C    0.157378
    25  C   -0.170507
    26  C   -0.218614
    27  H    0.226151
    28  H    0.224062
    29  H    0.276078
    30  H    0.275836
    31  H    0.223926
    32  N    0.494209
    33  O   -0.459549
    34  O   -0.466188
 Sum of Mulliken charges =  -0.00000

 Dipole moment (field-independent basis, Debye):
    X=              5.5545    Y=              0.3423    Z=              0.4609  Tot=              5.5841
 Quadrupole moment (field-independent basis, Debye-Ang):
   XX=            -66.0948   YY=            -91.4642   ZZ=            -95.6044
   XY=             -1.2095   XZ=              1.6588   YZ=             -1.6283

 Normal termination of Gaussian 16 at Thu May  6 01:12:58 2021.
