 Gaussian 16, Revision A.03,
 Gaussian 16:  EM64L-G16RevA.03 25-Dec-2016

 -------------
 #p 6-31g* mp2
 -------------

 ------------------------------------------------------
 Input file generated by CHIRIPA (05-May-2021 14:51:10)
 ------------------------------------------------------
 Symbolic Z-matrix:
 Charge =  0 Multiplicity = 1

                         Standard orientation:
 ---------------------------------------------------------------------
 Center     Atomic      Atomic             Coordinates (Angstroms)
 Number     Number       Type             X           Y           Z
 ---------------------------------------------------------------------
      1          6           0       -4.016197   -0.177981   -0.481359
      2          6           0       -3.856901   -1.625487   -0.015169
      3          6           0       -5.008707   -2.522836   -0.468933
      4          1           0       -4.966005    0.221017   -0.099771
      5          1           0       -4.087109   -0.158896   -1.577718
      6          1           0       -3.784921   -1.641710    1.079899
      7          1           0       -2.907271   -2.021024   -0.397752
      8          1           0       -5.079138   -2.536409   -1.561387
      9          1           0       -5.961775   -2.154939   -0.075341
     10          1           0       -4.874564   -3.553094   -0.124790
     11          6           0       -2.872531    0.731406   -0.035520
     12          6           0       -3.031828    2.178913   -0.501711
     13          6           0       -1.880022    3.076262   -0.047946
     14          1           0       -2.801620    0.712322    1.060839
     15          1           0       -1.922723    0.332408   -0.417109
     16          1           0       -3.981457    2.574450   -0.119128
     17          1           0       -3.103807    2.195135   -1.596778
     18          1           0       -0.926954    2.708365   -0.441538
     19          1           0       -1.809591    3.089835    1.044508
     20          1           0       -2.014165    4.106520   -0.392089
     21          6           0        4.205904   -0.232201    0.297270
     22          6           0        4.891583   -0.372011   -1.062245
     23          6           0        6.414946   -0.280857   -0.968172
     24          1           0        4.490062    0.729018    0.747000
     25          1           0        4.580099   -1.015341    0.971113
     26          1           0        4.515184    0.410306   -1.733751
     27          1           0        4.605607   -1.332925   -1.508876
     28          1           0        6.808811   -1.070316   -0.319925
     29          1           0        6.717874    0.682819   -0.546077
     30          1           0        6.884738   -0.383318   -1.951359
     31          6           0        2.682824   -0.321224    0.219609
     32          6           0        1.997146   -0.181415    1.579125
     33          6           0        0.473782   -0.272569    1.485051
     34          1           0        2.308629    0.461916   -0.454234
     35          1           0        2.398666   -1.282444   -0.230120
     36          1           0        2.283121    0.779499    2.025755
     37          1           0        2.373545   -0.963732    2.250630
     38          1           0        0.170855   -1.236245    1.062957
     39          1           0        0.079917    0.516890    0.836804
     40          1           0        0.003989   -0.170107    2.468238
 ---------------------------------------------------------------------

 SCF Done:  E(RHF) =  -470.732476030     A.U. after   11 cycles
 E2 =    -0.1583503497D+01 EUMP2 =    -0.47231597952716D+03

 The electronic state is 1-A.
 Alpha  occ. eigenvalues --  -11.21596 -11.21578 -11.21555 -11.21533 -11.21392
 Alpha  occ. eigenvalues --  -11.21333 -11.21328 -11.21243 -11.21105 -11.21066
 Alpha  occ. eigenvalues --  -11.21039 -11.20931  -1.08420  -1.08371  -1.03530
 Alpha  occ. eigenvalues --   -1.03472  -0.95976  -0.95923  -0.87013  -0.86929
 Alpha  occ. eigenvalues --   -0.79671  -0.79492  -0.78305  -0.78083  -0.65061
 Alpha  occ. eigenvalues --   -0.64999  -0.60966  -0.60846  -0.59335  -0.59310
 Alpha  occ. eigenvalues --   -0.57611  -0.57519  -0.55246  -0.55232  -0.52715
 Alpha  occ. eigenvalues --   -0.52622  -0.52476  -0.52269  -0.49927  -0.49896
 Alpha  occ. eigenvalues --   -0.48072  -0.47762  -0.46686  -0.46525  -0.45948
 Alpha  occ. eigenvalues --   -0.45706  -0.45663  -0.45276  -0.43757  -0.43731
 Alpha virt. eigenvalues --    0.21516   0.23030   0.23507   0.24751   0.26025
 Alpha virt. eigenvalues --    0.26160   0.26732   0.27573   0.27896   0.29886
 Alpha virt. eigenvalues --    0.30324   0.31224   0.31664   0.32041   0.32189

 Mulliken charges:
               1
     1  C   -0.297922
     2  C   -0.299649
     3  C   -0.475668
     4  H    0.149121
     5  H    0.148962
     6  H    0.152160
     7  H    0.151945
     8  H    0.155025
     9  H    0.155099
    10  H    0.160031
    11  C   -0.301783
    12  C   -0.299586
    13  C   -0.477289
    14  H    0.151169
    15  H    0.154569
    16  H    0.151729
    17  H    0.151516
    18  H    0.154678
    19  H    0.156051
    20  H    0.160473
    21  C   -0.298173
    22  C   -0.299628
    23  C   -0.475694
    24  H    0.149756
    25  H    0.149601
    26  H    0.151795
    27  H    0.151808
    28  H    0.155189
    29  H    0.155223
    30  H    0.160189
    31  C   -0.298111
    32  C   -0.300242
    33  C   -0.479975
    34  H    0.148428
    35  H    0.149269
    36  H    0.151745
    37  H    0.151317
    38  H    0.154376
    39  H    0.163430
    40  H    0.159064
 Sum of Mulliken charges =  -0.00000

 Dipole moment (field-independent basis, Debye):
    X=             -0.0188    Y=              0.0122    Z=              0.0074  Tot=              0.0236
 Quadrupole moment (field-independent basis, Debye-Ang):
   XX=            -86.4976   YY=            -84.3475   ZZ=            -84.1410
   XY=             -0.8176   XZ=             -0.5904   YZ=             -0.1028

 Normal termination of Gaussian 16 at Thu May  6 02:14:01 2021.
