 Gaussian 16, Revision A.03,
 Gaussian 16:  EM64L-G16RevA.03 25-Dec-2016

 -------------
 #p 6-31g* mp2
 -------------

 ------------------------------------------------------
 Input file generated by CHIRIPA (05-May-2021 14:55:23)
 ------------------------------------------------------
 Symbolic Z-matrix:
 Charge =  0 Multiplicity = 1

                         Standard orientation:
 ---------------------------------------------------------------------
 Center     Atomic      Atomic             Coordinates (Angstroms)
 Number     Number       Type             X           Y           Z
 ---------------------------------------------------------------------
      1          6           0        1.341609    2.798188    0.704137
      2          6           0        1.677314    2.583074   -0.636590
      3          6           0        2.175373    1.345237   -1.054016
      4          6           0        2.325694    0.340215   -0.099750
      5          6           0        2.000154    0.523761    1.243241
      6          6           0        1.503814    1.769658    1.638127
      7          1           0        0.955372    3.762900    1.019649
      8          1           0        1.552387    3.380019   -1.364131
      9          1           0        2.443146    1.151546   -2.085617
     10          1           0        2.135689   -0.289900    1.945384
     11          1           0        1.243927    1.933872    2.680018
     12          7           0        2.852056   -0.974495   -0.529729
     13          8           0        2.975201   -1.843688    0.330488
     14          8           0        3.131508   -1.110875   -1.718823
     15          6           0       -3.303169   -0.326085   -0.455585
     16          6           0       -4.462778    0.412498    0.213585
     17          6           0       -5.328580    1.181533   -0.784795
     18          1           0       -2.681793    0.397507   -1.000794
     19          1           0       -3.704602   -1.021267   -1.205898
     20          1           0       -4.059353    1.105078    0.963384
     21          1           0       -5.081357   -0.312909    0.757423
     22          1           0       -5.758396    0.500599   -1.526542
     23          1           0       -4.730585    1.926643   -1.319411
     24          1           0       -6.151488    1.702050   -0.285051
     25          6           0       -2.428524   -1.099565    0.529529
     26          6           0       -1.268916   -1.838148   -0.139643
     27          6           0       -0.403114   -2.607183    0.858739
     28          1           0       -2.027092   -0.404383    1.279841
     29          1           0       -3.049900   -1.823156    1.074737
     30          1           0       -0.650336   -1.112741   -0.683481
     31          1           0       -1.672340   -2.530728   -0.889442
     32          1           0       -1.001108   -3.352293    1.393354
     33          1           0        0.026702   -1.926249    1.600486
     34          1           0        0.419795   -3.127700    0.358993
 ---------------------------------------------------------------------

 SCF Done:  E(RHF) =  -669.535514299     A.U. after   15 cycles
 E2 =    -0.2093625906D+01 EUMP2 =    -0.67162914020463D+03

 The electronic state is 1-A.
 Alpha  occ. eigenvalues --  -20.60900 -20.60875 -15.85918 -11.31296 -11.27862
 Alpha  occ. eigenvalues --  -11.27855 -11.27599 -11.26876 -11.26865 -11.21702
 Alpha  occ. eigenvalues --  -11.21378 -11.21304 -11.21243 -11.21211 -11.20436
 Alpha  occ. eigenvalues --   -1.59952  -1.39506  -1.19468  -1.08859  -1.08348
 Alpha  occ. eigenvalues --   -1.04869  -1.03391  -0.95837  -0.95679  -0.86837
 Alpha  occ. eigenvalues --   -0.86261  -0.82525  -0.79470  -0.78161  -0.77567
 Alpha  occ. eigenvalues --   -0.72147  -0.71287  -0.70571  -0.65122  -0.64998
 Alpha  occ. eigenvalues --   -0.64861  -0.62226  -0.60804  -0.59190  -0.57415
 Alpha  occ. eigenvalues --   -0.55390  -0.55124  -0.53186  -0.52961  -0.52456
 Alpha  occ. eigenvalues --   -0.52236  -0.49809  -0.48908  -0.48894  -0.47772
 Alpha  occ. eigenvalues --   -0.46547  -0.45691  -0.45647  -0.44872  -0.43554
 Alpha  occ. eigenvalues --   -0.37423  -0.36454
 Alpha virt. eigenvalues --    0.04924   0.11115   0.16401   0.21127   0.22825
 Alpha virt. eigenvalues --    0.24224   0.26278   0.26873   0.27575   0.27701
 Alpha virt. eigenvalues --    0.28833   0.30624   0.31435   0.31586   0.32303

 Mulliken charges:
               1
     1  C   -0.170698
     2  C   -0.218398
     3  C   -0.172151
     4  C    0.160403
     5  C   -0.170665
     6  C   -0.219472
     7  H    0.226094
     8  H    0.223938
     9  H    0.276168
    10  H    0.276958
    11  H    0.224058
    12  N    0.488223
    13  O   -0.457976
    14  O   -0.459774
    15  C   -0.297807
    16  C   -0.298994
    17  C   -0.475320
    18  H    0.147987
    19  H    0.150759
    20  H    0.148605
    21  H    0.152649
    22  H    0.156461
    23  H    0.153150
    24  H    0.159550
    25  C   -0.296651
    26  C   -0.301288
    27  C   -0.480162
    28  H    0.144757
    29  H    0.149611
    30  H    0.148196
    31  H    0.153475
    32  H    0.151440
    33  H    0.145605
    34  H    0.181269
 Sum of Mulliken charges =  -0.00000

 Dipole moment (field-independent basis, Debye):
    X=             -1.6867    Y=              4.5584    Z=              1.4637  Tot=              5.0761
 Quadrupole moment (field-independent basis, Debye-Ang):
   XX=           -104.5178   YY=            -90.8834   ZZ=            -91.1724
   XY=             11.2176   XZ=              3.0866   YZ=             -1.1715

 Normal termination of Gaussian 16 at Wed May  5 16:03:03 2021.
