 Gaussian 16, Revision A.03,
 Gaussian 16:  EM64L-G16RevA.03 25-Dec-2016

 -------------
 #p 6-31g* mp2
 -------------

 ------------------------------------------------------
 Input file generated by CHIRIPA (05-May-2021 14:55:25)
 ------------------------------------------------------
 Symbolic Z-matrix:
 Charge =  0 Multiplicity = 1

                         Standard orientation:
 ---------------------------------------------------------------------
 Center     Atomic      Atomic             Coordinates (Angstroms)
 Number     Number       Type             X           Y           Z
 ---------------------------------------------------------------------
      1          6           0       -1.034616    0.761675    1.039793
      2          6           0       -1.050144   -0.100821   -0.061288
      3          6           0       -2.258550   -0.605084   -0.551209
      4          6           0       -3.437981   -0.224366    0.086981
      5          6           0       -3.455250    0.633158    1.185909
      6          6           0       -2.235102    1.125272    1.658786
      7          1           0       -0.091337    1.148680    1.413755
      8          1           0       -0.119371   -0.384902   -0.543993
      9          1           0       -2.299460   -1.274391   -1.401958
     10          1           0       -4.399311    0.898355    1.646167
     11          1           0       -2.226071    1.794931    2.514075
     12          7           0       -4.723481   -0.751776   -0.422655
     13          8           0       -5.748867   -0.401175    0.157259
     14          8           0       -4.681329   -1.505773   -1.392370
     15          6           0        4.819407   -0.061063    0.007417
     16          6           0        4.904653   -1.574303    0.209466
     17          6           0        6.291172   -2.033086    0.662100
     18          1           0        5.569178    0.246211   -0.734453
     19          1           0        5.084725    0.442836    0.947143
     20          1           0        4.637910   -2.075221   -0.729972
     21          1           0        4.154463   -1.878038    0.950801
     22          1           0        6.562610   -1.560056    1.611396
     23          1           0        7.048805   -1.758361   -0.078926
     24          1           0        6.329701   -3.118087    0.800472
     25          6           0        3.439448    0.412917   -0.445113
     26          6           0        3.354201    1.926156   -0.647162
     27          6           0        1.967683    2.384940   -1.099796
     28          1           0        3.174129   -0.090983   -1.384840
     29          1           0        2.689677    0.105642    0.296757
     30          1           0        4.104391    2.229891   -1.388496
     31          1           0        3.620944    2.427076    0.292277
     32          1           0        1.210049    2.110215   -0.358770
     33          1           0        1.696244    1.911910   -2.049093
     34          1           0        1.929153    3.469941   -1.238169
 ---------------------------------------------------------------------

 SCF Done:  E(RHF) =  -669.535035938     A.U. after   15 cycles
 E2 =    -0.2092266397D+01 EUMP2 =    -0.67162730233443D+03

 The electronic state is 1-A.
 Alpha  occ. eigenvalues --  -20.60733 -20.60728 -15.85786 -11.31153 -11.27713
 Alpha  occ. eigenvalues --  -11.27697 -11.27447 -11.26740 -11.26692 -11.22586
 Alpha  occ. eigenvalues --  -11.22489 -11.22313 -11.22201 -11.22104 -11.21638
 Alpha  occ. eigenvalues --   -1.59809  -1.39362  -1.19320  -1.09353  -1.08720
 Alpha  occ. eigenvalues --   -1.04719  -1.04384  -0.96847  -0.95558  -0.87857
 Alpha  occ. eigenvalues --   -0.86118  -0.82386  -0.80458  -0.79169  -0.77424
 Alpha  occ. eigenvalues --   -0.72005  -0.71131  -0.70475  -0.65990  -0.64973
 Alpha  occ. eigenvalues --   -0.64720  -0.62077  -0.61768  -0.60206  -0.58453
 Alpha  occ. eigenvalues --   -0.56211  -0.55204  -0.53497  -0.53341  -0.52967
 Alpha  occ. eigenvalues --   -0.52807  -0.50778  -0.48792  -0.48761  -0.48724
 Alpha  occ. eigenvalues --   -0.47492  -0.46692  -0.46610  -0.44767  -0.44650
 Alpha  occ. eigenvalues --   -0.37280  -0.36311
 Alpha virt. eigenvalues --    0.05068   0.11279   0.16499   0.18967   0.22546
 Alpha virt. eigenvalues --    0.23929   0.25160   0.25710   0.27146   0.27443
 Alpha virt. eigenvalues --    0.29225   0.29944   0.30823   0.31416   0.31959

 Mulliken charges:
               1
     1  C   -0.172756
     2  C   -0.218805
     3  C   -0.171804
     4  C    0.158855
     5  C   -0.171272
     6  C   -0.219087
     7  H    0.225670
     8  H    0.228484
     9  H    0.275553
    10  H    0.275447
    11  H    0.223296
    12  N    0.488038
    13  O   -0.460508
    14  O   -0.460440
    15  C   -0.298456
    16  C   -0.300477
    17  C   -0.476228
    18  H    0.153084
    19  H    0.150794
    20  H    0.152836
    21  H    0.151155
    22  H    0.155923
    23  H    0.156670
    24  H    0.162511
    25  C   -0.300632
    26  C   -0.300594
    27  C   -0.480246
    28  H    0.150416
    29  H    0.140926
    30  H    0.156922
    31  H    0.152510
    32  H    0.148751
    33  H    0.157617
    34  H    0.165845
 Sum of Mulliken charges =  -0.00000

 Dipole moment (field-independent basis, Debye):
    X=              4.7406    Y=              1.8780    Z=              1.7372  Tot=              5.3869
 Quadrupole moment (field-independent basis, Debye-Ang):
   XX=           -125.0446   YY=            -94.9042   ZZ=            -91.3728
   XY=             -8.4368   XZ=             -8.5626   YZ=              2.0406

 Normal termination of Gaussian 16 at Thu May  6 08:00:03 2021.
