 Gaussian 16, Revision A.03,
 Gaussian 16:  EM64L-G16RevA.03 25-Dec-2016

 -------------
 #p 6-31g* mp2
 -------------

 ------------------------------------------------------
 Input file generated by CHIRIPA (05-May-2021 14:55:21)
 ------------------------------------------------------
 Symbolic Z-matrix:
 Charge =  0 Multiplicity = 1

                         Standard orientation:
 ---------------------------------------------------------------------
 Center     Atomic      Atomic             Coordinates (Angstroms)
 Number     Number       Type             X           Y           Z
 ---------------------------------------------------------------------
      1          6           0        0.831945   -1.019631    1.119291
      2          6           0        0.758947   -0.110078    0.059147
      3          6           0        1.924490    0.404396   -0.516504
      4          6           0        3.151795   -0.014206   -0.004855
      5          6           0        3.257323   -0.918988    1.050381
      6          6           0        2.078702   -1.420477    1.610658
      7          1           0       -0.078556   -1.414243    1.560499
      8          1           0       -0.207925    0.203003   -0.324497
      9          1           0        1.896917    1.109803   -1.338123
     10          1           0        4.235640   -1.212341    1.411292
     11          1           0        2.138427   -2.126716    2.433886
     12          7           0        4.392626    0.523571   -0.606134
     13          8           0        5.461649    0.138960   -0.137197
     14          8           0        4.272671    1.319510   -1.534966
     15          6           0       -3.545699    0.702153    0.333775
     16          6           0       -4.071704    2.070159   -0.101963
     17          6           0       -3.609365    3.201366    0.816953
     18          1           0       -3.876252    0.499734    1.361737
     19          1           0       -2.447517    0.730177    0.358376
     20          1           0       -5.168528    2.039151   -0.127070
     21          1           0       -3.740021    2.269261   -1.129075
     22          1           0       -2.516330    3.261096    0.834472
     23          1           0       -3.952954    3.029680    1.842170
     24          1           0       -3.996838    4.170337    0.487075
     25          6           0       -3.999368   -0.438888   -0.575036
     26          6           0       -3.473362   -1.806893   -0.139298
     27          6           0       -3.935702   -2.938101   -1.058213
     28          1           0       -5.097549   -0.466911   -0.599637
     29          1           0       -3.668814   -0.236468   -1.602998
     30          1           0       -3.805045   -2.005996    0.887814
     31          1           0       -2.376537   -1.775886   -0.114192
     32          1           0       -3.592112   -2.766415   -2.083431
     33          1           0       -5.028737   -2.997832   -1.075733
     34          1           0       -3.548229   -3.907072   -0.728336
 ---------------------------------------------------------------------

 SCF Done:  E(RHF) =  -669.535478332     A.U. after   15 cycles
 E2 =    -0.2091911021D+01 EUMP2 =    -0.67162738935343D+03

 The electronic state is 1-A.
 Alpha  occ. eigenvalues --  -20.60751 -20.60746 -15.85804 -11.31169 -11.27743
 Alpha  occ. eigenvalues --  -11.27739 -11.27463 -11.26746 -11.26730 -11.22701
 Alpha  occ. eigenvalues --  -11.22494 -11.22406 -11.22353 -11.21901 -11.21748
 Alpha  occ. eigenvalues --   -1.59826  -1.39380  -1.19341  -1.09424  -1.08732
 Alpha  occ. eigenvalues --   -1.04747  -1.04419  -0.96847  -0.95568  -0.87858
 Alpha  occ. eigenvalues --   -0.86149  -0.82403  -0.80498  -0.79263  -0.77452
 Alpha  occ. eigenvalues --   -0.72023  -0.71149  -0.70442  -0.66140  -0.64991
 Alpha  occ. eigenvalues --   -0.64706  -0.62098  -0.61817  -0.60220  -0.58466
 Alpha  occ. eigenvalues --   -0.56141  -0.55229  -0.53510  -0.53278  -0.53068
 Alpha  occ. eigenvalues --   -0.52838  -0.50785  -0.48813  -0.48779  -0.48771
 Alpha  occ. eigenvalues --   -0.47544  -0.46758  -0.46699  -0.44786  -0.44699
 Alpha  occ. eigenvalues --   -0.37313  -0.36350
 Alpha virt. eigenvalues --    0.05080   0.11225   0.16555   0.18486   0.22646
 Alpha virt. eigenvalues --    0.23423   0.24820   0.25927   0.26981   0.27764
 Alpha virt. eigenvalues --    0.29429   0.30751   0.31042   0.31246   0.32150

 Mulliken charges:
               1
     1  C   -0.174194
     2  C   -0.225055
     3  C   -0.171710
     4  C    0.158806
     5  C   -0.170957
     6  C   -0.218685
     7  H    0.228472
     8  H    0.231183
     9  H    0.275766
    10  H    0.275577
    11  H    0.223510
    12  N    0.487966
    13  O   -0.460442
    14  O   -0.460499
    15  C   -0.303589
    16  C   -0.300202
    17  C   -0.476281
    18  H    0.152503
    19  H    0.141484
    20  H    0.155504
    21  H    0.152834
    22  H    0.154622
    23  H    0.156482
    24  H    0.163982
    25  C   -0.298991
    26  C   -0.303216
    27  C   -0.475740
    28  H    0.154601
    29  H    0.150915
    30  H    0.153002
    31  H    0.144218
    32  H    0.157828
    33  H    0.158495
    34  H    0.161810
 Sum of Mulliken charges =  -0.00000

 Dipole moment (field-independent basis, Debye):
    X=             -4.6116    Y=             -1.8803    Z=              2.0998  Tot=              5.4048
 Quadrupole moment (field-independent basis, Debye-Ang):
   XX=           -119.5433   YY=            -94.2235   ZZ=            -93.0901
   XY=             -7.8340   XZ=              8.2771   YZ=             -2.6013

 Normal termination of Gaussian 16 at Thu May  6 14:10:19 2021.
