 Gaussian 16, Revision A.03,
 Gaussian 16:  EM64L-G16RevA.03 25-Dec-2016

 -------------
 #p 6-31g* mp2
 -------------

 ------------------------------------------------------
 Input file generated by CHIRIPA (05-May-2021 14:55:23)
 ------------------------------------------------------
 Symbolic Z-matrix:
 Charge =  0 Multiplicity = 1

                         Standard orientation:
 ---------------------------------------------------------------------
 Center     Atomic      Atomic             Coordinates (Angstroms)
 Number     Number       Type             X           Y           Z
 ---------------------------------------------------------------------
      1          6           0       -4.185297    0.176550   -0.938390
      2          6           0       -3.331160   -0.703628   -1.610891
      3          6           0       -2.157111   -1.157498   -1.002486
      4          6           0       -1.866800   -0.708905    0.285060
      5          6           0       -2.697614    0.167855    0.980999
      6          6           0       -3.866360    0.608721    0.353132
      7          1           0       -5.095267    0.524076   -1.418574
      8          1           0       -3.576312   -1.040924   -2.613975
      9          1           0       -1.478056   -1.839064   -1.500252
     10          1           0       -2.426478    0.486535    1.980172
     11          1           0       -4.527827    1.292262    0.877801
     12          7           0       -0.626694   -1.182513    0.939453
     13          8           0       -0.393519   -0.772483    2.074417
     14          8           0        0.088646   -1.954789    0.305012
     15          6           0        3.162954    0.339953    0.093903
     16          6           0        3.846655   -0.590100   -0.908862
     17          6           0        4.867898   -1.519354   -0.252095
     18          1           0        3.926799    0.938088    0.609383
     19          1           0        2.666669   -0.265127    0.865249
     20          1           0        4.340338    0.016530   -1.678859
     21          1           0        3.081079   -1.185954   -1.422151
     22          1           0        4.386166   -2.149011    0.502932
     23          1           0        5.652580   -0.939694    0.244767
     24          1           0        5.344602   -2.175461   -0.987038
     25          6           0        2.139280    1.275020   -0.547557
     26          6           0        1.455578    2.205073    0.455210
     27          6           0        0.434334    3.134327   -0.201557
     28          1           0        2.635565    1.880100   -1.318902
     29          1           0        1.375435    0.676885   -1.063035
     30          1           0        2.221156    2.800927    0.968498
     31          1           0        0.961897    1.598443    1.225205
     32          1           0       -0.350346    2.554667   -0.698419
     33          1           0        0.916068    3.763983   -0.956585
     34          1           0       -0.042368    3.790433    0.533385
 ---------------------------------------------------------------------

 SCF Done:  E(RHF) =  -669.537242263     A.U. after   15 cycles
 E2 =    -0.2093930405D+01 EUMP2 =    -0.67163117266796D+03

 The electronic state is 1-A.
 Alpha  occ. eigenvalues --  -20.61201 -20.61190 -15.86168 -11.31409 -11.27952
 Alpha  occ. eigenvalues --  -11.27948 -11.27665 -11.26932 -11.26922 -11.20776
 Alpha  occ. eigenvalues --  -11.20656 -11.20516 -11.20469 -11.20094 -11.19998
 Alpha  occ. eigenvalues --   -1.60221  -1.39781  -1.19559  -1.08980  -1.07440
 Alpha  occ. eigenvalues --   -1.04937  -1.02635  -0.95837  -0.95112  -0.86343
 Alpha  occ. eigenvalues --   -0.86131  -0.82674  -0.78709  -0.77742  -0.77213
 Alpha  occ. eigenvalues --   -0.72395  -0.71559  -0.70663  -0.65214  -0.64938
 Alpha  occ. eigenvalues --   -0.64011  -0.62284  -0.60027  -0.58508  -0.56715
 Alpha  occ. eigenvalues --   -0.55445  -0.54432  -0.53249  -0.53026  -0.51850
 Alpha  occ. eigenvalues --   -0.51542  -0.49222  -0.49172  -0.48989  -0.47047
 Alpha  occ. eigenvalues --   -0.45963  -0.45082  -0.44777  -0.44405  -0.42859
 Alpha  occ. eigenvalues --   -0.37520  -0.36524
 Alpha virt. eigenvalues --    0.04719   0.11090   0.16170   0.21199   0.23447
 Alpha virt. eigenvalues --    0.25060   0.27087   0.27330   0.28216   0.28617
 Alpha virt. eigenvalues --    0.28833   0.31009   0.31901   0.32245   0.32372

 Mulliken charges:
               1
     1  C   -0.170135
     2  C   -0.218495
     3  C   -0.171377
     4  C    0.158979
     5  C   -0.170089
     6  C   -0.218327
     7  H    0.226626
     8  H    0.224394
     9  H    0.276053
    10  H    0.276372
    11  H    0.224549
    12  N    0.488920
    13  O   -0.457889
    14  O   -0.458488
    15  C   -0.303079
    16  C   -0.298461
    17  C   -0.476516
    18  H    0.143799
    19  H    0.171789
    20  H    0.144475
    21  H    0.156542
    22  H    0.162822
    23  H    0.151108
    24  H    0.155332
    25  C   -0.298295
    26  C   -0.310477
    27  C   -0.475649
    28  H    0.144563
    29  H    0.144856
    30  H    0.150618
    31  H    0.165890
    32  H    0.150537
    33  H    0.153303
    34  H    0.155750
 Sum of Mulliken charges =  -0.00000

 Dipole moment (field-independent basis, Debye):
    X=             -4.6175    Y=              1.4065    Z=             -2.1324  Tot=              5.2770
 Quadrupole moment (field-independent basis, Debye-Ang):
   XX=            -79.3280   YY=            -96.8114   ZZ=            -93.1073
   XY=             -0.0148   XZ=              2.2745   YZ=              4.8935

 Normal termination of Gaussian 16 at Wed May  5 17:35:03 2021.
