 Gaussian 16, Revision A.03,
 Gaussian 16:  EM64L-G16RevA.03 25-Dec-2016

 -------------
 #p 6-31g* mp2
 -------------

 ------------------------------------------------------
 Input file generated by CHIRIPA (05-May-2021 14:57:23)
 ------------------------------------------------------
 Symbolic Z-matrix:
 Charge =  0 Multiplicity = 1

                         Standard orientation:
 ---------------------------------------------------------------------
 Center     Atomic      Atomic             Coordinates (Angstroms)
 Number     Number       Type             X           Y           Z
 ---------------------------------------------------------------------
      1          6           0       -1.998869    1.250256    1.335618
      2          6           0       -1.882518   -0.139609    1.229502
      3          6           0       -2.866362   -0.886533    0.574748
      4          6           0       -3.958152   -0.208076    0.035322
      5          6           0       -4.102518    1.175566    0.124662
      6          6           0       -3.106545    1.902258    0.783832
      7          1           0       -1.229884    1.822626    1.845962
      8          1           0       -1.023375   -0.648631    1.657071
      9          1           0       -2.801384   -1.963502    0.478139
     10          1           0       -4.970470    1.654867   -0.311628
     11          1           0       -3.199536    2.981542    0.864728
     12          7           0       -5.006123   -0.988102   -0.660174
     13          8           0       -5.958270   -0.366642   -1.126908
     14          8           0       -4.855534   -2.206176   -0.725400
     15          6           0        5.817728   -1.382780    0.162117
     16          6           0        4.751093   -1.465082    1.063248
     17          6           0        3.620047   -0.659680    0.900125
     18          6           0        3.588959    0.220888   -0.180118
     19          6           0        4.635606    0.325992   -1.094871
     20          6           0        5.756687   -0.489081   -0.912172
     21          1           0        6.692480   -2.012193    0.296438
     22          1           0        4.795748   -2.158229    1.898472
     23          1           0        2.780116   -0.703007    1.582809
     24          1           0        4.562119    1.026552   -1.917813
     25          1           0        6.583564   -0.423029   -1.613569
     26          7           0        2.396845    1.078651   -0.363171
     27          8           0        2.393916    1.846330   -1.323012
     28          8           0        1.487967    0.967044    0.456661
 ---------------------------------------------------------------------

 SCF Done:  E(RHF) =  -868.339488940     A.U. after   16 cycles
 E2 =    -0.2599028188D+01 EUMP2 =    -0.87093851712801D+03

 The electronic state is 1-A.
 Alpha  occ. eigenvalues --  -20.61720 -20.61661 -20.59958 -20.59953 -15.86730
 Alpha  occ. eigenvalues --  -15.85006 -11.31889 -11.30114 -11.28475 -11.28395
 Alpha  occ. eigenvalues --  -11.28108 -11.27405 -11.27364 -11.26692 -11.26682
 Alpha  occ. eigenvalues --  -11.26213 -11.25585 -11.25546  -1.60747  -1.59040
 Alpha  occ. eigenvalues --   -1.40314  -1.38602  -1.20034  -1.18254  -1.09461
 Alpha  occ. eigenvalues --   -1.07652  -1.05409  -1.03642  -0.96338  -0.94540
 Alpha  occ. eigenvalues --   -0.86816  -0.85028  -0.83185  -0.81407  -0.78262
 Alpha  occ. eigenvalues --   -0.76521  -0.72985  -0.72048  -0.71231  -0.71140
 Alpha  occ. eigenvalues --   -0.70361  -0.69273  -0.65695  -0.65407  -0.63894
 Alpha  occ. eigenvalues --   -0.63627  -0.62767  -0.61018  -0.55903  -0.54024
 Alpha  occ. eigenvalues --   -0.53742  -0.53499  -0.51955  -0.51735  -0.49724
 Alpha  occ. eigenvalues --   -0.49671  -0.48000  -0.47962  -0.45759  -0.44067
 Alpha  occ. eigenvalues --   -0.37990  -0.37002  -0.36109  -0.35250
 Alpha virt. eigenvalues --    0.04263   0.06037   0.10656   0.12424   0.15815
 Alpha virt. eigenvalues --    0.17626   0.20609   0.22482   0.26323   0.27218
 Alpha virt. eigenvalues --    0.28608   0.29460   0.30496   0.31411   0.32722

 Mulliken charges:
               1
     1  C   -0.158670
     2  C   -0.212114
     3  C   -0.173977
     4  C    0.157019
     5  C   -0.171790
     6  C   -0.220427
     7  H    0.233658
     8  H    0.220376
     9  H    0.270038
    10  H    0.272007
    11  H    0.221065
    12  N    0.488418
    13  O   -0.463230
    14  O   -0.464393
    15  C   -0.169905
    16  C   -0.218030
    17  C   -0.170373
    18  C    0.158698
    19  C   -0.170064
    20  C   -0.218200
    21  H    0.228163
    22  H    0.224797
    23  H    0.269545
    24  H    0.277265
    25  H    0.226050
    26  N    0.492417
    27  O   -0.454625
    28  O   -0.473715
 Sum of Mulliken charges =  -0.00000

 Dipole moment (field-independent basis, Debye):
    X=              8.4828    Y=             -0.1307    Z=              3.0668  Tot=              9.0211
 Quadrupole moment (field-independent basis, Debye-Ang):
   XX=           -103.1420   YY=           -103.7313   ZZ=           -102.3468
   XY=            -23.8121   XZ=             -9.8776   YZ=             -2.5689

 Normal termination of Gaussian 16 at Wed May  5 22:38:14 2021.
