 Gaussian 16, Revision A.03,
 Gaussian 16:  EM64L-G16RevA.03 25-Dec-2016

 -------------
 #p 6-31g* mp2
 -------------

 ------------------------------------------------------
 Input file generated by CHIRIPA (05-May-2021 14:51:09)
 ------------------------------------------------------
 Symbolic Z-matrix:
 Charge =  0 Multiplicity = 1

                         Standard orientation:
 ---------------------------------------------------------------------
 Center     Atomic      Atomic             Coordinates (Angstroms)
 Number     Number       Type             X           Y           Z
 ---------------------------------------------------------------------
      1          6           0        1.959050   -0.996148    0.792597
      2          6           0        0.899631   -2.066639    0.528655
      3          6           0        0.088953   -2.416502    1.776930
      4          1           0        2.635294   -1.345992    1.584587
      5          1           0        1.468268   -0.091569    1.177651
      6          1           0        1.392114   -2.968457    0.142907
      7          1           0        0.225945   -1.714286   -0.262933
      8          1           0       -0.428366   -1.531329    2.160923
      9          1           0        0.744429   -2.792626    2.569069
     10          1           0       -0.662528   -3.183630    1.565626
     11          6           0        2.777699   -0.635672   -0.445788
     12          6           0        3.837118    0.434819   -0.181845
     13          6           0        4.647796    0.784682   -1.430121
     14          1           0        3.268481   -1.540251   -0.830841
     15          1           0        2.101456   -0.285828   -1.237778
     16          1           0        4.510804    0.082466    0.609742
     17          1           0        3.344635    1.336637    0.203902
     18          1           0        3.992321    1.160806   -2.222260
     19          1           0        5.165115   -0.100491   -1.814114
     20          1           0        5.399277    1.551811   -1.218817
     21          6           0       -3.015861    0.431387   -0.301217
     22          6           0       -2.791082   -0.938679   -0.941825
     23          6           0       -4.095795   -1.695827   -1.191318
     24          1           0       -3.553363    0.301478    0.648078
     25          1           0       -3.669459    1.029522   -0.951171
     26          1           0       -2.136980   -1.533553   -0.291525
     27          1           0       -2.253884   -0.805508   -1.889612
     28          1           0       -4.750509   -1.125763   -1.858384
     29          1           0       -4.632941   -1.857945   -0.251217
     30          1           0       -3.911831   -2.672498   -1.649720
     31          6           0       -1.720888    1.200433   -0.045592
     32          6           0       -1.945667    2.570498    0.595016
     33          6           0       -0.640955    3.327647    0.844509
     34          1           0       -1.067291    0.602298    0.604362
     35          1           0       -1.183386    1.330342   -0.994887
     36          1           0       -2.482865    2.437328    1.542803
     37          1           0       -2.599769    3.165373   -0.055285
     38          1           0       -0.103808    3.489764   -0.095593
     39          1           0        0.013759    2.757583    1.511575
     40          1           0       -0.824918    4.304318    1.302911
 ---------------------------------------------------------------------

 SCF Done:  E(RHF) =  -470.732619895     A.U. after   11 cycles
 E2 =    -0.1585156939D+01 EUMP2 =    -0.47231777683476D+03

 The electronic state is 1-A.
 Alpha  occ. eigenvalues --  -11.21671 -11.21593 -11.21564 -11.21534 -11.21464
 Alpha  occ. eigenvalues --  -11.21398 -11.21372 -11.21313 -11.21155 -11.21130
 Alpha  occ. eigenvalues --  -11.21083 -11.21046  -1.08521  -1.08375  -1.03593
 Alpha  occ. eigenvalues --   -1.03509  -0.96030  -0.95980  -0.87050  -0.86991
 Alpha  occ. eigenvalues --   -0.79701  -0.79537  -0.78340  -0.78197  -0.65371
 Alpha  occ. eigenvalues --   -0.64824  -0.61070  -0.60854  -0.59463  -0.59281
 Alpha  occ. eigenvalues --   -0.57686  -0.57541  -0.55345  -0.55247  -0.52721
 Alpha  occ. eigenvalues --   -0.52670  -0.52457  -0.52402  -0.49976  -0.49924
 Alpha  occ. eigenvalues --   -0.48059  -0.47886  -0.46823  -0.46509  -0.46095
 Alpha  occ. eigenvalues --   -0.45827  -0.45555  -0.45332  -0.43831  -0.43766
 Alpha virt. eigenvalues --    0.19704   0.22491   0.23785   0.24071   0.25508
 Alpha virt. eigenvalues --    0.26111   0.27027   0.27757   0.28474   0.30420
 Alpha virt. eigenvalues --    0.30544   0.31287   0.31721   0.31976   0.32317

 Mulliken charges:
               1
     1  C   -0.300480
     2  C   -0.307214
     3  C   -0.478854
     4  H    0.149324
     5  H    0.151218
     6  H    0.152256
     7  H    0.159827
     8  H    0.155011
     9  H    0.156221
    10  H    0.160242
    11  C   -0.298185
    12  C   -0.300116
    13  C   -0.475629
    14  H    0.149311
    15  H    0.150239
    16  H    0.151709
    17  H    0.152750
    18  H    0.154964
    19  H    0.155039
    20  H    0.160220
    21  C   -0.297279
    22  C   -0.308592
    23  C   -0.475204
    24  H    0.149602
    25  H    0.149676
    26  H    0.162773
    27  H    0.151012
    28  H    0.155083
    29  H    0.155248
    30  H    0.160250
    31  C   -0.306909
    32  C   -0.299462
    33  C   -0.476945
    34  H    0.157677
    35  H    0.149106
    36  H    0.152159
    37  H    0.152442
    38  H    0.155186
    39  H    0.155380
    40  H    0.160944
 Sum of Mulliken charges =  -0.00000

 Dipole moment (field-independent basis, Debye):
    X=             -0.0234    Y=              0.0010    Z=             -0.0025  Tot=              0.0235
 Quadrupole moment (field-independent basis, Debye-Ang):
   XX=            -85.5579   YY=            -84.6201   ZZ=            -84.6181
   XY=             -1.3333   XZ=              0.5251   YZ=             -0.4182

 Normal termination of Gaussian 16 at Wed May  5 21:22:06 2021.
