 Gaussian 16, Revision A.03,
 Gaussian 16:  EM64L-G16RevA.03 25-Dec-2016

 -------------
 #p 6-31g* mp2
 -------------

 ------------------------------------------------------
 Input file generated by CHIRIPA (05-May-2021 14:57:23)
 ------------------------------------------------------
 Symbolic Z-matrix:
 Charge =  0 Multiplicity = 1

                         Standard orientation:
 ---------------------------------------------------------------------
 Center     Atomic      Atomic             Coordinates (Angstroms)
 Number     Number       Type             X           Y           Z
 ---------------------------------------------------------------------
      1          6           0        3.506167    2.068489   -1.351563
      2          6           0        2.703853    2.291780   -0.227751
      3          6           0        2.330805    1.229252    0.600753
      4          6           0        2.779942   -0.049413    0.274284
      5          6           0        3.580250   -0.303953   -0.838374
      6          6           0        3.941038    0.773618   -1.652757
      7          1           0        3.791198    2.899729   -1.989680
      8          1           0        2.364659    3.296335    0.008600
      9          1           0        1.710511    1.373818    1.476969
     10          1           0        3.902914   -1.316499   -1.048269
     11          1           0        4.564213    0.597242   -2.524875
     12          7           0        2.391502   -1.182226    1.143909
     13          8           0        2.800245   -2.299313    0.834582
     14          8           0        1.685655   -0.931589    2.118382
     15          6           0       -3.812386    1.996522    0.804418
     16          6           0       -4.366570    1.420482   -0.343439
     17          6           0       -3.838136    0.238327   -0.870521
     18          6           0       -2.750338   -0.343578   -0.221387
     19          6           0       -2.176100    0.206087    0.923780
     20          6           0       -2.720843    1.388558    1.433256
     21          1           0       -4.229220    2.914971    1.207029
     22          1           0       -5.214302    1.890430   -0.833894
     23          1           0       -4.247676   -0.229029   -1.757804
     24          1           0       -1.331300   -0.285599    1.390658
     25          1           0       -2.288413    1.833675    2.324839
     26          7           0       -2.182275   -1.595239   -0.770066
     27          8           0       -1.223705   -2.088295   -0.179578
     28          8           0       -2.706353   -2.059535   -1.780218
 ---------------------------------------------------------------------

 SCF Done:  E(RHF) =  -868.338069883     A.U. after   16 cycles
 E2 =    -0.2600193695D+01 EUMP2 =    -0.87093826357749D+03

 The electronic state is 1-A.
 Alpha  occ. eigenvalues --  -20.60579 -20.60486 -20.60358 -20.60325 -15.85574
 Alpha  occ. eigenvalues --  -15.85399 -11.31036 -11.30868 -11.27690 -11.27558
 Alpha  occ. eigenvalues --  -11.27510 -11.27379 -11.27357 -11.27291 -11.26709
 Alpha  occ. eigenvalues --  -11.26621 -11.26550 -11.26507  -1.59558  -1.59426
 Alpha  occ. eigenvalues --   -1.39128  -1.38971  -1.19213  -1.19076  -1.08586
 Alpha  occ. eigenvalues --   -1.08464  -1.04645  -1.04489  -0.95411  -0.95265
 Alpha  occ. eigenvalues --   -0.86039  -0.85883  -0.82257  -0.82089  -0.77296
 Alpha  occ. eigenvalues --   -0.77099  -0.71809  -0.71618  -0.70844  -0.70739
 Alpha  occ. eigenvalues --   -0.70341  -0.70175  -0.64880  -0.64725  -0.64661
 Alpha  occ. eigenvalues --   -0.64493  -0.62013  -0.61797  -0.55145  -0.55013
 Alpha  occ. eigenvalues --   -0.52953  -0.52835  -0.52747  -0.52572  -0.48568
 Alpha  occ. eigenvalues --   -0.48536  -0.48393  -0.48345  -0.44499  -0.44356
 Alpha  occ. eigenvalues --   -0.37187  -0.37096  -0.36267  -0.36089
 Alpha virt. eigenvalues --    0.05253   0.05404   0.11325   0.11606   0.16685
 Alpha virt. eigenvalues --    0.16853   0.21117   0.21890   0.26609   0.27680
 Alpha virt. eigenvalues --    0.28206   0.29041   0.31038   0.31286   0.32344

 Mulliken charges:
               1
     1  C   -0.171166
     2  C   -0.217790
     3  C   -0.171789
     4  C    0.162813
     5  C   -0.168532
     6  C   -0.218112
     7  H    0.224669
     8  H    0.220296
     9  H    0.267519
    10  H    0.278283
    11  H    0.224056
    12  N    0.493487
    13  O   -0.450841
    14  O   -0.469312
    15  C   -0.171333
    16  C   -0.219447
    17  C   -0.171139
    18  C    0.157113
    19  C   -0.179608
    20  C   -0.222251
    21  H    0.223406
    22  H    0.221701
    23  H    0.274575
    24  H    0.291642
    25  H    0.222157
    26  N    0.486814
    27  O   -0.453658
    28  O   -0.463551
 Sum of Mulliken charges =  -0.00000

 Dipole moment (field-independent basis, Debye):
    X=             -0.3994    Y=              8.1003    Z=             -1.1758  Tot=              8.1949
 Quadrupole moment (field-independent basis, Debye-Ang):
   XX=            -83.7236   YY=           -107.3288   ZZ=           -104.0165
   XY=             -2.6853   XZ=            -12.4059   YZ=              1.4876

 Normal termination of Gaussian 16 at Thu May  6 00:14:14 2021.
