 Gaussian 16, Revision A.03,
 Gaussian 16:  EM64L-G16RevA.03 25-Dec-2016

 -------------
 #p 6-31g* mp2
 -------------

 ------------------------------------------------------
 Input file generated by CHIRIPA (05-May-2021 14:57:24)
 ------------------------------------------------------
 Symbolic Z-matrix:
 Charge =  0 Multiplicity = 1

                         Standard orientation:
 ---------------------------------------------------------------------
 Center     Atomic      Atomic             Coordinates (Angstroms)
 Number     Number       Type             X           Y           Z
 ---------------------------------------------------------------------
      1          6           0       -2.937205   -2.368763    0.288094
      2          6           0       -1.674504   -1.793940    0.110087
      3          6           0       -1.540283   -0.412165   -0.054931
      4          6           0       -2.695110    0.368430   -0.036639
      5          6           0       -3.967004   -0.174561    0.138680
      6          6           0       -4.077414   -1.558668    0.301799
      7          1           0       -3.032223   -3.443065    0.415546
      8          1           0       -0.787263   -2.420618    0.099015
      9          1           0       -0.574949    0.059067   -0.194533
     10          1           0       -4.833120    0.475991    0.145197
     11          1           0       -5.059324   -2.002334    0.439853
     12          7           0       -2.565620    1.832487   -0.210330
     13          8           0       -3.598500    2.498370   -0.190398
     14          8           0       -1.433698    2.286411   -0.363113
     15          6           0        3.125049    2.319986    0.466891
     16          6           0        3.029685    1.861324   -0.851084
     17          6           0        2.803465    0.507593   -1.117140
     18          6           0        2.676950   -0.363715   -0.036351
     19          6           0        2.767116    0.062697    1.287784
     20          6           0        2.993692    1.420794    1.530243
     21          1           0        3.300920    3.373291    0.664404
     22          1           0        3.131296    2.557375   -1.678871
     23          1           0        2.725361    0.125545   -2.127762
     24          1           0        2.661577   -0.655115    2.092163
     25          1           0        3.067304    1.774169    2.554818
     26          7           0        2.437273   -1.799159   -0.305521
     27          8           0        2.329400   -2.546559    0.664217
     28          8           0        2.361826   -2.149681   -1.481140
 ---------------------------------------------------------------------

 SCF Done:  E(RHF) =  -868.340227239     A.U. after   16 cycles
 E2 =    -0.2600221885D+01 EUMP2 =    -0.87094044912350D+03

 The electronic state is 1-A.
 Alpha  occ. eigenvalues --  -20.61476 -20.61460 -20.60681 -20.60664 -15.86490
 Alpha  occ. eigenvalues --  -15.85717 -11.31479 -11.30860 -11.27990 -11.27959
 Alpha  occ. eigenvalues --  -11.27558 -11.27404 -11.27336 -11.27021 -11.26860
 Alpha  occ. eigenvalues --  -11.26813 -11.26384 -11.26186  -1.60568  -1.59754
 Alpha  occ. eigenvalues --   -1.40115  -1.39313  -1.19592  -1.18986  -1.09040
 Alpha  occ. eigenvalues --   -1.08414  -1.04905  -1.04345  -0.95939  -0.95298
 Alpha  occ. eigenvalues --   -0.86322  -0.85742  -0.82774  -0.82134  -0.77887
 Alpha  occ. eigenvalues --   -0.77222  -0.72690  -0.71965  -0.71904  -0.71072
 Alpha  occ. eigenvalues --   -0.70639  -0.70081  -0.65217  -0.64879  -0.64629
 Alpha  occ. eigenvalues --   -0.64309  -0.62258  -0.61683  -0.55376  -0.54834
 Alpha  occ. eigenvalues --   -0.53309  -0.52978  -0.52698  -0.52345  -0.49480
 Alpha  occ. eigenvalues --   -0.49429  -0.48709  -0.48677  -0.45583  -0.44771
 Alpha  occ. eigenvalues --   -0.37502  -0.36946  -0.36482  -0.35933
 Alpha virt. eigenvalues --    0.04559   0.05283   0.11156   0.11738   0.16164
 Alpha virt. eigenvalues --    0.16854   0.21381   0.21808   0.27139   0.27333
 Alpha virt. eigenvalues --    0.28276   0.28638   0.31052   0.31575   0.32338

 Mulliken charges:
               1
     1  C   -0.171554
     2  C   -0.224031
     3  C   -0.176593
     4  C    0.157255
     5  C   -0.172285
     6  C   -0.218684
     7  H    0.228044
     8  H    0.241374
     9  H    0.273427
    10  H    0.273388
    11  H    0.222129
    12  N    0.487920
    13  O   -0.461708
    14  O   -0.464940
    15  C   -0.164255
    16  C   -0.211787
    17  C   -0.173300
    18  C    0.149833
    19  C   -0.173802
    20  C   -0.216185
    21  H    0.230404
    22  H    0.228129
    23  H    0.276273
    24  H    0.274416
    25  H    0.225567
    26  N    0.484591
    27  O   -0.464831
    28  O   -0.458793
 Sum of Mulliken charges =  -0.00000

 Dipole moment (field-independent basis, Debye):
    X=              0.6594    Y=              0.0494    Z=              1.5479  Tot=              1.6833
 Quadrupole moment (field-independent basis, Debye-Ang):
   XX=            -93.4991   YY=           -112.6362   ZZ=           -100.7943
   XY=             27.9213   XZ=              0.2795   YZ=             -1.0344

 Normal termination of Gaussian 16 at Thu May  6 08:15:12 2021.
