 Gaussian 16, Revision A.03,
 Gaussian 16:  EM64L-G16RevA.03 25-Dec-2016

 -------------
 #p 6-31g* mp2
 -------------

 ------------------------------------------------------
 Input file generated by CHIRIPA (05-May-2021 14:51:08)
 ------------------------------------------------------
 Symbolic Z-matrix:
 Charge =  0 Multiplicity = 1

                         Standard orientation:
 ---------------------------------------------------------------------
 Center     Atomic      Atomic             Coordinates (Angstroms)
 Number     Number       Type             X           Y           Z
 ---------------------------------------------------------------------
      1          6           0        2.934685    0.109219    0.211889
      2          6           0        2.000512   -0.536183    1.235980
      3          6           0        0.599337    0.075701    1.226089
      4          1           0        3.002185    1.186852    0.414609
      5          1           0        2.495813    0.006572   -0.790234
      6          1           0        2.441680   -0.433568    2.235708
      7          1           0        1.935379   -1.612437    1.030915
      8          1           0        0.135499   -0.039746    0.241139
      9          1           0        0.644676    1.145822    1.452778
     10          1           0       -0.051908   -0.400465    1.965688
     11          6           0        4.339149   -0.491782    0.209748
     12          6           0        5.273322    0.153620   -0.814343
     13          6           0        6.674497   -0.458264   -0.804452
     14          1           0        4.778022   -0.389135    1.211871
     15          1           0        4.271649   -1.569416    0.007028
     16          1           0        5.338455    1.229874   -0.609278
     17          1           0        4.832154    0.051005   -1.814071
     18          1           0        6.629158   -1.528385   -1.031141
     19          1           0        7.138336   -0.342818    0.180498
     20          1           0        7.325742    0.017902   -1.544051
     21          6           0       -4.040281   -0.361095   -0.550833
     22          6           0       -4.005543   -1.689997    0.204679
     23          6           0       -4.817098   -2.785178   -0.487961
     24          1           0       -5.083751   -0.034356   -0.657392
     25          1           0       -3.655682   -0.515690   -1.568467
     26          1           0       -4.388799   -1.532653    1.221032
     27          1           0       -2.962020   -2.013516    0.309620
     28          1           0       -4.431834   -2.971145   -1.495725
     29          1           0       -5.866720   -2.487549   -0.579135
     30          1           0       -4.778542   -3.726514    0.069049
     31          6           0       -3.233554    0.743658    0.129196
     32          6           0       -3.268291    2.072560   -0.626315
     33          6           0       -2.456735    3.167741    0.066324
     34          1           0       -3.618152    0.898253    1.146830
     35          1           0       -2.190083    0.416918    0.235755
     36          1           0       -4.311814    2.396079   -0.731256
     37          1           0       -2.885035    1.915217   -1.642669
     38          1           0       -1.407114    2.870112    0.157497
     39          1           0       -2.842000    3.353707    1.074088
     40          1           0       -2.495293    4.109077   -0.490687
 ---------------------------------------------------------------------

 SCF Done:  E(RHF) =  -470.732956145     A.U. after   11 cycles
 E2 =    -0.1583113424D+01 EUMP2 =    -0.47231606956889D+03

 The electronic state is 1-A.
 Alpha  occ. eigenvalues --  -11.21659 -11.21631 -11.21552 -11.21508 -11.21452
 Alpha  occ. eigenvalues --  -11.21390 -11.21306 -11.21185 -11.21160 -11.21094
 Alpha  occ. eigenvalues --  -11.21038 -11.20979  -1.08480  -1.08339  -1.03587
 Alpha  occ. eigenvalues --   -1.03453  -0.96044  -0.95899  -0.87071  -0.86913
 Alpha  occ. eigenvalues --   -0.79691  -0.79496  -0.78312  -0.78115  -0.65130
 Alpha  occ. eigenvalues --   -0.64968  -0.60990  -0.60857  -0.59403  -0.59272
 Alpha  occ. eigenvalues --   -0.57644  -0.57515  -0.55426  -0.55110  -0.52769
 Alpha  occ. eigenvalues --   -0.52598  -0.52478  -0.52312  -0.50082  -0.49752
 Alpha  occ. eigenvalues --   -0.48065  -0.47779  -0.46716  -0.46542  -0.45936
 Alpha  occ. eigenvalues --   -0.45767  -0.45664  -0.45389  -0.43805  -0.43696
 Alpha virt. eigenvalues --    0.21487   0.22995   0.23882   0.24515   0.25807
 Alpha virt. eigenvalues --    0.26352   0.27118   0.27440   0.27877   0.29535
 Alpha virt. eigenvalues --    0.30613   0.31286   0.31743   0.31887   0.32170

 Mulliken charges:
               1
     1  C   -0.298601
     2  C   -0.300237
     3  C   -0.479076
     4  H    0.149808
     5  H    0.149396
     6  H    0.152320
     7  H    0.152091
     8  H    0.155152
     9  H    0.157269
    10  H    0.162248
    11  C   -0.298312
    12  C   -0.299684
    13  C   -0.475739
    14  H    0.149713
    15  H    0.149708
    16  H    0.152064
    17  H    0.151911
    18  H    0.155207
    19  H    0.155260
    20  H    0.160367
    21  C   -0.297537
    22  C   -0.299827
    23  C   -0.475581
    24  H    0.149247
    25  H    0.148540
    26  H    0.151774
    27  H    0.151809
    28  H    0.154914
    29  H    0.155174
    30  H    0.159969
    31  C   -0.309232
    32  C   -0.298793
    33  C   -0.477928
    34  H    0.148497
    35  H    0.163712
    36  H    0.151409
    37  H    0.150893
    38  H    0.157738
    39  H    0.154808
    40  H    0.159547
 Sum of Mulliken charges =  -0.00000

 Dipole moment (field-independent basis, Debye):
    X=              0.0673    Y=             -0.0097    Z=              0.0315  Tot=              0.0750
 Quadrupole moment (field-independent basis, Debye-Ang):
   XX=            -85.6395   YY=            -85.2641   ZZ=            -84.1593
   XY=             -0.1137   XZ=             -0.3616   YZ=              0.2805

 Normal termination of Gaussian 16 at Wed May  5 18:05:46 2021.
