 Gaussian 16, Revision A.03,
 Gaussian 16:  EM64L-G16RevA.03 25-Dec-2016

 -------------
 #p 6-31g* mp2
 -------------

 ------------------------------------------------------
 Input file generated by CHIRIPA (05-May-2021 14:55:22)
 ------------------------------------------------------
 Symbolic Z-matrix:
 Charge =  0 Multiplicity = 1

                         Standard orientation:
 ---------------------------------------------------------------------
 Center     Atomic      Atomic             Coordinates (Angstroms)
 Number     Number       Type             X           Y           Z
 ---------------------------------------------------------------------
      1          6           0       -1.649934    1.313859   -0.782744
      2          6           0       -1.533149   -0.057173   -0.531442
      3          6           0       -2.659709   -0.817426   -0.203683
      4          6           0       -3.893106   -0.171355   -0.135743
      5          6           0       -4.041802    1.192900   -0.380665
      6          6           0       -2.901681    1.933427   -0.706688
      7          1           0       -0.769528    1.896780   -1.036681
      8          1           0       -0.562297   -0.541000   -0.589783
      9          1           0       -2.597835   -1.880367   -0.004318
     10          1           0       -5.022996    1.647155   -0.314870
     11          1           0       -2.995369    2.998028   -0.901348
     12          7           0       -5.092923   -0.965760    0.210321
     13          8           0       -6.168233   -0.372891    0.263727
     14          8           0       -4.935311   -2.166240    0.421608
     15          6           0        3.990751   -0.038772    0.416042
     16          6           0        3.309579    1.253375    0.868088
     17          6           0        1.830864    1.056149    1.203197
     18          1           0        3.463940   -0.435489   -0.462611
     19          1           0        3.890838   -0.794106    1.207801
     20          1           0        3.411950    2.006482    0.076277
     21          1           0        3.838190    1.647165    1.745651
     22          1           0        1.712722    0.324380    2.008899
     23          1           0        1.284059    0.685739    0.330041
     24          1           0        1.363584    1.992405    1.524029
     25          6           0        5.469373    0.142267    0.077473
     26          6           0        6.150545   -1.149880   -0.374574
     27          6           0        7.629261   -0.952654   -0.709683
     28          1           0        5.569287    0.897602   -0.714286
     29          1           0        5.996185    0.538984    0.956125
     30          1           0        5.621935   -1.543670   -1.252136
     31          1           0        6.048174   -1.902988    0.417238
     32          1           0        8.176065   -0.582244    0.163475
     33          1           0        7.747402   -0.220884   -1.515385
     34          1           0        8.096541   -1.888910   -1.030513
 ---------------------------------------------------------------------

 SCF Done:  E(RHF) =  -669.534990753     A.U. after   15 cycles
 E2 =    -0.2091454003D+01 EUMP2 =    -0.67162644475570D+03

 The electronic state is 1-A.
 Alpha  occ. eigenvalues --  -20.60718 -20.60713 -15.85772 -11.31127 -11.27699
 Alpha  occ. eigenvalues --  -11.27689 -11.27423 -11.26710 -11.26684 -11.22462
 Alpha  occ. eigenvalues --  -11.22158 -11.22146 -11.22113 -11.21978 -11.21494
 Alpha  occ. eigenvalues --   -1.59794  -1.39348  -1.19300  -1.09136  -1.08696
 Alpha  occ. eigenvalues --   -1.04705  -1.04245  -0.96711  -0.95531  -0.87733
 Alpha  occ. eigenvalues --   -0.86103  -0.82365  -0.80318  -0.78924  -0.77416
 Alpha  occ. eigenvalues --   -0.71991  -0.71117  -0.70413  -0.65782  -0.64956
 Alpha  occ. eigenvalues --   -0.64740  -0.62109  -0.61602  -0.60082  -0.58297
 Alpha  occ. eigenvalues --   -0.56016  -0.55195  -0.53420  -0.53216  -0.52978
 Alpha  occ. eigenvalues --   -0.52737  -0.50643  -0.48768  -0.48746  -0.48600
 Alpha  occ. eigenvalues --   -0.47344  -0.46470  -0.46376  -0.44756  -0.44485
 Alpha  occ. eigenvalues --   -0.37259  -0.36299
 Alpha virt. eigenvalues --    0.05118   0.11288   0.16607   0.19948   0.22499
 Alpha virt. eigenvalues --    0.23884   0.25431   0.26350   0.26911   0.27796
 Alpha virt. eigenvalues --    0.29156   0.30294   0.30965   0.31203   0.31549

 Mulliken charges:
               1
     1  C   -0.169793
     2  C   -0.218334
     3  C   -0.171728
     4  C    0.158372
     5  C   -0.171072
     6  C   -0.219190
     7  H    0.226308
     8  H    0.224689
     9  H    0.275464
    10  H    0.275358
    11  H    0.223090
    12  N    0.488062
    13  O   -0.460617
    14  O   -0.460568
    15  C   -0.298351
    16  C   -0.300254
    17  C   -0.477753
    18  H    0.145693
    19  H    0.151666
    20  H    0.150853
    21  H    0.156108
    22  H    0.160884
    23  H    0.144023
    24  H    0.162529
    25  C   -0.298630
    26  C   -0.300142
    27  C   -0.476077
    28  H    0.149740
    29  H    0.151514
    30  H    0.151674
    31  H    0.153056
    32  H    0.156123
    33  H    0.155467
    34  H    0.161834
 Sum of Mulliken charges =  -0.00000

 Dipole moment (field-independent basis, Debye):
    X=              4.4200    Y=              2.8104    Z=             -1.1409  Tot=              5.3606
 Quadrupole moment (field-independent basis, Debye-Ang):
   XX=           -126.9677   YY=            -92.4775   ZZ=            -94.2731
   XY=            -14.4543   XZ=              5.1578   YZ=             -0.7047

 Normal termination of Gaussian 16 at Wed May  5 17:28:34 2021.
