 Gaussian 16, Revision A.03,
 Gaussian 16:  EM64L-G16RevA.03 25-Dec-2016

 -------------
 #p 6-31g* mp2
 -------------

 ------------------------------------------------------
 Input file generated by CHIRIPA (05-May-2021 14:55:19)
 ------------------------------------------------------
 Symbolic Z-matrix:
 Charge =  0 Multiplicity = 1

                         Standard orientation:
 ---------------------------------------------------------------------
 Center     Atomic      Atomic             Coordinates (Angstroms)
 Number     Number       Type             X           Y           Z
 ---------------------------------------------------------------------
      1          6           0        0.817401   -2.395265    0.876476
      2          6           0        1.733064   -2.644651   -0.151089
      3          6           0        2.595718   -1.637288   -0.593351
      4          6           0        2.515281   -0.386579    0.017014
      5          6           0        1.613823   -0.107182    1.042978
      6          6           0        0.760802   -1.129558    1.469185
      7          1           0        0.151012   -3.183639    1.213800
      8          1           0        1.779243   -3.626658   -0.613229
      9          1           0        3.314159   -1.803065   -1.386937
     10          1           0        1.591225    0.881815    1.484331
     11          1           0        0.050689   -0.933021    2.267406
     12          7           0        3.423435    0.687818   -0.442690
     13          8           0        3.332783    1.781182    0.111363
     14          8           0        4.208702    0.416222   -1.348355
     15          6           0       -2.807123    1.445792   -0.218866
     16          6           0       -1.471426    1.770520    0.450796
     17          6           0       -1.043009    3.223273    0.241606
     18          1           0       -2.731425    1.655983   -1.294522
     19          1           0       -3.580916    2.117901    0.177252
     20          1           0       -0.700667    1.097074    0.054541
     21          1           0       -1.550254    1.559350    1.524950
     22          1           0       -1.790994    3.908583    0.653273
     23          1           0       -0.936579    3.443681   -0.825490
     24          1           0       -0.085695    3.433619    0.728602
     25          6           0       -3.248827   -0.002842   -0.018648
     26          6           0       -4.584525   -0.327570   -0.688311
     27          6           0       -5.012942   -1.780324   -0.479121
     28          1           0       -2.475036   -0.674951   -0.414767
     29          1           0       -3.324526   -0.213033    1.057007
     30          1           0       -4.505697   -0.116400   -1.762466
     31          1           0       -5.355284    0.345875   -0.292058
     32          1           0       -5.119371   -2.000731    0.587975
     33          1           0       -4.264957   -2.465634   -0.890789
     34          1           0       -5.970256   -1.990668   -0.966117
 ---------------------------------------------------------------------

 SCF Done:  E(RHF) =  -669.534617225     A.U. after   15 cycles
 E2 =    -0.2093503654D+01 EUMP2 =    -0.67162812087888D+03

 The electronic state is 1-A.
 Alpha  occ. eigenvalues --  -20.60799 -20.60794 -15.85851 -11.31211 -11.27773
 Alpha  occ. eigenvalues --  -11.27751 -11.27511 -11.26790 -11.26755 -11.21991
 Alpha  occ. eigenvalues --  -11.21831 -11.21816 -11.21657 -11.21533 -11.21091
 Alpha  occ. eigenvalues --   -1.59873  -1.39427  -1.19393  -1.08794  -1.08762
 Alpha  occ. eigenvalues --   -1.04800  -1.03834  -0.96276  -0.95615  -0.87282
 Alpha  occ. eigenvalues --   -0.86180  -0.82454  -0.79929  -0.78641  -0.77471
 Alpha  occ. eigenvalues --   -0.72068  -0.71198  -0.70487  -0.65415  -0.65034
 Alpha  occ. eigenvalues --   -0.64775  -0.62149  -0.61240  -0.59645  -0.57899
 Alpha  occ. eigenvalues --   -0.55560  -0.55276  -0.53222  -0.52898  -0.52882
 Alpha  occ. eigenvalues --   -0.52676  -0.50206  -0.48827  -0.48825  -0.48228
 Alpha  occ. eigenvalues --   -0.46958  -0.46154  -0.46059  -0.44828  -0.44087
 Alpha  occ. eigenvalues --   -0.37373  -0.36258
 Alpha virt. eigenvalues --    0.05020   0.11169   0.16490   0.20518   0.22688
 Alpha virt. eigenvalues --    0.23762   0.25410   0.26330   0.26714   0.28507
 Alpha virt. eigenvalues --    0.28829   0.30301   0.31381   0.31518   0.32029

 Mulliken charges:
               1
     1  C   -0.171940
     2  C   -0.218850
     3  C   -0.171502
     4  C    0.158612
     5  C   -0.173997
     6  C   -0.214749
     7  H    0.226216
     8  H    0.223478
     9  H    0.275554
    10  H    0.278329
    11  H    0.225469
    12  N    0.488388
    13  O   -0.460882
    14  O   -0.460238
    15  C   -0.297149
    16  C   -0.308583
    17  C   -0.477363
    18  H    0.152479
    19  H    0.150187
    20  H    0.160818
    21  H    0.141125
    22  H    0.154575
    23  H    0.159546
    24  H    0.165682
    25  C   -0.299315
    26  C   -0.299640
    27  C   -0.475676
    28  H    0.149589
    29  H    0.143937
    30  H    0.154010
    31  H    0.153349
    32  H    0.153398
    33  H    0.152941
    34  H    0.162199
 Sum of Mulliken charges =  -0.00000

 Dipole moment (field-independent basis, Debye):
    X=             -3.1721    Y=             -3.7330    Z=              1.5459  Tot=              5.1369
 Quadrupole moment (field-independent basis, Debye-Ang):
   XX=           -110.7990   YY=            -91.0277   ZZ=            -92.2050
   XY=            -10.3759   XZ=              2.3569   YZ=              1.8488

 Normal termination of Gaussian 16 at Thu May  6 02:55:51 2021.
