 Gaussian 16, Revision A.03,
 Gaussian 16:  EM64L-G16RevA.03 25-Dec-2016

 -------------
 #p 6-31g* mp2
 -------------

 ------------------------------------------------------
 Input file generated by CHIRIPA (05-May-2021 14:53:17)
 ------------------------------------------------------
 Symbolic Z-matrix:
 Charge =  0 Multiplicity = 1

                         Standard orientation:
 ---------------------------------------------------------------------
 Center     Atomic      Atomic             Coordinates (Angstroms)
 Number     Number       Type             X           Y           Z
 ---------------------------------------------------------------------
      1          6           0       -2.850300    0.854666    0.149295
      2          6           0       -2.953660    2.377969    0.066519
      3          6           0       -1.648092    3.080272    0.440758
      4          1           0       -2.557346    0.568248    1.168651
      5          1           0       -2.045046    0.512114   -0.515249
      6          1           0       -3.759397    2.717426    0.729974
      7          1           0       -3.246589    2.660784   -0.952708
      8          1           0       -0.838452    2.770081   -0.227722
      9          1           0       -1.354174    2.827045    1.464521
     10          1           0       -1.744399    4.168496    0.374777
     11          6           0       -4.147544    0.138375   -0.221937
     12          6           0       -4.044185   -1.384927   -0.139161
     13          6           0       -5.349753   -2.087230   -0.513400
     14          1           0       -4.952799    0.480928    0.442607
     15          1           0       -4.440499    0.424794   -1.241293
     16          1           0       -3.751256   -1.667742    0.880067
     17          1           0       -3.238448   -1.724384   -0.802616
     18          1           0       -5.643671   -1.834003   -1.537163
     19          1           0       -6.159393   -1.777040    0.155080
     20          1           0       -5.253446   -3.175454   -0.447419
     21          6           0        0.395118   -1.045404    0.710601
     22          6           0        1.426035   -1.044801    1.655974
     23          6           0        2.725504   -0.682292    1.289206
     24          6           0        2.959603   -0.324342   -0.037579
     25          6           0        1.953629   -0.315066   -1.002578
     26          6           0        0.661734   -0.681177   -0.613323
     27          1           0       -0.611399   -1.328409    1.004249
     28          1           0        1.221893   -1.327207    2.684865
     29          1           0        3.542272   -0.673109    2.000699
     30          1           0        2.187864   -0.028737   -2.020697
     31          1           0       -0.136934   -0.680732   -1.349648
     32          7           0        4.331283    0.061336   -0.437763
     33          8           0        4.511575    0.372627   -1.613019
     34          8           0        5.200139    0.045036    0.431408
 ---------------------------------------------------------------------

 SCF Done:  E(RHF) =  -669.534747017     A.U. after   15 cycles
 E2 =    -0.2093195270D+01 EUMP2 =    -0.67162794228642D+03

 The electronic state is 1-A.
 Alpha  occ. eigenvalues --  -20.60718 -20.60713 -15.85773 -11.31122 -11.27713
 Alpha  occ. eigenvalues --  -11.27707 -11.27387 -11.26698 -11.26687 -11.22748
 Alpha  occ. eigenvalues --  -11.22442 -11.22337 -11.22318 -11.21940 -11.21596
 Alpha  occ. eigenvalues --   -1.59794  -1.39348  -1.19302  -1.09409  -1.08684
 Alpha  occ. eigenvalues --   -1.04714  -1.04382  -0.96809  -0.95525  -0.87822
 Alpha  occ. eigenvalues --   -0.86115  -0.82367  -0.80473  -0.79279  -0.77417
 Alpha  occ. eigenvalues --   -0.71991  -0.71118  -0.70380  -0.66083  -0.64949
 Alpha  occ. eigenvalues --   -0.64708  -0.62084  -0.61766  -0.60188  -0.58431
 Alpha  occ. eigenvalues --   -0.56093  -0.55185  -0.53471  -0.53263  -0.53009
 Alpha  occ. eigenvalues --   -0.52806  -0.50746  -0.48780  -0.48747  -0.48744
 Alpha  occ. eigenvalues --   -0.47518  -0.46726  -0.46682  -0.44758  -0.44665
 Alpha  occ. eigenvalues --   -0.37223  -0.36306
 Alpha virt. eigenvalues --    0.05114   0.11215   0.16550   0.19250   0.22724
 Alpha virt. eigenvalues --    0.23452   0.24016   0.25261   0.27138   0.28261
 Alpha virt. eigenvalues --    0.30055   0.30612   0.30922   0.31238   0.31572

 Mulliken charges:
               1
     1  C   -0.303257
     2  C   -0.300240
     3  C   -0.476304
     4  H    0.146195
     5  H    0.145993
     6  H    0.154213
     7  H    0.153690
     8  H    0.157233
     9  H    0.155427
    10  H    0.163326
    11  C   -0.297852
    12  C   -0.302180
    13  C   -0.475819
    14  H    0.153432
    15  H    0.152584
    16  H    0.148650
    17  H    0.145879
    18  H    0.158022
    19  H    0.158300
    20  H    0.162275
    21  C   -0.169086
    22  C   -0.220322
    23  C   -0.170265
    24  C    0.158170
    25  C   -0.172097
    26  C   -0.220976
    27  H    0.231399
    28  H    0.222991
    29  H    0.275372
    30  H    0.275217
    31  H    0.223278
    32  N    0.488135
    33  O   -0.460755
    34  O   -0.460631
 Sum of Mulliken charges =  -0.00000

 Dipole moment (field-independent basis, Debye):
    X=             -5.0291    Y=             -1.2728    Z=              1.4214  Tot=              5.3789
 Quadrupole moment (field-independent basis, Debye-Ang):
   XX=           -123.3889   YY=            -94.6817   ZZ=            -89.6541
   XY=             -3.3592   XZ=              5.6884   YZ=             -1.3505

 Normal termination of Gaussian 16 at Thu May  6 12:16:49 2021.
