 Gaussian 16, Revision A.03,
 Gaussian 16:  EM64L-G16RevA.03 25-Dec-2016

 -------------
 #p 6-31g* mp2
 -------------

 ------------------------------------------------------
 Input file generated by CHIRIPA (05-May-2021 14:51:10)
 ------------------------------------------------------
 Symbolic Z-matrix:
 Charge =  0 Multiplicity = 1

                         Standard orientation:
 ---------------------------------------------------------------------
 Center     Atomic      Atomic             Coordinates (Angstroms)
 Number     Number       Type             X           Y           Z
 ---------------------------------------------------------------------
      1          6           0        2.611517   -0.795795    0.779834
      2          6           0        1.446650   -1.715548    0.412240
      3          6           0        0.860641   -2.440507    1.624190
      4          1           0        3.396822   -1.387298    1.270105
      5          1           0        2.268341   -0.058446    1.518713
      6          1           0        1.791563   -2.450075   -0.326761
      7          1           0        0.664108   -1.121821   -0.077385
      8          1           0        0.489862   -1.720963    2.361333
      9          1           0        1.623722   -3.056763    2.110540
     10          1           0        0.029291   -3.092568    1.338649
     11          6           0        3.207955   -0.064031   -0.421211
     12          6           0        4.372821    0.855722   -0.053617
     13          6           0        4.958830    1.580681   -1.265567
     14          1           0        3.551130   -0.801380   -1.160090
     15          1           0        2.422650    0.527472   -0.911482
     16          1           0        5.155363    0.261995    0.436008
     17          1           0        4.027909    1.590248    0.685384
     18          1           0        4.195749    2.196937   -1.751917
     19          1           0        5.329609    0.861136   -2.002710
     20          1           0        5.790180    2.232741   -0.980026
     21          6           0       -3.168312   -0.095643   -0.669578
     22          6           0       -2.750876   -1.521071   -0.306420
     23          6           0       -3.275772   -2.561180   -1.296597
     24          1           0       -4.264697   -0.041439   -0.713705
     25          1           0       -2.802838    0.140177   -1.678643
     26          1           0       -3.115839   -1.753644    0.702208
     27          1           0       -1.655362   -1.571841   -0.262964
     28          1           0       -2.900950   -2.356885   -2.304751
     29          1           0       -4.369725   -2.539719   -1.334096
     30          1           0       -2.965650   -3.573127   -1.017941
     31          6           0       -2.651160    0.955469    0.310956
     32          6           0       -3.068595    2.380898   -0.052204
     33          6           0       -2.543700    3.421006    0.937975
     34          1           0       -3.016634    0.719649    1.320020
     35          1           0       -1.554775    0.901265    0.355082
     36          1           0       -4.164109    2.431668   -0.095659
     37          1           0       -2.703633    2.613470   -1.060830
     38          1           0       -1.449746    3.399547    0.975473
     39          1           0       -2.918521    3.216712    1.946127
     40          1           0       -2.853821    4.432953    0.659318
 ---------------------------------------------------------------------

 SCF Done:  E(RHF) =  -470.733098984     A.U. after   11 cycles
 E2 =    -0.1583441722D+01 EUMP2 =    -0.47231654070617D+03

 The electronic state is 1-A.
 Alpha  occ. eigenvalues --  -11.21637 -11.21634 -11.21631 -11.21544 -11.21442
 Alpha  occ. eigenvalues --  -11.21431 -11.21382 -11.21363 -11.21107 -11.21096
 Alpha  occ. eigenvalues --  -11.21061 -11.21059  -1.08481  -1.08430  -1.03588
 Alpha  occ. eigenvalues --   -1.03510  -0.96012  -0.95982  -0.87022  -0.87002
 Alpha  occ. eigenvalues --   -0.79658  -0.79576  -0.78341  -0.78203  -0.65229
 Alpha  occ. eigenvalues --   -0.64967  -0.61095  -0.60826  -0.59480  -0.59254
 Alpha  occ. eigenvalues --   -0.57698  -0.57512  -0.55302  -0.55267  -0.52712
 Alpha  occ. eigenvalues --   -0.52664  -0.52437  -0.52404  -0.49961  -0.49918
 Alpha  occ. eigenvalues --   -0.47975  -0.47902  -0.46865  -0.46515  -0.46014
 Alpha  occ. eigenvalues --   -0.45777  -0.45762  -0.45373  -0.43815  -0.43790
 Alpha virt. eigenvalues --    0.20467   0.23180   0.23572   0.24581   0.25687
 Alpha virt. eigenvalues --    0.26818   0.26942   0.27357   0.28194   0.29271
 Alpha virt. eigenvalues --    0.30858   0.31078   0.31558   0.31787   0.32339

 Mulliken charges:
               1
     1  C   -0.297751
     2  C   -0.305987
     3  C   -0.476742
     4  H    0.149964
     5  H    0.149659
     6  H    0.152126
     7  H    0.155600
     8  H    0.155921
     9  H    0.155216
    10  H    0.162018
    11  C   -0.298325
    12  C   -0.299685
    13  C   -0.475724
    14  H    0.149689
    15  H    0.148976
    16  H    0.152133
    17  H    0.151997
    18  H    0.155083
    19  H    0.155238
    20  H    0.160418
    21  C   -0.297746
    22  C   -0.310171
    23  C   -0.475253
    24  H    0.149744
    25  H    0.149108
    26  H    0.151889
    27  H    0.163612
    28  H    0.155078
    29  H    0.155092
    30  H    0.159818
    31  C   -0.299887
    32  C   -0.299641
    33  C   -0.475647
    34  H    0.149859
    35  H    0.149683
    36  H    0.152301
    37  H    0.151897
    38  H    0.154691
    39  H    0.155308
    40  H    0.160441
 Sum of Mulliken charges =  -0.00000

 Dipole moment (field-independent basis, Debye):
    X=              0.0111    Y=             -0.0099    Z=              0.0122  Tot=              0.0192
 Quadrupole moment (field-independent basis, Debye-Ang):
   XX=            -83.9955   YY=            -85.2826   ZZ=            -85.4491
   XY=             -1.0468   XZ=             -0.3807   YZ=             -0.0477

 Normal termination of Gaussian 16 at Thu May  6 05:21:56 2021.
