 Gaussian 16, Revision A.03,
 Gaussian 16:  EM64L-G16RevA.03 25-Dec-2016

 -------------
 #p 6-31g* mp2
 -------------

 ------------------------------------------------------
 Input file generated by CHIRIPA (05-May-2021 14:53:17)
 ------------------------------------------------------
 Symbolic Z-matrix:
 Charge =  0 Multiplicity = 1

                         Standard orientation:
 ---------------------------------------------------------------------
 Center     Atomic      Atomic             Coordinates (Angstroms)
 Number     Number       Type             X           Y           Z
 ---------------------------------------------------------------------
      1          6           0        4.307632    0.002154   -0.449541
      2          6           0        5.519239    0.002810    0.483193
      3          6           0        6.713485    0.759097   -0.099560
      4          1           0        4.593382   -0.445831   -1.411104
      5          1           0        4.016987    1.040229   -0.662427
      6          1           0        5.806660   -1.034971    0.695363
      7          1           0        5.230521    0.450671    1.442713
      8          1           0        6.449920    1.803593   -0.294913
      9          1           0        7.029333    0.309510   -1.046510
     10          1           0        7.568484    0.747014    0.583587
     11          6           0        3.105725   -0.750019    0.119127
     12          6           0        1.894118   -0.750675   -0.813607
     13          6           0        0.699873   -1.506962   -0.230854
     14          1           0        3.396371   -1.788094    0.332013
     15          1           0        2.819976   -0.302034    1.080689
     16          1           0        2.182837   -1.198536   -1.773127
     17          1           0        1.606698    0.287106   -1.025777
     18          1           0        0.384025   -1.057375    0.716095
     19          1           0        0.963438   -2.551458   -0.035501
     20          1           0       -0.155126   -1.494878   -0.914001
     21          6           0       -2.223230    2.723818    0.149827
     22          6           0       -1.671079    1.836842    1.079840
     23          6           0       -2.036444    0.487379    1.077611
     24          6           0       -2.960869    0.057049    0.127061
     25          6           0       -3.528604    0.916252   -0.812480
     26          6           0       -3.148599    2.261507   -0.791704
     27          1           0       -1.933720    3.770479    0.158762
     28          1           0       -0.952199    2.193078    1.812200
     29          1           0       -1.624529   -0.220918    1.786172
     30          1           0       -4.242826    0.531626   -1.530372
     31          1           0       -3.579036    2.948077   -1.515162
     32          7           0       -3.355413   -1.369341    0.114884
     33          8           0       -4.171855   -1.723547   -0.732818
     34          8           0       -2.840745   -2.106130    0.953272
 ---------------------------------------------------------------------

 SCF Done:  E(RHF) =  -669.534499795     A.U. after   15 cycles
 E2 =    -0.2092814239D+01 EUMP2 =    -0.67162731403447D+03

 The electronic state is 1-A.
 Alpha  occ. eigenvalues --  -20.60784 -20.60753 -15.85810 -11.31167 -11.27772
 Alpha  occ. eigenvalues --  -11.27760 -11.27521 -11.26775 -11.26762 -11.21744
 Alpha  occ. eigenvalues --  -11.21600 -11.21528 -11.21459 -11.21217 -11.20912
 Alpha  occ. eigenvalues --   -1.59837  -1.39390  -1.19369  -1.08759  -1.08525
 Alpha  occ. eigenvalues --   -1.04783  -1.03584  -0.96035  -0.95588  -0.87055
 Alpha  occ. eigenvalues --   -0.86164  -0.82427  -0.79654  -0.78345  -0.77466
 Alpha  occ. eigenvalues --   -0.72034  -0.71161  -0.70496  -0.65175  -0.65022
 Alpha  occ. eigenvalues --   -0.64784  -0.62170  -0.60973  -0.59402  -0.57638
 Alpha  occ. eigenvalues --   -0.55447  -0.55206  -0.53144  -0.52907  -0.52632
 Alpha  occ. eigenvalues --   -0.52409  -0.49948  -0.48795  -0.48788  -0.47958
 Alpha  occ. eigenvalues --   -0.46694  -0.45883  -0.45814  -0.44796  -0.43819
 Alpha  occ. eigenvalues --   -0.37332  -0.36331
 Alpha virt. eigenvalues --    0.05039   0.11268   0.16506   0.21068   0.22791
 Alpha virt. eigenvalues --    0.24185   0.26023   0.26877   0.27503   0.27744
 Alpha virt. eigenvalues --    0.28658   0.30618   0.31383   0.31592   0.31796

 Mulliken charges:
               1
     1  C   -0.297828
     2  C   -0.299484
     3  C   -0.475612
     4  H    0.150862
     5  H    0.147036
     6  H    0.153285
     7  H    0.150337
     8  H    0.153966
     9  H    0.155937
    10  H    0.160542
    11  C   -0.297578
    12  C   -0.301498
    13  C   -0.469101
    14  H    0.151970
    15  H    0.145021
    16  H    0.153282
    17  H    0.148422
    18  H    0.146118
    19  H    0.160844
    20  H    0.160249
    21  C   -0.170359
    22  C   -0.220303
    23  C   -0.166185
    24  C    0.157849
    25  C   -0.171421
    26  C   -0.218866
    27  H    0.225539
    28  H    0.222963
    29  H    0.276309
    30  H    0.275655
    31  H    0.223344
    32  N    0.488633
    33  O   -0.460791
    34  O   -0.459137
 Sum of Mulliken charges =  -0.00000

 Dipole moment (field-independent basis, Debye):
    X=              1.3584    Y=              4.9374    Z=              0.0226  Tot=              5.1209
 Quadrupole moment (field-independent basis, Debye-Ang):
   XX=           -102.5618   YY=            -93.9781   ZZ=            -92.0580
   XY=            -16.4538   XZ=              2.8564   YZ=              0.3940

 Normal termination of Gaussian 16 at Thu May  6 13:56:18 2021.
