 Gaussian 16, Revision A.03,
 Gaussian 16:  EM64L-G16RevA.03 25-Dec-2016

 -------------
 #p 6-31g* mp2
 -------------

 ------------------------------------------------------
 Input file generated by CHIRIPA (05-May-2021 14:53:14)
 ------------------------------------------------------
 Symbolic Z-matrix:
 Charge =  0 Multiplicity = 1

                         Standard orientation:
 ---------------------------------------------------------------------
 Center     Atomic      Atomic             Coordinates (Angstroms)
 Number     Number       Type             X           Y           Z
 ---------------------------------------------------------------------
      1          6           0        3.878816   -0.023193    0.431051
      2          6           0        3.068135   -1.114172    1.131440
      3          6           0        1.666331   -0.647974    1.525644
      4          1           0        3.953990    0.850670    1.092609
      5          1           0        3.336331    0.308850   -0.464970
      6          1           0        3.612645   -1.445031    2.025116
      7          1           0        2.995045   -1.985611    0.468214
      8          1           0        1.101030   -0.336544    0.641310
      9          1           0        1.722139    0.207107    2.207058
     10          1           0        1.104263   -1.443446    2.024808
     11          6           0        5.282461   -0.474091    0.030804
     12          6           0        6.093142    0.616889   -0.669585
     13          6           0        7.494947    0.150690   -1.063789
     14          1           0        5.824946   -0.806133    0.926825
     15          1           0        5.207288   -1.347953   -0.630754
     16          1           0        6.166232    1.488327   -0.006359
     17          1           0        5.548632    0.947748   -1.563261
     18          1           0        7.439138   -0.704390   -1.745202
     19          1           0        8.060247   -0.160739   -0.179454
     20          1           0        8.057015    0.946162   -1.562953
     21          6           0       -2.251842    2.322762    0.093481
     22          6           0       -1.600117    1.128602   -0.231721
     23          6           0       -2.325160   -0.056755   -0.385951
     24          6           0       -3.706893   -0.011525   -0.206891
     25          6           0       -4.385025    1.162464    0.117415
     26          6           0       -3.639771    2.335858    0.266706
     27          1           0       -1.680761    3.238929    0.211373
     28          1           0       -0.522336    1.115454   -0.366848
     29          1           0       -1.846031   -0.995159   -0.637447
     30          1           0       -5.460479    1.144206    0.245811
     31          1           0       -4.148573    3.261799    0.519291
     32          7           0       -4.485162   -1.260078   -0.367553
     33          8           0       -5.701569   -1.193751   -0.204477
     34          8           0       -3.864027   -2.281378   -0.653514
 ---------------------------------------------------------------------

 SCF Done:  E(RHF) =  -669.535348530     A.U. after   15 cycles
 E2 =    -0.2090986797D+01 EUMP2 =    -0.67162633532767D+03

 The electronic state is 1-A.
 Alpha  occ. eigenvalues --  -20.60726 -20.60721 -15.85779 -11.31136 -11.27708
 Alpha  occ. eigenvalues --  -11.27697 -11.27444 -11.26724 -11.26690 -11.22191
 Alpha  occ. eigenvalues --  -11.22016 -11.21990 -11.21867 -11.21826 -11.21400
 Alpha  occ. eigenvalues --   -1.59802  -1.39355  -1.19308  -1.08960  -1.08705
 Alpha  occ. eigenvalues --   -1.04713  -1.04059  -0.96524  -0.95541  -0.87544
 Alpha  occ. eigenvalues --   -0.86109  -0.82378  -0.80126  -0.78767  -0.77423
 Alpha  occ. eigenvalues --   -0.71998  -0.71125  -0.70418  -0.65598  -0.64962
 Alpha  occ. eigenvalues --   -0.64732  -0.62118  -0.61423  -0.59880  -0.58122
 Alpha  occ. eigenvalues --   -0.55840  -0.55207  -0.53219  -0.53103  -0.52994
 Alpha  occ. eigenvalues --   -0.52680  -0.50462  -0.48761  -0.48753  -0.48428
 Alpha  occ. eigenvalues --   -0.47153  -0.46308  -0.46224  -0.44763  -0.44303
 Alpha  occ. eigenvalues --   -0.37288  -0.36301
 Alpha virt. eigenvalues --    0.05104   0.11331   0.16548   0.20066   0.22548
 Alpha virt. eigenvalues --    0.23779   0.25365   0.26475   0.27145   0.28297
 Alpha virt. eigenvalues --    0.28844   0.30181   0.31249   0.31536   0.32250

 Mulliken charges:
               1
     1  C   -0.298066
     2  C   -0.300241
     3  C   -0.477554
     4  H    0.149268
     5  H    0.144929
     6  H    0.155402
     7  H    0.154734
     8  H    0.144228
     9  H    0.156134
    10  H    0.167137
    11  C   -0.298661
    12  C   -0.299906
    13  C   -0.476012
    14  H    0.151242
    15  H    0.151330
    16  H    0.151690
    17  H    0.151275
    18  H    0.156207
    19  H    0.156050
    20  H    0.161019
    21  C   -0.171566
    22  C   -0.219200
    23  C   -0.171412
    24  C    0.158268
    25  C   -0.171078
    26  C   -0.218576
    27  H    0.225694
    28  H    0.226796
    29  H    0.275337
    30  H    0.275414
    31  H    0.223176
    32  N    0.488138
    33  O   -0.460655
    34  O   -0.460540
 Sum of Mulliken charges =  -0.00000

 Dipole moment (field-independent basis, Debye):
    X=              2.8948    Y=              4.3518    Z=              0.6335  Tot=              5.2649
 Quadrupole moment (field-independent basis, Debye-Ang):
   XX=           -112.1283   YY=            -93.9418   ZZ=            -94.8102
   XY=            -18.7883   XZ=             -2.9094   YZ=             -0.1582

 Normal termination of Gaussian 16 at Thu May  6 02:37:21 2021.
