 Gaussian 16, Revision A.03,
 Gaussian 16:  EM64L-G16RevA.03 25-Dec-2016

 -------------
 #p 6-31g* mp2
 -------------

 ------------------------------------------------------
 Input file generated by CHIRIPA (05-May-2021 14:53:13)
 ------------------------------------------------------
 Symbolic Z-matrix:
 Charge =  0 Multiplicity = 1

                         Standard orientation:
 ---------------------------------------------------------------------
 Center     Atomic      Atomic             Coordinates (Angstroms)
 Number     Number       Type             X           Y           Z
 ---------------------------------------------------------------------
      1          6           0        3.695112    1.205693   -0.278787
      2          6           0        2.371174    1.487141    0.432522
      3          6           0        1.768910    2.838744    0.047501
      4          1           0        4.408454    2.007181   -0.042768
      5          1           0        3.534236    1.240359   -1.365208
      6          1           0        2.534211    1.450587    1.517279
      7          1           0        1.660963    0.684789    0.194936
      8          1           0        1.577843    2.882571   -1.029612
      9          1           0        2.456053    3.652720    0.300244
     10          1           0        0.822974    3.019519    0.567487
     11          6           0        4.309578   -0.141836    0.095817
     12          6           0        5.633516   -0.423284   -0.615492
     13          6           0        6.235780   -1.774888   -0.230471
     14          1           0        4.470455   -0.176502    1.182238
     15          1           0        3.596237   -0.943325   -0.140202
     16          1           0        6.343727    0.379068   -0.377906
     17          1           0        5.470479   -0.386730   -1.700249
     18          1           0        5.548637   -2.588864   -0.483214
     19          1           0        6.426847   -1.818715    0.846642
     20          1           0        7.181716   -1.955662   -0.750457
     21          6           0       -1.152314   -1.869452    0.665967
     22          6           0       -2.274754   -2.431402    0.048827
     23          6           0       -3.374499   -1.635392   -0.285054
     24          6           0       -3.317721   -0.275013    0.014000
     25          6           0       -2.213847    0.314366    0.628315
     26          6           0       -1.125490   -0.500774    0.953235
     27          1           0       -0.302428   -2.495242    0.921854
     28          1           0       -2.298364   -3.494033   -0.175456
     29          1           0       -4.256196   -2.044412   -0.763312
     30          1           0       -2.219599    1.376833    0.839378
     31          1           0       -0.255124   -0.061628    1.432462
     32          7           0       -4.475944    0.577813   -0.334723
     33          8           0       -4.401197    1.773621   -0.060691
     34          8           0       -5.436577    0.034302   -0.875480
 ---------------------------------------------------------------------

 SCF Done:  E(RHF) =  -669.535493439     A.U. after   15 cycles
 E2 =    -0.2091510121D+01 EUMP2 =    -0.67162700356015D+03

 The electronic state is 1-A.
 Alpha  occ. eigenvalues --  -20.60753 -20.60748 -15.85806 -11.31176 -11.27749
 Alpha  occ. eigenvalues --  -11.27738 -11.27486 -11.26763 -11.26704 -11.22459
 Alpha  occ. eigenvalues --  -11.22169 -11.22095 -11.22037 -11.21759 -11.21601
 Alpha  occ. eigenvalues --   -1.59828  -1.39381  -1.19348  -1.09126  -1.08741
 Alpha  occ. eigenvalues --   -1.04752  -1.04204  -0.96628  -0.95576  -0.87640
 Alpha  occ. eigenvalues --   -0.86149  -0.82409  -0.80296  -0.78958  -0.77448
 Alpha  occ. eigenvalues --   -0.72024  -0.71151  -0.70455  -0.65768  -0.64998
 Alpha  occ. eigenvalues --   -0.64752  -0.62153  -0.61554  -0.60000  -0.58254
 Alpha  occ. eigenvalues --   -0.55896  -0.55246  -0.53326  -0.53078  -0.53063
 Alpha  occ. eigenvalues --   -0.52843  -0.50550  -0.48805  -0.48779  -0.48563
 Alpha  occ. eigenvalues --   -0.47305  -0.46476  -0.46395  -0.44786  -0.44457
 Alpha  occ. eigenvalues --   -0.37326  -0.36339
 Alpha virt. eigenvalues --    0.05075   0.11193   0.16517   0.20184   0.22455
 Alpha virt. eigenvalues --    0.23661   0.25797   0.25859   0.26465   0.28529
 Alpha virt. eigenvalues --    0.28736   0.30191   0.30762   0.31286   0.32424

 Mulliken charges:
               1
     1  C   -0.297873
     2  C   -0.307577
     3  C   -0.475069
     4  H    0.152657
     5  H    0.152686
     6  H    0.149877
     7  H    0.148891
     8  H    0.160375
     9  H    0.159327
    10  H    0.156378
    11  C   -0.298285
    12  C   -0.300147
    13  C   -0.475947
    14  H    0.149103
    15  H    0.145431
    16  H    0.153894
    17  H    0.153584
    18  H    0.153838
    19  H    0.155355
    20  H    0.162484
    21  C   -0.172961
    22  C   -0.218431
    23  C   -0.170896
    24  C    0.158632
    25  C   -0.172816
    26  C   -0.221162
    27  H    0.225899
    28  H    0.223311
    29  H    0.275568
    30  H    0.275723
    31  H    0.230921
    32  N    0.488096
    33  O   -0.460331
    34  O   -0.460534
 Sum of Mulliken charges =  -0.00000

 Dipole moment (field-independent basis, Debye):
    X=              4.2311    Y=             -2.9431    Z=              1.1618  Tot=              5.2833
 Quadrupole moment (field-independent basis, Debye-Ang):
   XX=           -120.7182   YY=            -90.5824   ZZ=            -94.2260
   XY=             12.0622   XZ=             -2.9102   YZ=              1.7518

 Normal termination of Gaussian 16 at Thu May  6 13:43:28 2021.
