 Gaussian 16, Revision A.03,
 Gaussian 16:  EM64L-G16RevA.03 25-Dec-2016

 -------------
 #p 6-31g* mp2
 -------------

 ------------------------------------------------------
 Input file generated by CHIRIPA (05-May-2021 14:51:12)
 ------------------------------------------------------
 Symbolic Z-matrix:
 Charge =  0 Multiplicity = 1

                         Standard orientation:
 ---------------------------------------------------------------------
 Center     Atomic      Atomic             Coordinates (Angstroms)
 Number     Number       Type             X           Y           Z
 ---------------------------------------------------------------------
      1          6           0       -4.121810    0.275863    0.097918
      2          6           0       -3.970373    1.782536   -0.114185
      3          6           0       -5.258282    2.553053    0.178026
      4          1           0       -4.929259   -0.099266   -0.545705
      5          1           0       -4.435364    0.088197    1.134191
      6          1           0       -3.655858    1.967224   -1.149360
      7          1           0       -3.163063    2.154089    0.529876
      8          1           0       -5.572929    2.398251    1.215155
      9          1           0       -6.068523    2.210324   -0.473623
     10          1           0       -5.127553    3.628137    0.020027
     11          6           0       -2.842691   -0.508075   -0.190220
     12          6           0       -2.994129   -2.014748    0.021883
     13          6           0       -1.706220   -2.785264   -0.270328
     14          1           0       -2.529137   -0.320408   -1.226492
     15          1           0       -2.035243   -0.132946    0.453403
     16          1           0       -3.801439   -2.386301   -0.622178
     17          1           0       -3.308644   -2.199436    1.057058
     18          1           0       -0.895978   -2.442536    0.381321
     19          1           0       -1.391573   -2.630462   -1.307456
     20          1           0       -1.836949   -3.860349   -0.112329
     21          6           0        3.131135   -0.459911    0.404417
     22          6           0        3.225795   -1.788610   -0.346306
     23          6           0        2.518602   -2.931332    0.382982
     24          1           0        3.564247   -0.580742    1.406794
     25          1           0        2.072592   -0.203676    0.550107
     26          1           0        4.283846   -2.041573   -0.491753
     27          1           0        2.792581   -1.664550   -1.347081
     28          1           0        1.455679   -2.704705    0.515027
     29          1           0        2.955415   -3.083870    1.375215
     30          1           0        2.598692   -3.871731   -0.171179
     31          6           0        3.833367    0.692123   -0.312115
     32          6           0        3.738706    2.020822    0.438607
     33          6           0        4.445900    3.163543   -0.290679
     34          1           0        4.891910    0.435888   -0.457806
     35          1           0        3.400255    0.812953   -1.314492
     36          1           0        4.171921    1.896762    1.439382
     37          1           0        2.680656    2.273785    0.584055
     38          1           0        4.009086    3.316082   -1.282912
     39          1           0        5.508823    2.936917   -0.422725
     40          1           0        4.365810    4.103944    0.263481
 ---------------------------------------------------------------------

 SCF Done:  E(RHF) =  -470.733254414     A.U. after   11 cycles
 E2 =    -0.1582439127D+01 EUMP2 =    -0.47231569354058D+03

 The electronic state is 1-A.
 Alpha  occ. eigenvalues --  -11.21636 -11.21631 -11.21587 -11.21549 -11.21445
 Alpha  occ. eigenvalues --  -11.21384 -11.21381 -11.21322 -11.21107 -11.21093
 Alpha  occ. eigenvalues --  -11.21059 -11.20971  -1.08467  -1.08400  -1.03568
 Alpha  occ. eigenvalues --   -1.03489  -0.96029  -0.95928  -0.87060  -0.86932
 Alpha  occ. eigenvalues --   -0.79656  -0.79529  -0.78285  -0.78211  -0.65109
 Alpha  occ. eigenvalues --   -0.65022  -0.61028  -0.60840  -0.59382  -0.59307
 Alpha  occ. eigenvalues --   -0.57669  -0.57524  -0.55435  -0.55123  -0.52717
 Alpha  occ. eigenvalues --   -0.52626  -0.52529  -0.52281  -0.50102  -0.49742
 Alpha  occ. eigenvalues --   -0.48026  -0.47792  -0.46744  -0.46487  -0.45862
 Alpha  occ. eigenvalues --   -0.45761  -0.45731  -0.45601  -0.43819  -0.43749
 Alpha virt. eigenvalues --    0.21682   0.23071   0.23584   0.24782   0.25831
 Alpha virt. eigenvalues --    0.26783   0.27112   0.27389   0.27983   0.28912
 Alpha virt. eigenvalues --    0.30286   0.31593   0.31790   0.31932   0.32017

 Mulliken charges:
               1
     1  C   -0.298295
     2  C   -0.299692
     3  C   -0.475731
     4  H    0.149813
     5  H    0.149720
     6  H    0.151866
     7  H    0.151883
     8  H    0.155285
     9  H    0.155244
    10  H    0.160336
    11  C   -0.298337
    12  C   -0.299578
    13  C   -0.479936
    14  H    0.149412
    15  H    0.149089
    16  H    0.152136
    17  H    0.152187
    18  H    0.158797
    19  H    0.155283
    20  H    0.161181
    21  C   -0.298291
    22  C   -0.299089
    23  C   -0.482328
    24  H    0.149452
    25  H    0.148895
    26  H    0.151621
    27  H    0.152011
    28  H    0.162480
    29  H    0.154394
    30  H    0.160290
    31  C   -0.298244
    32  C   -0.299644
    33  C   -0.475685
    34  H    0.149516
    35  H    0.149747
    36  H    0.151817
    37  H    0.151867
    38  H    0.155208
    39  H    0.155159
    40  H    0.160162
 Sum of Mulliken charges =  -0.00000

 Dipole moment (field-independent basis, Debye):
    X=             -0.0330    Y=             -0.0131    Z=             -0.0058  Tot=              0.0360
 Quadrupole moment (field-independent basis, Debye-Ang):
   XX=            -84.9259   YY=            -86.0516   ZZ=            -83.7681
   XY=              0.0489   XZ=              1.0396   YZ=              0.2643

 Normal termination of Gaussian 16 at Wed May  5 21:30:29 2021.
