 Gaussian 16, Revision A.03,
 Gaussian 16:  EM64L-G16RevA.03 25-Dec-2016

 -------------
 #p 6-31g* mp2
 -------------

 ------------------------------------------------------
 Input file generated by CHIRIPA (05-May-2021 14:55:20)
 ------------------------------------------------------
 Symbolic Z-matrix:
 Charge =  0 Multiplicity = 1

                         Standard orientation:
 ---------------------------------------------------------------------
 Center     Atomic      Atomic             Coordinates (Angstroms)
 Number     Number       Type             X           Y           Z
 ---------------------------------------------------------------------
      1          6           0        2.309461    2.618387    0.769459
      2          6           0        1.817430    1.496947    1.445327
      3          6           0        2.138400    0.207905    1.009555
      4          6           0        2.957609    0.076425   -0.110667
      5          6           0        3.463403    1.174127   -0.805299
      6          6           0        3.129432    2.453689   -0.351721
      7          1           0        2.055074    3.616064    1.114893
      8          1           0        1.180421    1.621838    2.316342
      9          1           0        1.771224   -0.677586    1.514041
     10          1           0        4.096209    1.017845   -1.670487
     11          1           0        3.512990    3.322799   -0.878574
     12          7           0        3.304288   -1.283207   -0.581425
     13          8           0        4.027866   -1.372207   -1.570945
     14          8           0        2.845872   -2.234143    0.048030
     15          6           0       -2.954480   -0.421666    0.127824
     16          6           0       -2.477806   -1.734551    0.749999
     17          6           0       -0.958851   -1.793547    0.914581
     18          1           0       -2.472836   -0.290949   -0.850888
     19          1           0       -2.619904    0.416083    0.755224
     20          1           0       -2.814366   -2.569655    0.122348
     21          1           0       -2.960786   -1.862251    1.727259
     22          1           0       -0.609233   -0.980002    1.558409
     23          1           0       -0.461980   -1.691426   -0.055622
     24          1           0       -0.639894   -2.740522    1.361082
     25          6           0       -4.470731   -0.347637   -0.043138
     26          6           0       -4.947404    0.965248   -0.665312
     27          6           0       -6.466359    1.024243   -0.829894
     28          1           0       -4.805306   -1.185387   -0.670538
     29          1           0       -4.952373   -0.478355    0.935575
     30          1           0       -4.464424    1.092947   -1.642573
     31          1           0       -4.610845    1.800350   -0.037661
     32          1           0       -6.963230    0.922122    0.140308
     33          1           0       -6.815977    0.210699   -1.473722
     34          1           0       -6.785316    1.971218   -1.276396
 ---------------------------------------------------------------------

 SCF Done:  E(RHF) =  -669.534971619     A.U. after   15 cycles
 E2 =    -0.2092059595D+01 EUMP2 =    -0.67162703121332D+03

 The electronic state is 1-A.
 Alpha  occ. eigenvalues --  -20.60747 -20.60735 -15.85786 -11.31111 -11.27716
 Alpha  occ. eigenvalues --  -11.27645 -11.27463 -11.26714 -11.26701 -11.21759
 Alpha  occ. eigenvalues --  -11.21666 -11.21540 -11.21479 -11.21205 -11.21125
 Alpha  occ. eigenvalues --   -1.59813  -1.39366  -1.19305  -1.08707  -1.08556
 Alpha  occ. eigenvalues --   -1.04711  -1.03642  -0.96106  -0.95538  -0.87132
 Alpha  occ. eigenvalues --   -0.86096  -0.82379  -0.79729  -0.78381  -0.77408
 Alpha  occ. eigenvalues --   -0.72006  -0.71134  -0.70424  -0.65194  -0.64958
 Alpha  occ. eigenvalues --   -0.64719  -0.62094  -0.61029  -0.59446  -0.57703
 Alpha  occ. eigenvalues --   -0.55420  -0.55200  -0.53120  -0.52930  -0.52705
 Alpha  occ. eigenvalues --   -0.52355  -0.50050  -0.48765  -0.48755  -0.48016
 Alpha  occ. eigenvalues --   -0.46747  -0.45915  -0.45843  -0.44758  -0.43884
 Alpha  occ. eigenvalues --   -0.37293  -0.36275
 Alpha virt. eigenvalues --    0.05088   0.11319   0.16523   0.21000   0.22752
 Alpha virt. eigenvalues --    0.24153   0.25868   0.26737   0.27419   0.27966
 Alpha virt. eigenvalues --    0.28970   0.30145   0.31631   0.31686   0.32234

 Mulliken charges:
               1
     1  C   -0.170277
     2  C   -0.220559
     3  C   -0.168530
     4  C    0.155195
     5  C   -0.170861
     6  C   -0.219069
     7  H    0.225301
     8  H    0.222586
     9  H    0.282357
    10  H    0.275266
    11  H    0.223090
    12  N    0.488117
    13  O   -0.460706
    14  O   -0.460320
    15  C   -0.297470
    16  C   -0.301381
    17  C   -0.475826
    18  H    0.151323
    19  H    0.144512
    20  H    0.155490
    21  H    0.150551
    22  H    0.138920
    23  H    0.163409
    24  H    0.168450
    25  C   -0.298369
    26  C   -0.299387
    27  C   -0.475728
    28  H    0.151257
    29  H    0.149238
    30  H    0.152451
    31  H    0.149674
    32  H    0.155058
    33  H    0.156263
    34  H    0.159973
 Sum of Mulliken charges =  -0.00000

 Dipole moment (field-independent basis, Debye):
    X=             -1.2407    Y=              4.6746    Z=              1.5966  Tot=              5.0932
 Quadrupole moment (field-independent basis, Debye-Ang):
   XX=           -102.4118   YY=            -93.3825   ZZ=            -92.0269
   XY=             15.7319   XZ=              2.6147   YZ=             -1.6498

 Normal termination of Gaussian 16 at Thu May  6 06:07:21 2021.
