 Gaussian 16, Revision A.03,
 Gaussian 16:  EM64L-G16RevA.03 25-Dec-2016

 -------------
 #p 6-31g* mp2
 -------------

 ------------------------------------------------------
 Input file generated by CHIRIPA (05-May-2021 14:57:22)
 ------------------------------------------------------
 Symbolic Z-matrix:
 Charge =  0 Multiplicity = 1

                         Standard orientation:
 ---------------------------------------------------------------------
 Center     Atomic      Atomic             Coordinates (Angstroms)
 Number     Number       Type             X           Y           Z
 ---------------------------------------------------------------------
      1          6           0        3.919501   -2.158647    0.676729
      2          6           0        3.005562   -1.390568    1.405627
      3          6           0        2.609202   -0.131651    0.944569
      4          6           0        3.149106    0.330358   -0.254740
      5          6           0        4.061539   -0.411207   -1.003631
      6          6           0        4.443649   -1.667381   -0.523457
      7          1           0        4.221868   -3.135539    1.042315
      8          1           0        2.596867   -1.769553    2.338034
      9          1           0        1.903296    0.483874    1.488852
     10          1           0        4.451714   -0.006662   -1.929658
     11          1           0        5.153597   -2.261689   -1.091626
     12          7           0        2.737040    1.661665   -0.752960
     13          8           0        3.227245    2.046109   -1.812459
     14          8           0        1.931661    2.295492   -0.074531
     15          6           0       -4.739757   -1.034410   -1.614661
     16          6           0       -5.027758    0.197242   -1.017491
     17          6           0       -4.191071    0.718587   -0.026178
     18          6           0       -3.069806   -0.021665    0.345416
     19          6           0       -2.756057   -1.251635   -0.230799
     20          6           0       -3.606823   -1.753649   -1.220105
     21          1           0       -5.395185   -1.431894   -2.383958
     22          1           0       -5.906916    0.758001   -1.321920
     23          1           0       -4.390378    1.669578    0.452686
     24          1           0       -1.872354   -1.787574    0.093637
     25          1           0       -3.380679   -2.710429   -1.682140
     26          7           0       -2.176591    0.520027    1.393812
     27          8           0       -1.194931   -0.151600    1.703485
     28          8           0       -2.475063    1.605974    1.886021
 ---------------------------------------------------------------------

 SCF Done:  E(RHF) =  -868.339074940     A.U. after   16 cycles
 E2 =    -0.2598907449D+01 EUMP2 =    -0.87093798238863D+03

 The electronic state is 1-A.
 Alpha  occ. eigenvalues --  -20.60889 -20.60823 -20.60077 -20.60038 -15.85899
 Alpha  occ. eigenvalues --  -15.85109 -11.31171 -11.30421 -11.27760 -11.27706
 Alpha  occ. eigenvalues --  -11.27470 -11.27100 -11.26837 -11.26830 -11.26753
 Alpha  occ. eigenvalues --  -11.26715 -11.26119 -11.25947  -1.59905  -1.59144
 Alpha  occ. eigenvalues --   -1.39470  -1.38692  -1.19335  -1.18624  -1.08748
 Alpha  occ. eigenvalues --   -1.08050  -1.04732  -1.03998  -0.95602  -0.94872
 Alpha  occ. eigenvalues --   -0.86136  -0.85411  -0.82447  -0.81689  -0.77499
 Alpha  occ. eigenvalues --   -0.76720  -0.72145  -0.71329  -0.71195  -0.70473
 Alpha  occ. eigenvalues --   -0.70456  -0.69733  -0.65001  -0.64743  -0.64272
 Alpha  occ. eigenvalues --   -0.64003  -0.62086  -0.61308  -0.55244  -0.54561
 Alpha  occ. eigenvalues --   -0.53056  -0.52831  -0.52375  -0.52077  -0.48897
 Alpha  occ. eigenvalues --   -0.48858  -0.48103  -0.48067  -0.44893  -0.44108
 Alpha  occ. eigenvalues --   -0.37307  -0.36665  -0.36327  -0.35602
 Alpha virt. eigenvalues --    0.05027   0.05785   0.11329   0.12035   0.16532
 Alpha virt. eigenvalues --    0.17249   0.21429   0.22181   0.27344   0.28036
 Alpha virt. eigenvalues --    0.28371   0.29137   0.30997   0.31686   0.32538

 Mulliken charges:
               1
     1  C   -0.172232
     2  C   -0.221954
     3  C   -0.170239
     4  C    0.154468
     5  C   -0.172427
     6  C   -0.220266
     7  H    0.222195
     8  H    0.226778
     9  H    0.293482
    10  H    0.272490
    11  H    0.219547
    12  N    0.487159
    13  O   -0.465815
    14  O   -0.455177
    15  C   -0.170299
    16  C   -0.218330
    17  C   -0.169346
    18  C    0.159986
    19  C   -0.170254
    20  C   -0.218284
    21  H    0.225686
    22  H    0.224199
    23  H    0.277108
    24  H    0.272604
    25  H    0.222426
    26  N    0.491672
    27  O   -0.471191
    28  O   -0.453987
 Sum of Mulliken charges =  -0.00000

 Dipole moment (field-independent basis, Debye):
    X=             -2.0462    Y=             -6.4212    Z=             -1.7751  Tot=              6.9692
 Quadrupole moment (field-independent basis, Debye-Ang):
   XX=            -74.4874   YY=           -105.6171   ZZ=           -106.1217
   XY=            -11.6080   XZ=             13.2117   YZ=              2.3647

 Normal termination of Gaussian 16 at Fri May  7 07:56:10 2021.
