 Gaussian 16, Revision A.03,
 Gaussian 16:  EM64L-G16RevA.03 25-Dec-2016

 -------------
 #p 6-31g* mp2
 -------------

 ------------------------------------------------------
 Input file generated by CHIRIPA (05-May-2021 14:51:13)
 ------------------------------------------------------
 Symbolic Z-matrix:
 Charge =  0 Multiplicity = 1

                         Standard orientation:
 ---------------------------------------------------------------------
 Center     Atomic      Atomic             Coordinates (Angstroms)
 Number     Number       Type             X           Y           Z
 ---------------------------------------------------------------------
      1          6           0       -5.541789    0.082294   -0.257467
      2          6           0       -6.573073   -0.489777    0.715761
      3          6           0       -7.944971   -0.692230    0.071786
      4          1           0       -5.909261    1.040415   -0.649785
      5          1           0       -5.447300   -0.592761   -1.119307
      6          1           0       -6.664576    0.185456    1.576170
      7          1           0       -6.203017   -1.446555    1.105954
      8          1           0       -7.875022   -1.382949   -0.774745
      9          1           0       -8.339204    0.258334   -0.301857
     10          1           0       -8.666820   -1.101926    0.785188
     11          6           0       -4.165307    0.290333    0.371616
     12          6           0       -3.134023    0.862404   -0.601612
     13          6           0       -1.762126    1.064857    0.042363
     14          1           0       -4.259797    0.965388    1.233456
     15          1           0       -3.797835   -0.667788    0.763934
     16          1           0       -3.504080    1.819182   -0.991805
     17          1           0       -3.042520    0.187171   -1.462021
     18          1           0       -1.367893    0.114293    0.416006
     19          1           0       -1.832074    1.755577    0.888894
     20          1           0       -1.040276    1.474553   -0.671039
     21          6           0        4.248388   -0.604888   -0.262035
     22          6           0        2.936142    0.179873   -0.249930
     23          6           0        1.734619   -0.671090   -0.662238
     24          1           0        4.414624   -1.013468   -1.268202
     25          1           0        4.158634   -1.466293    0.414219
     26          1           0        3.028821    1.040324   -0.924949
     27          1           0        2.773106    0.586794    0.756276
     28          1           0        1.613905   -1.521651    0.016420
     29          1           0        1.871073   -1.065544   -1.674359
     30          1           0        0.807076   -0.090332   -0.646652
     31          6           0        5.458709    0.232260    0.147885
     32          6           0        6.770955   -0.552500    0.135780
     33          6           0        7.972477    0.298463    0.548090
     34          1           0        5.548462    1.093667   -0.528368
     35          1           0        5.292473    0.640841    1.154053
     36          1           0        6.933990   -0.959421   -0.870426
     37          1           0        6.678275   -1.412950    0.810801
     38          1           0        7.836024    0.692917    1.560210
     39          1           0        8.093191    1.149023   -0.130568
     40          1           0        8.900021   -0.282295    0.532503
 ---------------------------------------------------------------------

 SCF Done:  E(RHF) =  -470.732618363     A.U. after   11 cycles
 E2 =    -0.1582574189D+01 EUMP2 =    -0.47231519255163D+03

 The electronic state is 1-A.
 Alpha  occ. eigenvalues --  -11.21624 -11.21608 -11.21565 -11.21513 -11.21418
 Alpha  occ. eigenvalues --  -11.21358 -11.21348 -11.21286 -11.21101 -11.21075
 Alpha  occ. eigenvalues --  -11.21043 -11.20871  -1.08446  -1.08367  -1.03562
 Alpha  occ. eigenvalues --   -1.03450  -0.96048  -0.95872  -0.87103  -0.86859
 Alpha  occ. eigenvalues --   -0.79654  -0.79492  -0.78256  -0.78183  -0.65078
 Alpha  occ. eigenvalues --   -0.64999  -0.60987  -0.60854  -0.59581  -0.59127
 Alpha  occ. eigenvalues --   -0.57646  -0.57497  -0.55317  -0.55181  -0.53005
 Alpha  occ. eigenvalues --   -0.52460  -0.52409  -0.52176  -0.49934  -0.49826
 Alpha  occ. eigenvalues --   -0.47932  -0.47833  -0.46640  -0.46554  -0.45798
 Alpha  occ. eigenvalues --   -0.45728  -0.45716  -0.45652  -0.43924  -0.43539
 Alpha virt. eigenvalues --    0.22429   0.22997   0.23636   0.24904   0.26602
 Alpha virt. eigenvalues --    0.26710   0.27168   0.27435   0.27601   0.28975
 Alpha virt. eigenvalues --    0.30659   0.31322   0.31480   0.31815   0.32060

 Mulliken charges:
               1
     1  C   -0.298361
     2  C   -0.299674
     3  C   -0.475718
     4  H    0.149674
     5  H    0.149675
     6  H    0.151916
     7  H    0.152001
     8  H    0.155232
     9  H    0.155178
    10  H    0.160278
    11  C   -0.298830
    12  C   -0.299618
    13  C   -0.480811
    14  H    0.149547
    15  H    0.150089
    16  H    0.152042
    17  H    0.152619
    18  H    0.159117
    19  H    0.155690
    20  H    0.161723
    21  C   -0.298167
    22  C   -0.298696
    23  C   -0.485924
    24  H    0.149384
    25  H    0.149277
    26  H    0.151082
    27  H    0.151869
    28  H    0.153365
    29  H    0.153685
    30  H    0.172876
    31  C   -0.298177
    32  C   -0.299577
    33  C   -0.475659
    34  H    0.149344
    35  H    0.149542
    36  H    0.151835
    37  H    0.151831
    38  H    0.155124
    39  H    0.155109
    40  H    0.160111
 Sum of Mulliken charges =  -0.00000

 Dipole moment (field-independent basis, Debye):
    X=             -0.0702    Y=              0.0207    Z=              0.0091  Tot=              0.0737
 Quadrupole moment (field-independent basis, Debye-Ang):
   XX=            -86.9320   YY=            -84.1171   ZZ=            -83.9392
   XY=             -0.8495   XZ=             -0.7985   YZ=             -0.2155

 Normal termination of Gaussian 16 at Wed May  5 23:12:43 2021.
