 Gaussian 16, Revision A.03,
 Gaussian 16:  EM64L-G16RevA.03 25-Dec-2016

 -------------
 #p 6-31g* mp2
 -------------

 ------------------------------------------------------
 Input file generated by CHIRIPA (05-May-2021 14:51:10)
 ------------------------------------------------------
 Symbolic Z-matrix:
 Charge =  0 Multiplicity = 1

                         Standard orientation:
 ---------------------------------------------------------------------
 Center     Atomic      Atomic             Coordinates (Angstroms)
 Number     Number       Type             X           Y           Z
 ---------------------------------------------------------------------
      1          6           0        4.533360   -0.234560    0.188404
      2          6           0        5.404516   -1.154219   -0.667924
      3          6           0        6.341718   -2.027037    0.167323
      4          1           0        5.180904    0.404876    0.803833
      5          1           0        3.943063   -0.844987    0.885774
      6          1           0        5.991969   -0.542327   -1.364417
      7          1           0        4.754825   -1.791408   -1.281526
      8          1           0        5.769338   -2.661717    0.851547
      9          1           0        7.013511   -1.405539    0.768185
     10          1           0        6.955166   -2.676575   -0.464849
     11          6           0        3.591078    0.644256   -0.632275
     12          6           0        2.719921    1.563916    0.224053
     13          6           0        1.782719    2.436733   -0.611193
     14          1           0        4.181374    1.254683   -1.329645
     15          1           0        2.943533    0.004820   -1.247704
     16          1           0        3.369613    2.201104    0.837655
     17          1           0        2.132468    0.952023    0.920547
     18          1           0        1.110926    1.815236   -1.212056
     19          1           0        2.355100    3.071413   -1.295418
     20          1           0        1.169271    3.086271    0.020978
     21          6           0       -4.562120   -0.216409   -0.355471
     22          6           0       -5.950374   -0.709287    0.054172
     23          6           0       -6.939330   -0.726740   -1.111785
     24          1           0       -4.648894    0.793276   -0.779678
     25          1           0       -4.173979   -0.859944   -1.157096
     26          1           0       -6.335199   -0.065852    0.855743
     27          1           0       -5.860259   -1.717840    0.477630
     28          1           0       -6.581119   -1.383701   -1.910964
     29          1           0       -7.058758    0.277673   -1.530703
     30          1           0       -7.925284   -1.082328   -0.796647
     31          6           0       -3.562318   -0.193287    0.799341
     32          6           0       -2.174064    0.299591    0.389699
     33          6           0       -1.185107    0.317043    1.555656
     34          1           0       -3.950458    0.450247    1.600968
     35          1           0       -3.475544   -1.202972    1.223550
     36          1           0       -2.264178    1.308143   -0.033760
     37          1           0       -1.789238   -0.343844   -0.411873
     38          1           0       -1.065680   -0.687370    1.974574
     39          1           0       -1.543318    0.974004    2.354836
     40          1           0       -0.199153    0.672631    1.240518
 ---------------------------------------------------------------------

 SCF Done:  E(RHF) =  -470.733234849     A.U. after   11 cycles
 E2 =    -0.1582754679D+01 EUMP2 =    -0.47231598952754D+03

 The electronic state is 1-A.
 Alpha  occ. eigenvalues --  -11.21608 -11.21602 -11.21600 -11.21598 -11.21408
 Alpha  occ. eigenvalues --  -11.21402 -11.21348 -11.21343 -11.21085 -11.21070
 Alpha  occ. eigenvalues --  -11.21070 -11.21035  -1.08444  -1.08420  -1.03569
 Alpha  occ. eigenvalues --   -1.03498  -0.96028  -0.95936  -0.87008  -0.86988
 Alpha  occ. eigenvalues --   -0.79641  -0.79551  -0.78257  -0.78230  -0.65087
 Alpha  occ. eigenvalues --   -0.65056  -0.61031  -0.60921  -0.59475  -0.59202
 Alpha  occ. eigenvalues --   -0.57685  -0.57484  -0.55272  -0.55256  -0.52719
 Alpha  occ. eigenvalues --   -0.52622  -0.52414  -0.52377  -0.49934  -0.49909
 Alpha  occ. eigenvalues --   -0.47964  -0.47869  -0.46634  -0.46620  -0.45790
 Alpha  occ. eigenvalues --   -0.45786  -0.45711  -0.45704  -0.43805  -0.43726
 Alpha virt. eigenvalues --    0.21116   0.23074   0.23511   0.25307   0.26416
 Alpha virt. eigenvalues --    0.26642   0.27047   0.27367   0.27849   0.29013
 Alpha virt. eigenvalues --    0.30587   0.31174   0.31387   0.31700   0.32172

 Mulliken charges:
               1
     1  C   -0.298502
     2  C   -0.299661
     3  C   -0.475721
     4  H    0.149711
     5  H    0.149892
     6  H    0.151918
     7  H    0.151902
     8  H    0.155228
     9  H    0.155207
    10  H    0.160232
    11  C   -0.297757
    12  C   -0.306231
    13  C   -0.477247
    14  H    0.149609
    15  H    0.149592
    16  H    0.152490
    17  H    0.156416
    18  H    0.156333
    19  H    0.155679
    20  H    0.160726
    21  C   -0.298228
    22  C   -0.299629
    23  C   -0.475701
    24  H    0.149749
    25  H    0.149390
    26  H    0.151948
    27  H    0.151892
    28  H    0.155147
    29  H    0.155218
    30  H    0.160243
    31  C   -0.298515
    32  C   -0.298750
    33  C   -0.485941
    34  H    0.149587
    35  H    0.149520
    36  H    0.152620
    37  H    0.151046
    38  H    0.154432
    39  H    0.155160
    40  H    0.170992
 Sum of Mulliken charges =  -0.00000

 Dipole moment (field-independent basis, Debye):
    X=              0.0159    Y=              0.0149    Z=             -0.0040  Tot=              0.0221
 Quadrupole moment (field-independent basis, Debye-Ang):
   XX=            -85.4336   YY=            -83.7859   ZZ=            -85.5344
   XY=              0.7041   XZ=             -1.0291   YZ=              0.4586

 Normal termination of Gaussian 16 at Wed May  5 18:14:11 2021.
