 Gaussian 16, Revision A.03,
 Gaussian 16:  EM64L-G16RevA.03 25-Dec-2016

 -------------
 #p 6-31g* mp2
 -------------

 ------------------------------------------------------
 Input file generated by CHIRIPA (05-May-2021 14:53:12)
 ------------------------------------------------------
 Symbolic Z-matrix:
 Charge =  0 Multiplicity = 1

                         Standard orientation:
 ---------------------------------------------------------------------
 Center     Atomic      Atomic             Coordinates (Angstroms)
 Number     Number       Type             X           Y           Z
 ---------------------------------------------------------------------
      1          6           0       -3.142010   -0.442578    0.223826
      2          6           0       -2.406044   -1.599516   -0.452808
      3          6           0       -0.911903   -1.619778   -0.128883
      4          1           0       -2.684925    0.506613   -0.087710
      5          1           0       -3.002602   -0.514532    1.311385
      6          1           0       -2.547950   -1.526187   -1.538672
      7          1           0       -2.865057   -2.546053   -0.139774
      8          1           0       -0.752890   -1.716669    0.949972
      9          1           0       -0.433981   -0.691008   -0.456875
     10          1           0       -0.405316   -2.454797   -0.622818
     11          6           0       -4.636614   -0.408896   -0.090420
     12          6           0       -5.372580    0.748042    0.586215
     13          6           0       -6.866721    0.768303    0.262290
     14          1           0       -4.776022   -0.336942   -1.177978
     15          1           0       -5.093699   -1.358087    0.221117
     16          1           0       -4.913567    1.694579    0.273181
     17          1           0       -5.230674    0.674713    1.672079
     18          1           0       -7.344643   -0.160466    0.590281
     19          1           0       -7.025734    0.865195   -0.816565
     20          1           0       -7.373308    1.603322    0.756225
     21          6           0        3.965284   -1.977499    0.360744
     22          6           0        2.986061   -1.780817   -0.618521
     23          6           0        2.465402   -0.505224   -0.855847
     24          6           0        2.948929    0.555940   -0.092025
     25          6           0        3.923921    0.392043    0.890735
     26          6           0        4.430268   -0.892355    1.110924
     27          1           0        4.364185   -2.971830    0.538449
     28          1           0        2.623074   -2.621706   -1.202637
     29          1           0        1.706763   -0.324669   -1.607701
     30          1           0        4.266028    1.249768    1.457030
     31          1           0        5.190687   -1.042135    1.872091
     32          7           0        2.405306    1.911014   -0.334201
     33          8           0        2.847957    2.829450    0.352219
     34          8           0        1.546858    2.029026   -1.205853
 ---------------------------------------------------------------------

 SCF Done:  E(RHF) =  -669.535077216     A.U. after   15 cycles
 E2 =    -0.2092091720D+01 EUMP2 =    -0.67162716893669D+03

 The electronic state is 1-A.
 Alpha  occ. eigenvalues --  -20.60800 -20.60794 -15.85843 -11.31147 -11.27732
 Alpha  occ. eigenvalues --  -11.27711 -11.27471 -11.26730 -11.26715 -11.21633
 Alpha  occ. eigenvalues --  -11.21390 -11.21273 -11.21250 -11.21191 -11.20887
 Alpha  occ. eigenvalues --   -1.59868  -1.39425  -1.19333  -1.08736  -1.08318
 Alpha  occ. eigenvalues --   -1.04735  -1.03472  -0.95948  -0.95573  -0.86974
 Alpha  occ. eigenvalues --   -0.86132  -0.82413  -0.79547  -0.78111  -0.77460
 Alpha  occ. eigenvalues --   -0.72064  -0.71186  -0.70458  -0.64988  -0.64962
 Alpha  occ. eigenvalues --   -0.64730  -0.62122  -0.60847  -0.59323  -0.57542
 Alpha  occ. eigenvalues --   -0.55345  -0.55131  -0.53190  -0.52854  -0.52583
 Alpha  occ. eigenvalues --   -0.52281  -0.49852  -0.48823  -0.48815  -0.47852
 Alpha  occ. eigenvalues --   -0.46550  -0.45661  -0.45563  -0.44825  -0.43727
 Alpha  occ. eigenvalues --   -0.37310  -0.36267
 Alpha virt. eigenvalues --    0.05054   0.11265   0.16513   0.20896   0.23038
 Alpha virt. eigenvalues --    0.24225   0.26533   0.26774   0.27358   0.28074
 Alpha virt. eigenvalues --    0.29181   0.29523   0.31503   0.31934   0.32333

 Mulliken charges:
               1
     1  C   -0.300467
     2  C   -0.299283
     3  C   -0.479583
     4  H    0.157517
     5  H    0.148914
     6  H    0.151855
     7  H    0.150451
     8  H    0.157096
     9  H    0.161450
    10  H    0.149402
    11  C   -0.298312
    12  C   -0.300166
    13  C   -0.475730
    14  H    0.149884
    15  H    0.147958
    16  H    0.155183
    17  H    0.151548
    18  H    0.153991
    19  H    0.155321
    20  H    0.160566
    21  C   -0.170962
    22  C   -0.217865
    23  C   -0.166298
    24  C    0.157370
    25  C   -0.170987
    26  C   -0.218789
    27  H    0.225443
    28  H    0.223349
    29  H    0.276221
    30  H    0.275347
    31  H    0.223162
    32  N    0.488856
    33  O   -0.459866
    34  O   -0.462578
 Sum of Mulliken charges =  -0.00000

 Dipole moment (field-independent basis, Debye):
    X=              1.9168    Y=             -4.6908    Z=              0.8737  Tot=              5.1421
 Quadrupole moment (field-independent basis, Debye-Ang):
   XX=            -83.3653   YY=            -99.8817   ZZ=            -92.1905
   XY=            -11.9488   XZ=              4.6009   YZ=              1.9145

 Normal termination of Gaussian 16 at Thu May  6 16:59:04 2021.
