 Gaussian 16, Revision A.03,
 Gaussian 16:  EM64L-G16RevA.03 25-Dec-2016

 -------------
 #p 6-31g* mp2
 -------------

 ------------------------------------------------------
 Input file generated by CHIRIPA (05-May-2021 14:53:16)
 ------------------------------------------------------
 Symbolic Z-matrix:
 Charge =  0 Multiplicity = 1

                         Standard orientation:
 ---------------------------------------------------------------------
 Center     Atomic      Atomic             Coordinates (Angstroms)
 Number     Number       Type             X           Y           Z
 ---------------------------------------------------------------------
      1          6           0        5.737497   -0.204081    0.083915
      2          6           0        6.681388    0.979717   -0.129811
      3          6           0        8.150205    0.560192   -0.195914
      4          1           0        6.014318   -0.722655    1.012029
      5          1           0        5.876923   -0.927131   -0.731655
      6          1           0        6.539236    1.700970    0.685174
      7          1           0        6.402167    1.495647   -1.057425
      8          1           0        8.313595   -0.141945   -1.019873
      9          1           0        8.451443    0.064545    0.732628
     10          1           0        8.807343    1.421907   -0.349136
     11          6           0        4.265646    0.199312    0.152157
     12          6           0        3.321755   -0.984485    0.365884
     13          6           0        1.852938   -0.564961    0.431987
     14          1           0        4.126220    0.922362    0.967727
     15          1           0        3.988825    0.717886   -0.775957
     16          1           0        3.600977   -1.500415    1.293498
     17          1           0        3.463908   -1.705739   -0.449102
     18          1           0        1.551700   -0.069314   -0.496556
     19          1           0        1.689548    0.137176    1.255945
     20          1           0        1.195800   -1.426676    0.585208
     21          6           0       -6.127501    1.152708    0.243906
     22          6           0       -4.968540    1.910955    0.047963
     23          6           0       -3.733077    1.283966   -0.139296
     24          6           0       -3.692855   -0.109396   -0.124711
     25          6           0       -4.829919   -0.892460    0.068120
     26          6           0       -6.054619   -0.244117    0.253343
     27          1           0       -7.083057    1.648063    0.388581
     28          1           0       -5.022144    2.995902    0.040154
     29          1           0       -2.820287    1.846618   -0.293099
     30          1           0       -4.744918   -1.972361    0.070854
     31          1           0       -6.953052   -0.835534    0.405294
     32          7           0       -2.390622   -0.784466   -0.321875
     33          8           0       -2.381836   -2.013394   -0.304762
     34          8           0       -1.403377   -0.071873   -0.489790
 ---------------------------------------------------------------------

 SCF Done:  E(RHF) =  -669.535690862     A.U. after   15 cycles
 E2 =    -0.2091032354D+01 EUMP2 =    -0.67162672321613D+03

 The electronic state is 1-A.
 Alpha  occ. eigenvalues --  -20.60885 -20.60870 -15.85912 -11.31260 -11.27826
 Alpha  occ. eigenvalues --  -11.27822 -11.27568 -11.26839 -11.26829 -11.20991
 Alpha  occ. eigenvalues --  -11.20608 -11.20568 -11.20394 -11.20255 -11.19166
 Alpha  occ. eigenvalues --   -1.59941  -1.39496  -1.19430  -1.08830  -1.07511
 Alpha  occ. eigenvalues --   -1.04830  -1.02494  -0.95672  -0.94899  -0.86231
 Alpha  occ. eigenvalues --   -0.85907  -0.82500  -0.78595  -0.77552  -0.77276
 Alpha  occ. eigenvalues --   -0.72125  -0.71256  -0.70539  -0.65085  -0.64834
 Alpha  occ. eigenvalues --   -0.64157  -0.62177  -0.59903  -0.58362  -0.56505
 Alpha  occ. eigenvalues --   -0.55335  -0.54207  -0.53162  -0.52923  -0.51574
 Alpha  occ. eigenvalues --   -0.51333  -0.49047  -0.48889  -0.48665  -0.46880
 Alpha  occ. eigenvalues --   -0.45660  -0.44931  -0.44773  -0.44725  -0.42705
 Alpha  occ. eigenvalues --   -0.37411  -0.36433
 Alpha virt. eigenvalues --    0.04974   0.11222   0.16466   0.21355   0.23700
 Alpha virt. eigenvalues --    0.25385   0.27271   0.27507   0.28197   0.28350
 Alpha virt. eigenvalues --    0.29164   0.30925   0.32373   0.32458   0.32637

 Mulliken charges:
               1
     1  C   -0.297221
     2  C   -0.298819
     3  C   -0.475155
     4  H    0.148017
     5  H    0.148692
     6  H    0.150406
     7  H    0.150992
     8  H    0.154659
     9  H    0.154312
    10  H    0.158111
    11  C   -0.296947
    12  C   -0.302306
    13  C   -0.468280
    14  H    0.146409
    15  H    0.148492
    16  H    0.146181
    17  H    0.149888
    18  H    0.164038
    19  H    0.144796
    20  H    0.169698
    21  C   -0.170684
    22  C   -0.218558
    23  C   -0.170887
    24  C    0.157962
    25  C   -0.170666
    26  C   -0.218590
    27  H    0.225841
    28  H    0.223705
    29  H    0.275856
    30  H    0.275754
    31  H    0.223668
    32  N    0.490132
    33  O   -0.460397
    34  O   -0.459098
 Sum of Mulliken charges =  -0.00000

 Dipole moment (field-independent basis, Debye):
    X=             -4.9690    Y=              2.3559    Z=              0.6272  Tot=              5.5349
 Quadrupole moment (field-independent basis, Debye-Ang):
   XX=            -63.1851   YY=            -91.5041   ZZ=            -94.9061
   XY=             -6.0529   XZ=             -2.3178   YZ=             -0.6852

 Normal termination of Gaussian 16 at Thu May  6 10:37:07 2021.
