 Gaussian 16, Revision A.03,
 Gaussian 16:  EM64L-G16RevA.03 25-Dec-2016

 -------------
 #p 6-31g* mp2
 -------------

 ------------------------------------------------------
 Input file generated by CHIRIPA (05-May-2021 14:57:21)
 ------------------------------------------------------
 Symbolic Z-matrix:
 Charge =  0 Multiplicity = 1

                         Standard orientation:
 ---------------------------------------------------------------------
 Center     Atomic      Atomic             Coordinates (Angstroms)
 Number     Number       Type             X           Y           Z
 ---------------------------------------------------------------------
      1          6           0        2.674767   -2.103752   -1.127927
      2          6           0        1.809106   -1.031014   -1.365383
      3          6           0        2.083587    0.233466   -0.835950
      4          6           0        3.237806    0.390313   -0.070139
      5          6           0        4.119764   -0.658861    0.184172
      6          6           0        3.825305   -1.914585   -0.355270
      7          1           0        2.453783   -3.082630   -1.543090
      8          1           0        0.914851   -1.174998   -1.965068
      9          1           0        1.430609    1.081258   -1.004138
     10          1           0        5.003493   -0.484509    0.785873
     11          1           0        4.499390   -2.745873   -0.169219
     12          7           0        3.538962    1.724327    0.495645
     13          8           0        4.562339    1.836489    1.167029
     14          8           0        2.745929    2.632506    0.257010
     15          6           0       -4.707719    1.474616   -0.998788
     16          6           0       -3.628814    0.910867   -1.687753
     17          6           0       -2.780343   -0.001705   -1.053831
     18          6           0       -3.041268   -0.329491    0.275742
     19          6           0       -4.108016    0.215111    0.989009
     20          6           0       -4.943460    1.125554    0.335043
     21          1           0       -5.361772    2.182698   -1.499019
     22          1           0       -3.443325    1.180104   -2.723683
     23          1           0       -1.937864   -0.453209   -1.563528
     24          1           0       -4.267533   -0.072763    2.021046
     25          1           0       -5.780594    1.561791    0.872584
     26          7           0       -2.149924   -1.294463    0.957457
     27          8           0       -2.401233   -1.566793    2.129343
     28          8           0       -1.216858   -1.760207    0.306990
 ---------------------------------------------------------------------

 SCF Done:  E(RHF) =  -868.338027349     A.U. after   16 cycles
 E2 =    -0.2599930361D+01 EUMP2 =    -0.87093795770988D+03

 The electronic state is 1-A.
 Alpha  occ. eigenvalues --  -20.61283 -20.61254 -20.60271 -20.60260 -15.86311
 Alpha  occ. eigenvalues --  -15.85316 -11.31630 -11.30511 -11.28275 -11.28126
 Alpha  occ. eigenvalues --  -11.27865 -11.27204 -11.27129 -11.27069 -11.27045
 Alpha  occ. eigenvalues --  -11.26721 -11.26049 -11.26038  -1.60332  -1.59345
 Alpha  occ. eigenvalues --   -1.39895  -1.38905  -1.19780  -1.18649  -1.09174
 Alpha  occ. eigenvalues --   -1.08069  -1.05183  -1.04044  -0.96029  -0.94943
 Alpha  occ. eigenvalues --   -0.86582  -0.85451  -0.82872  -0.81797  -0.77946
 Alpha  occ. eigenvalues --   -0.76872  -0.72544  -0.71644  -0.71544  -0.70892
 Alpha  occ. eigenvalues --   -0.70660  -0.69768  -0.65440  -0.65188  -0.64317
 Alpha  occ. eigenvalues --   -0.64067  -0.62556  -0.61421  -0.55660  -0.54536
 Alpha  occ. eigenvalues --   -0.53495  -0.53282  -0.52336  -0.52165  -0.49309
 Alpha  occ. eigenvalues --   -0.49271  -0.48306  -0.48282  -0.45309  -0.44350
 Alpha  occ. eigenvalues --   -0.37728  -0.36779  -0.36571  -0.35586
 Alpha virt. eigenvalues --    0.04594   0.05683   0.10865   0.12048   0.16118
 Alpha virt. eigenvalues --    0.17227   0.19701   0.22099   0.25163   0.27350
 Alpha virt. eigenvalues --    0.28940   0.29018   0.30287   0.31306   0.32810

 Mulliken charges:
               1
     1  C   -0.168045
     2  C   -0.200781
     3  C   -0.171779
     4  C    0.158593
     5  C   -0.171473
     6  C   -0.217807
     7  H    0.225772
     8  H    0.218814
     9  H    0.268321
    10  H    0.273392
    11  H    0.221725
    12  N    0.488425
    13  O   -0.461638
    14  O   -0.464177
    15  C   -0.169797
    16  C   -0.217888
    17  C   -0.171947
    18  C    0.159886
    19  C   -0.169517
    20  C   -0.217663
    21  H    0.227817
    22  H    0.223782
    23  H    0.266932
    24  H    0.277421
    25  H    0.225844
    26  N    0.490162
    27  O   -0.456163
    28  O   -0.468212
 Sum of Mulliken charges =  -0.00000

 Dipole moment (field-independent basis, Debye):
    X=             -4.4874    Y=             -1.3970    Z=             -4.2856  Tot=              6.3604
 Quadrupole moment (field-independent basis, Debye-Ang):
   XX=            -87.8784   YY=           -111.3023   ZZ=           -102.3698
   XY=            -27.9817   XZ=             -0.6873   YZ=              0.7750

 Normal termination of Gaussian 16 at Thu May  6 16:09:56 2021.
