 Gaussian 16, Revision A.03,
 Gaussian 16:  EM64L-G16RevA.03 25-Dec-2016

 -------------
 #p 6-31g* mp2
 -------------

 ------------------------------------------------------
 Input file generated by CHIRIPA (05-May-2021 14:53:17)
 ------------------------------------------------------
 Symbolic Z-matrix:
 Charge =  0 Multiplicity = 1

                         Standard orientation:
 ---------------------------------------------------------------------
 Center     Atomic      Atomic             Coordinates (Angstroms)
 Number     Number       Type             X           Y           Z
 ---------------------------------------------------------------------
      1          6           0        4.140542    0.180361   -0.041264
      2          6           0        5.625606   -0.098074   -0.275876
      3          6           0        6.401824    1.150202   -0.696693
      4          1           0        3.702069    0.594293   -0.959603
      5          1           0        4.037440    0.955103    0.731096
      6          1           0        5.725845   -0.873049   -1.046578
      7          1           0        6.060551   -0.511570    0.643069
      8          1           0        6.331525    1.925345    0.073250
      9          1           0        5.994917    1.561812   -1.625996
     10          1           0        7.461211    0.928435   -0.859105
     11          6           0        3.351186   -1.057855    0.380003
     12          6           0        1.866121   -0.779420    0.614616
     13          6           0        1.089903   -2.027696    1.035432
     14          1           0        3.454288   -1.832597   -0.392357
     15          1           0        3.789659   -1.471787    1.298342
     16          1           0        1.431176   -0.365924   -0.304329
     17          1           0        1.765882   -0.004444    1.385317
     18          1           0        1.496811   -2.439306    1.964736
     19          1           0        1.160203   -2.802839    0.265489
     20          1           0        0.030516   -1.805928    1.197844
     21          6           0       -1.823980    2.574467    0.279995
     22          6           0       -3.207526    2.438099    0.434015
     23          6           0       -3.829071    1.206334    0.208217
     24          6           0       -3.033039    0.127019   -0.172181
     25          6           0       -1.652359    0.231183   -0.333928
     26          6           0       -1.052172    1.472516   -0.102811
     27          1           0       -1.349444    3.535049    0.457465
     28          1           0       -3.809426    3.292169    0.731215
     29          1           0       -4.898209    1.072788    0.320139
     30          1           0       -1.078730   -0.638309   -0.631164
     31          1           0        0.022514    1.575490   -0.223192
     32          7           0       -3.679735   -1.182060   -0.414039
     33          8           0       -2.956165   -2.117646   -0.748349
     34          8           0       -4.897942   -1.247744   -0.264717
 ---------------------------------------------------------------------

 SCF Done:  E(RHF) =  -669.534380897     A.U. after   15 cycles
 E2 =    -0.2093295606D+01 EUMP2 =    -0.67162767650264D+03

 The electronic state is 1-A.
 Alpha  occ. eigenvalues --  -20.60734 -20.60729 -15.85781 -11.31122 -11.27693
 Alpha  occ. eigenvalues --  -11.27627 -11.27415 -11.26711 -11.26622 -11.22421
 Alpha  occ. eigenvalues --  -11.22064 -11.21994 -11.21934 -11.21489 -11.21431
 Alpha  occ. eigenvalues --   -1.59807  -1.39361  -1.19292  -1.09030  -1.08689
 Alpha  occ. eigenvalues --   -1.04717  -1.04065  -0.96488  -0.95527  -0.87496
 Alpha  occ. eigenvalues --   -0.86083  -0.82385  -0.80181  -0.78882  -0.77395
 Alpha  occ. eigenvalues --   -0.72001  -0.71130  -0.70423  -0.65669  -0.64939
 Alpha  occ. eigenvalues --   -0.64698  -0.62277  -0.61377  -0.59770  -0.58081
 Alpha  occ. eigenvalues --   -0.55751  -0.55166  -0.53244  -0.53094  -0.52946
 Alpha  occ. eigenvalues --   -0.52562  -0.50404  -0.48762  -0.48758  -0.48438
 Alpha  occ. eigenvalues --   -0.47217  -0.46374  -0.46301  -0.44776  -0.44316
 Alpha  occ. eigenvalues --   -0.37274  -0.36267
 Alpha virt. eigenvalues --    0.05076   0.11288   0.16565   0.20404   0.22655
 Alpha virt. eigenvalues --    0.23898   0.25370   0.26055   0.26899   0.28434
 Alpha virt. eigenvalues --    0.29310   0.30843   0.30966   0.31371   0.31999

 Mulliken charges:
               1
     1  C   -0.299177
     2  C   -0.299989
     3  C   -0.476095
     4  H    0.146734
     5  H    0.147799
     6  H    0.154045
     7  H    0.153658
     8  H    0.154687
     9  H    0.154951
    10  H    0.162306
    11  C   -0.297267
    12  C   -0.306508
    13  C   -0.482348
    14  H    0.153331
    15  H    0.153239
    16  H    0.140930
    17  H    0.152053
    18  H    0.159594
    19  H    0.162096
    20  H    0.166003
    21  C   -0.171442
    22  C   -0.218468
    23  C   -0.171163
    24  C    0.157893
    25  C   -0.176040
    26  C   -0.221817
    27  H    0.225342
    28  H    0.223097
    29  H    0.275248
    30  H    0.281712
    31  H    0.228632
    32  N    0.488576
    33  O   -0.461171
    34  O   -0.460441
 Sum of Mulliken charges =  -0.00000

 Dipole moment (field-independent basis, Debye):
    X=              2.4311    Y=              4.4820    Z=              0.9103  Tot=              5.1795
 Quadrupole moment (field-independent basis, Debye-Ang):
   XX=           -104.7020   YY=            -93.6248   ZZ=            -94.7206
   XY=            -16.6345   XZ=             -3.6658   YZ=              0.2001

 Normal termination of Gaussian 16 at Thu May  6 18:55:04 2021.
