 Gaussian 16, Revision A.03,
 Gaussian 16:  EM64L-G16RevA.03 25-Dec-2016

 -------------
 #p 6-31g* mp2
 -------------

 ------------------------------------------------------
 Input file generated by CHIRIPA (05-May-2021 14:57:26)
 ------------------------------------------------------
 Symbolic Z-matrix:
 Charge =  0 Multiplicity = 1

                         Standard orientation:
 ---------------------------------------------------------------------
 Center     Atomic      Atomic             Coordinates (Angstroms)
 Number     Number       Type             X           Y           Z
 ---------------------------------------------------------------------
      1          6           0       -3.089654   -2.140310    0.372447
      2          6           0       -1.989643   -2.178665   -0.490702
      3          6           0       -1.438349   -0.995436   -0.991293
      4          6           0       -2.014741    0.214037   -0.606278
      5          6           0       -3.110915    0.285051    0.252006
      6          6           0       -3.645798   -0.910742    0.740398
      7          1           0       -3.511538   -3.064351    0.756580
      8          1           0       -1.555672   -3.132123   -0.778160
      9          1           0       -0.586939   -0.996188   -1.661009
     10          1           0       -3.521793    1.250684    0.520610
     11          1           0       -4.500100   -0.877922    1.410574
     12          7           0       -1.439797    1.473319   -1.129774
     13          8           0       -1.965942    2.526050   -0.775422
     14          8           0       -0.473898    1.383768   -1.884530
     15          6           0        0.528471    1.290160    1.998163
     16          6           0        0.461341   -0.106365    1.956571
     17          6           0        1.332353   -0.835096    1.141194
     18          6           0        2.262347   -0.131847    0.377096
     19          6           0        2.353915    1.259021    0.396876
     20          6           0        1.472878    1.967203    1.219556
     21          1           0       -0.152046    1.848273    2.634404
     22          1           0       -0.271086   -0.634819    2.560169
     23          1           0        1.302164   -1.916702    1.089881
     24          1           0        3.094698    1.757846   -0.216174
     25          1           0        1.527295    3.051715    1.249854
     26          7           0        3.189755   -0.892444   -0.489972
     27          8           0        4.000076   -0.249273   -1.153559
     28          8           0        3.088775   -2.117369   -0.489576
 ---------------------------------------------------------------------

 SCF Done:  E(RHF) =  -868.337418279     A.U. after   16 cycles
 E2 =    -0.2606180314D+01 EUMP2 =    -0.87094359859356D+03

 The electronic state is 1-A.
 Alpha  occ. eigenvalues --  -20.61190 -20.61140 -20.60636 -20.60582 -15.86194
 Alpha  occ. eigenvalues --  -15.85657 -11.31518 -11.30893 -11.28205 -11.28064
 Alpha  occ. eigenvalues --  -11.27935 -11.27503 -11.27340 -11.27230 -11.27142
 Alpha  occ. eigenvalues --  -11.27111 -11.26490 -11.26332  -1.60225  -1.59687
 Alpha  occ. eigenvalues --   -1.39786  -1.39245  -1.19771  -1.19056  -1.09158
 Alpha  occ. eigenvalues --   -1.08485  -1.05180  -1.04421  -0.95991  -0.95334
 Alpha  occ. eigenvalues --   -0.86561  -0.85837  -0.82822  -0.82159  -0.77861
 Alpha  occ. eigenvalues --   -0.77226  -0.72442  -0.71880  -0.71574  -0.71009
 Alpha  occ. eigenvalues --   -0.70864  -0.70167  -0.65413  -0.65160  -0.64704
 Alpha  occ. eigenvalues --   -0.64424  -0.62506  -0.61782  -0.55680  -0.54946
 Alpha  occ. eigenvalues --   -0.53907  -0.53248  -0.52531  -0.52389  -0.49202
 Alpha  occ. eigenvalues --   -0.49190  -0.48650  -0.48615  -0.45200  -0.44677
 Alpha  occ. eigenvalues --   -0.38052  -0.37325  -0.36679  -0.35431
 Alpha virt. eigenvalues --    0.04407   0.05522   0.10683   0.11718   0.16202
 Alpha virt. eigenvalues --    0.16811   0.20936   0.21810   0.26676   0.27700
 Alpha virt. eigenvalues --    0.27859   0.28592   0.30653   0.31285   0.32028

 Mulliken charges:
               1
     1  C   -0.173667
     2  C   -0.224843
     3  C   -0.167566
     4  C    0.165151
     5  C   -0.176608
     6  C   -0.221758
     7  H    0.226849
     8  H    0.228884
     9  H    0.280342
    10  H    0.273534
    11  H    0.223146
    12  N    0.490152
    13  O   -0.466128
    14  O   -0.457031
    15  C   -0.179386
    16  C   -0.216080
    17  C   -0.176813
    18  C    0.158450
    19  C   -0.158956
    20  C   -0.213883
    21  H    0.225973
    22  H    0.220334
    23  H    0.268521
    24  H    0.278300
    25  H    0.229247
    26  N    0.487719
    27  O   -0.455990
    28  O   -0.467891
 Sum of Mulliken charges =  -0.00000

 Dipole moment (field-independent basis, Debye):
    X=             -5.1469    Y=             -1.5321    Z=              4.7100  Tot=              7.1429
 Quadrupole moment (field-independent basis, Debye-Ang):
   XX=           -109.4398   YY=           -102.8833   ZZ=           -104.3736
   XY=             15.8854   XZ=              0.3895   YZ=              3.9668

 Normal termination of Gaussian 16 at Thu May  6 11:30:53 2021.
