 Gaussian 16, Revision A.03,
 Gaussian 16:  EM64L-G16RevA.03 25-Dec-2016

 -------------
 #p 6-31g* mp2
 -------------

 ------------------------------------------------------
 Input file generated by CHIRIPA (05-May-2021 14:55:22)
 ------------------------------------------------------
 Symbolic Z-matrix:
 Charge =  0 Multiplicity = 1

                         Standard orientation:
 ---------------------------------------------------------------------
 Center     Atomic      Atomic             Coordinates (Angstroms)
 Number     Number       Type             X           Y           Z
 ---------------------------------------------------------------------
      1          6           0       -5.523195   -1.239330    0.406189
      2          6           0       -4.320627   -1.887766    0.705991
      3          6           0       -3.095184   -1.285096    0.406615
      4          6           0       -3.109339   -0.027762   -0.195217
      5          6           0       -4.290729    0.643711   -0.506235
      6          6           0       -5.504441    0.022115   -0.197902
      7          1           0       -6.470592   -1.714850    0.642230
      8          1           0       -4.332154   -2.867469    1.175132
      9          1           0       -2.149409   -1.764663    0.627842
     10          1           0       -4.247234    1.619816   -0.973937
     11          1           0       -6.436822    0.528049   -0.431871
     12          7           0       -1.818227    0.620276   -0.516894
     13          8           0       -1.857718    1.728421   -1.047076
     14          8           0       -0.791210    0.007793   -0.232751
     15          6           0        4.831734   -0.082215   -0.245732
     16          6           0        5.292351   -1.490187    0.132994
     17          6           0        6.452099   -1.985338   -0.731647
     18          1           0        4.532802   -0.073047   -1.302852
     19          1           0        5.679908    0.610399   -0.154735
     20          1           0        4.443214   -2.179693    0.042640
     21          1           0        5.590039   -1.496050    1.189385
     22          1           0        7.316503   -1.320584   -0.634131
     23          1           0        6.163161   -2.008112   -1.787392
     24          1           0        6.765427   -2.993728   -0.443835
     25          6           0        3.672919    0.426705    0.609766
     26          6           0        3.212302    1.834676    0.231040
     27          6           0        2.052553    2.329829    1.095680
     28          1           0        2.824744   -0.265909    0.518769
     29          1           0        3.971851    0.417537    1.666885
     30          1           0        2.914613    1.840539   -0.825351
     31          1           0        4.061439    2.524182    0.321393
     32          1           0        2.341492    2.352602    2.151425
     33          1           0        1.188150    1.665074    0.998165
     34          1           0        1.739227    3.338218    0.807869
 ---------------------------------------------------------------------

 SCF Done:  E(RHF) =  -669.536578746     A.U. after   15 cycles
 E2 =    -0.2091085318D+01 EUMP2 =    -0.67162766406335D+03

 The electronic state is 1-A.
 Alpha  occ. eigenvalues --  -20.61045 -20.61038 -15.86062 -11.31349 -11.27906
 Alpha  occ. eigenvalues --  -11.27902 -11.27637 -11.26904 -11.26894 -11.20845
 Alpha  occ. eigenvalues --  -11.20458 -11.20415 -11.20185 -11.20113 -11.19335
 Alpha  occ. eigenvalues --   -1.60093  -1.39651  -1.19512  -1.08923  -1.07333
 Alpha  occ. eigenvalues --   -1.04902  -1.02392  -0.95771  -0.94842  -0.86304
 Alpha  occ. eigenvalues --   -0.85866  -0.82606  -0.78516  -0.77663  -0.77103
 Alpha  occ. eigenvalues --   -0.72282  -0.71402  -0.70620  -0.65168  -0.64905
 Alpha  occ. eigenvalues --   -0.63956  -0.62250  -0.59772  -0.58280  -0.56449
 Alpha  occ. eigenvalues --   -0.55410  -0.54117  -0.53234  -0.52993  -0.51558
 Alpha  occ. eigenvalues --   -0.51282  -0.49178  -0.49034  -0.48639  -0.46811
 Alpha  occ. eigenvalues --   -0.45563  -0.45057  -0.44650  -0.44471  -0.42660
 Alpha  occ. eigenvalues --   -0.37488  -0.36501
 Alpha virt. eigenvalues --    0.04836   0.11155   0.16335   0.21288   0.23907
 Alpha virt. eigenvalues --    0.25524   0.27215   0.27684   0.28187   0.28567
 Alpha virt. eigenvalues --    0.29207   0.30859   0.32337   0.32612   0.32712

 Mulliken charges:
               1
     1  C   -0.170434
     2  C   -0.218561
     3  C   -0.170622
     4  C    0.158326
     5  C   -0.170607
     6  C   -0.218598
     7  H    0.226217
     8  H    0.224043
     9  H    0.275767
    10  H    0.276034
    11  H    0.224034
    12  N    0.488875
    13  O   -0.457712
    14  O   -0.461092
    15  C   -0.297671
    16  C   -0.298790
    17  C   -0.475060
    18  H    0.150271
    19  H    0.146474
    20  H    0.151455
    21  H    0.149669
    22  H    0.153974
    23  H    0.154744
    24  H    0.157243
    25  C   -0.300153
    26  C   -0.296434
    27  C   -0.484690
    28  H    0.158477
    29  H    0.144029
    30  H    0.156543
    31  H    0.144328
    32  H    0.143990
    33  H    0.178965
    34  H    0.156966
 Sum of Mulliken charges =  -0.00000

 Dipole moment (field-independent basis, Debye):
    X=             -4.9817    Y=             -2.3300    Z=              1.0313  Tot=              5.5955
 Quadrupole moment (field-independent basis, Debye-Ang):
   XX=            -67.2481   YY=            -92.3058   ZZ=            -95.3693
   XY=              5.6981   XZ=             -1.0610   YZ=             -1.6644

 Normal termination of Gaussian 16 at Wed May  5 17:28:48 2021.
