 Gaussian 16, Revision A.03,
 Gaussian 16:  EM64L-G16RevA.03 25-Dec-2016

 -------------
 #p 6-31g* mp2
 -------------

 ------------------------------------------------------
 Input file generated by CHIRIPA (05-May-2021 14:51:12)
 ------------------------------------------------------
 Symbolic Z-matrix:
 Charge =  0 Multiplicity = 1

                         Standard orientation:
 ---------------------------------------------------------------------
 Center     Atomic      Atomic             Coordinates (Angstroms)
 Number     Number       Type             X           Y           Z
 ---------------------------------------------------------------------
      1          6           0       -1.873264    1.555728   -0.344544
      2          6           0       -1.121631    2.414831    0.672793
      3          6           0       -0.221291    3.460038    0.013457
      4          1           0       -1.147294    1.055389   -0.999962
      5          1           0       -2.478465    2.208205   -0.989059
      6          1           0       -0.519099    1.760809    1.316087
      7          1           0       -1.849468    2.913032    1.325987
      8          1           0       -0.811264    4.136060   -0.613861
      9          1           0        0.526664    2.977290   -0.623817
     10          1           0        0.306469    4.062990    0.758962
     11          6           0       -2.777487    0.506170    0.299301
     12          6           0       -3.529121   -0.352933   -0.718036
     13          6           0       -4.429461   -1.398140   -0.058700
     14          1           0       -2.172286   -0.146308    0.943816
     15          1           0       -3.503458    1.006509    0.954719
     16          1           0       -2.801283   -0.851135   -1.371230
     17          1           0       -4.131653    0.301088   -1.361330
     18          1           0       -5.177416   -0.915392    0.578574
     19          1           0       -3.839488   -2.074162    0.568617
     20          1           0       -4.957221   -2.001092   -0.804205
     21          6           0        1.736381   -1.401671   -0.292152
     22          6           0        0.801505   -2.038985    0.736352
     23          6           0       -0.371947   -2.776999    0.091260
     24          1           0        1.162253   -0.704566   -0.917744
     25          1           0        2.118092   -2.182859   -0.964043
     26          1           0        0.422756   -1.257033    1.406961
     27          1           0        1.377965   -2.734511    1.359692
     28          1           0       -0.010980   -3.576918   -0.563289
     29          1           0       -0.971617   -2.091046   -0.515753
     30          1           0       -1.027480   -3.224912    0.844592
     31          6           0        2.914370   -0.660227    0.337395
     32          6           0        3.849247   -0.022912   -0.691109
     33          6           0        5.022698    0.715101   -0.046016
     34          1           0        2.532659    0.120961    1.009286
     35          1           0        3.488499   -1.357332    0.962987
     36          1           0        3.272787    0.672614   -1.314449
     37          1           0        4.227996   -0.804864   -1.361718
     38          1           0        5.622368    0.029148    0.560995
     39          1           0        4.661732    1.515021    0.608532
     40          1           0        5.678232    1.163014   -0.799349
 ---------------------------------------------------------------------

 SCF Done:  E(RHF) =  -470.732895551     A.U. after   11 cycles
 E2 =    -0.1585109580D+01 EUMP2 =    -0.47231800513038D+03

 The electronic state is 1-A.
 Alpha  occ. eigenvalues --  -11.21687 -11.21675 -11.21646 -11.21604 -11.21476
 Alpha  occ. eigenvalues --  -11.21451 -11.21412 -11.21369 -11.21142 -11.21118
 Alpha  occ. eigenvalues --  -11.21093 -11.21035  -1.08537  -1.08435  -1.03621
 Alpha  occ. eigenvalues --   -1.03534  -0.96039  -0.96007  -0.87079  -0.87003
 Alpha  occ. eigenvalues --   -0.79670  -0.79616  -0.78367  -0.78230  -0.65533
 Alpha  occ. eigenvalues --   -0.64774  -0.61220  -0.60741  -0.59430  -0.59354
 Alpha  occ. eigenvalues --   -0.57657  -0.57612  -0.55311  -0.55288  -0.52735
 Alpha  occ. eigenvalues --   -0.52697  -0.52481  -0.52413  -0.50150  -0.49765
 Alpha  occ. eigenvalues --   -0.48021  -0.47899  -0.46786  -0.46606  -0.46060
 Alpha  occ. eigenvalues --   -0.45945  -0.45649  -0.45436  -0.43843  -0.43816
 Alpha virt. eigenvalues --    0.18174   0.21812   0.23860   0.24395   0.25118
 Alpha virt. eigenvalues --    0.25888   0.26954   0.28005   0.28633   0.29734
 Alpha virt. eigenvalues --    0.30819   0.31378   0.31801   0.31951   0.32261

 Mulliken charges:
               1
     1  C   -0.300645
     2  C   -0.300947
     3  C   -0.475973
     4  H    0.150688
     5  H    0.150147
     6  H    0.152245
     7  H    0.152535
     8  H    0.155702
     9  H    0.154720
    10  H    0.160465
    11  C   -0.303450
    12  C   -0.302269
    13  C   -0.477212
    14  H    0.154753
    15  H    0.150188
    16  H    0.153166
    17  H    0.152569
    18  H    0.154894
    19  H    0.157595
    20  H    0.160268
    21  C   -0.300757
    22  C   -0.302254
    23  C   -0.483440
    24  H    0.151053
    25  H    0.150072
    26  H    0.153281
    27  H    0.152612
    28  H    0.155704
    29  H    0.163107
    30  H    0.160488
    31  C   -0.298904
    32  C   -0.299788
    33  C   -0.475816
    34  H    0.150068
    35  H    0.149995
    36  H    0.151745
    37  H    0.152105
    38  H    0.155208
    39  H    0.155615
    40  H    0.160469
 Sum of Mulliken charges =  -0.00000

 Dipole moment (field-independent basis, Debye):
    X=              0.0020    Y=             -0.0096    Z=              0.0049  Tot=              0.0109
 Quadrupole moment (field-independent basis, Debye-Ang):
   XX=            -85.0850   YY=            -84.5015   ZZ=            -85.0044
   XY=             -2.0919   XZ=             -0.0927   YZ=              0.1248

 Normal termination of Gaussian 16 at Wed May  5 16:47:18 2021.
