 Gaussian 16, Revision A.03,
 Gaussian 16:  EM64L-G16RevA.03 25-Dec-2016

 -------------
 #p 6-31g* mp2
 -------------

 ------------------------------------------------------
 Input file generated by CHIRIPA (05-May-2021 14:57:22)
 ------------------------------------------------------
 Symbolic Z-matrix:
 Charge =  0 Multiplicity = 1

                         Standard orientation:
 ---------------------------------------------------------------------
 Center     Atomic      Atomic             Coordinates (Angstroms)
 Number     Number       Type             X           Y           Z
 ---------------------------------------------------------------------
      1          6           0       -1.108645   -1.763824    1.109669
      2          6           0       -1.008960   -0.382883    1.308636
      3          6           0       -2.001032    0.477112    0.828273
      4          6           0       -3.083965   -0.080404    0.150244
      5          6           0       -3.211719   -1.451948   -0.063849
      6          6           0       -2.207768   -2.293016    0.425268
      7          1           0       -0.333365   -2.424537    1.486227
      8          1           0       -0.156490    0.030894    1.839794
      9          1           0       -1.948952    1.550002    0.968314
     10          1           0       -4.073346   -1.834923   -0.597092
     11          1           0       -2.287814   -3.365073    0.269281
     12          7           0       -4.140515    0.820015   -0.362929
     13          8           0       -5.084582    0.303938   -0.957099
     14          8           0       -4.004566    2.024792   -0.161266
     15          6           0        2.573003    2.705516    0.109228
     16          6           0        1.555080    1.932992   -0.459594
     17          6           0        1.730699    0.559837   -0.654918
     18          6           0        2.942397   -0.010635   -0.268083
     19          6           0        3.975472    0.732304    0.301203
     20          6           0        3.777827    2.103767    0.487145
     21          1           0        2.428023    3.771558    0.257316
     22          1           0        0.618353    2.397630   -0.754044
     23          1           0        0.959326   -0.061824   -1.093028
     24          1           0        4.898232    0.240805    0.584681
     25          1           0        4.570107    2.701246    0.929138
     26          7           0        3.139975   -1.463437   -0.469897
     27          8           0        4.216781   -1.942110   -0.120614
     28          8           0        2.214290   -2.095962   -0.973540
 ---------------------------------------------------------------------

 SCF Done:  E(RHF) =  -868.338572990     A.U. after   16 cycles
 E2 =    -0.2601798610D+01 EUMP2 =    -0.87094037160053D+03

 The electronic state is 1-A.
 Alpha  occ. eigenvalues --  -20.61502 -20.61483 -20.61028 -20.61000 -15.86537
 Alpha  occ. eigenvalues --  -15.86068 -11.31788 -11.31363 -11.28371 -11.28305
 Alpha  occ. eigenvalues --  -11.28072 -11.27964 -11.27841 -11.27477 -11.27318
 Alpha  occ. eigenvalues --  -11.27287 -11.26863 -11.26781  -1.60576  -1.60095
 Alpha  occ. eigenvalues --   -1.40127  -1.39651  -1.19980  -1.19506  -1.09381
 Alpha  occ. eigenvalues --   -1.08878  -1.05365  -1.04878  -0.96226  -0.95730
 Alpha  occ. eigenvalues --   -0.86747  -0.86261  -0.83059  -0.82558  -0.78123
 Alpha  occ. eigenvalues --   -0.77654  -0.72750  -0.72281  -0.71917  -0.71424
 Alpha  occ. eigenvalues --   -0.71042  -0.70513  -0.65607  -0.65332  -0.65120
 Alpha  occ. eigenvalues --   -0.64845  -0.62694  -0.62229  -0.55832  -0.55277
 Alpha  occ. eigenvalues --   -0.53844  -0.53455  -0.53101  -0.52869  -0.49512
 Alpha  occ. eigenvalues --   -0.49502  -0.49049  -0.49026  -0.45555  -0.45074
 Alpha  occ. eigenvalues --   -0.37999  -0.37568  -0.37140  -0.36112
 Alpha virt. eigenvalues --    0.04366   0.04859   0.10261   0.11548   0.15651
 Alpha virt. eigenvalues --    0.16628   0.20656   0.21573   0.26086   0.27367
 Alpha virt. eigenvalues --    0.27869   0.28432   0.30429   0.31285   0.31830

 Mulliken charges:
               1
     1  C   -0.165988
     2  C   -0.224223
     3  C   -0.180396
     4  C    0.158363
     5  C   -0.171767
     6  C   -0.217164
     7  H    0.235308
     8  H    0.226004
     9  H    0.269911
    10  H    0.276500
    11  H    0.228466
    12  N    0.488209
    13  O   -0.458276
    14  O   -0.464280
    15  C   -0.170908
    16  C   -0.226787
    17  C   -0.172356
    18  C    0.152677
    19  C   -0.171207
    20  C   -0.219623
    21  H    0.229203
    22  H    0.229267
    23  H    0.281284
    24  H    0.276551
    25  H    0.225573
    26  N    0.487197
    27  O   -0.458640
    28  O   -0.462900
 Sum of Mulliken charges =  -0.00000

 Dipole moment (field-independent basis, Debye):
    X=              3.1089    Y=              1.7601    Z=              2.5088  Tot=              4.3655
 Quadrupole moment (field-independent basis, Debye-Ang):
   XX=           -127.0837   YY=           -101.4720   ZZ=           -104.5711
   XY=             28.0297   XZ=              0.3967   YZ=             -0.4112

 Normal termination of Gaussian 16 at Thu May  6 01:46:21 2021.
