 Gaussian 16, Revision A.03,
 Gaussian 16:  EM64L-G16RevA.03 25-Dec-2016

 -------------
 #p 6-31g* mp2
 -------------

 ------------------------------------------------------
 Input file generated by CHIRIPA (05-May-2021 14:53:18)
 ------------------------------------------------------
 Symbolic Z-matrix:
 Charge =  0 Multiplicity = 1

                         Standard orientation:
 ---------------------------------------------------------------------
 Center     Atomic      Atomic             Coordinates (Angstroms)
 Number     Number       Type             X           Y           Z
 ---------------------------------------------------------------------
      1          6           0       -4.398555    0.144883    0.137637
      2          6           0       -4.858270    1.488012   -0.430390
      3          6           0       -6.082761    2.048197    0.293908
      4          1           0       -5.225575   -0.575454    0.073639
      5          1           0       -4.170711    0.265103    1.205826
      6          1           0       -5.083855    1.365611   -1.497510
      7          1           0       -4.029998    2.205182   -0.365208
      8          1           0       -5.866387    2.198735    1.356509
      9          1           0       -6.926232    1.354395    0.217774
     10          1           0       -6.394362    3.008688   -0.128256
     11          6           0       -3.175360   -0.427958   -0.576070
     12          6           0       -2.715645   -1.771086   -0.008044
     13          6           0       -1.491154   -2.331272   -0.732341
     14          1           0       -3.403204   -0.548177   -1.644260
     15          1           0       -2.348340    0.292380   -0.512073
     16          1           0       -3.543917   -2.488256   -0.073225
     17          1           0       -2.490060   -1.648686    1.059076
     18          1           0       -0.647683   -1.637469   -0.656208
     19          1           0       -1.707528   -2.481810   -1.794943
     20          1           0       -1.179553   -3.291762   -0.310177
     21          6           0        4.284332    2.130436   -0.555662
     22          6           0        3.499114    2.187520    0.600494
     23          6           0        2.760388    1.074464    1.012730
     24          6           0        2.830390   -0.084696    0.241539
     25          6           0        3.603454   -0.172717   -0.915142
     26          6           0        4.333908    0.952575   -1.308463
     27          1           0        4.854979    2.999837   -0.868550
     28          1           0        3.458707    3.100933    1.187085
     29          1           0        2.144322    1.091175    1.903573
     30          1           0        3.623652   -1.097256   -1.479269
     31          1           0        4.942862    0.905363   -2.206791
     32          7           0        2.052712   -1.269516    0.667943
     33          8           0        2.131340   -2.278916   -0.028884
     34          8           0        1.379267   -1.166344    1.690911
 ---------------------------------------------------------------------

 SCF Done:  E(RHF) =  -669.535610594     A.U. after   15 cycles
 E2 =    -0.2091457187D+01 EUMP2 =    -0.67162706778086D+03

 The electronic state is 1-A.
 Alpha  occ. eigenvalues --  -20.60891 -20.60878 -15.85907 -11.31269 -11.27838
 Alpha  occ. eigenvalues --  -11.27830 -11.27576 -11.26847 -11.26837 -11.21219
 Alpha  occ. eigenvalues --  -11.20829 -11.20768 -11.20664 -11.20520 -11.19713
 Alpha  occ. eigenvalues --   -1.59951  -1.39503  -1.19440  -1.08839  -1.07760
 Alpha  occ. eigenvalues --   -1.04839  -1.02774  -0.95678  -0.95211  -0.86241
 Alpha  occ. eigenvalues --   -0.86227  -0.82508  -0.78876  -0.77559  -0.77542
 Alpha  occ. eigenvalues --   -0.72132  -0.71296  -0.70547  -0.65093  -0.64842
 Alpha  occ. eigenvalues --   -0.64394  -0.62186  -0.60166  -0.58634  -0.56810
 Alpha  occ. eigenvalues --   -0.55345  -0.54511  -0.53169  -0.52931  -0.51870
 Alpha  occ. eigenvalues --   -0.51651  -0.49273  -0.48895  -0.48793  -0.47179
 Alpha  occ. eigenvalues --   -0.45932  -0.45112  -0.45010  -0.44834  -0.43018
 Alpha  occ. eigenvalues --   -0.37420  -0.36442
 Alpha virt. eigenvalues --    0.04950   0.11212   0.16434   0.21348   0.23471
 Alpha virt. eigenvalues --    0.25068   0.27236   0.27266   0.28094   0.28216
 Alpha virt. eigenvalues --    0.28764   0.30874   0.32072   0.32363   0.32491

 Mulliken charges:
               1
     1  C   -0.297782
     2  C   -0.298736
     3  C   -0.475263
     4  H    0.148957
     5  H    0.149870
     6  H    0.150803
     7  H    0.149538
     8  H    0.154704
     9  H    0.155129
    10  H    0.158123
    11  C   -0.297010
    12  C   -0.301651
    13  C   -0.467843
    14  H    0.146536
    15  H    0.146376
    16  H    0.147444
    17  H    0.158194
    18  H    0.154377
    19  H    0.145773
    20  H    0.169819
    21  C   -0.170602
    22  C   -0.218560
    23  C   -0.171122
    24  C    0.157876
    25  C   -0.170754
    26  C   -0.218557
    27  H    0.225942
    28  H    0.223712
    29  H    0.275573
    30  H    0.276134
    31  H    0.223836
    32  N    0.486040
    33  O   -0.456988
    34  O   -0.459888
 Sum of Mulliken charges =  -0.00000

 Dipole moment (field-independent basis, Debye):
    X=              2.9721    Y=              4.0697    Z=             -1.4257  Tot=              5.2372
 Quadrupole moment (field-independent basis, Debye-Ang):
   XX=            -80.3983   YY=            -94.5038   ZZ=            -92.5657
   XY=             11.7639   XZ=             -4.7988   YZ=              3.4469

 Normal termination of Gaussian 16 at Thu May  6 13:58:18 2021.
