 Gaussian 16, Revision A.03,
 Gaussian 16:  EM64L-G16RevA.03 25-Dec-2016

 -------------
 #p 6-31g* mp2
 -------------

 ------------------------------------------------------
 Input file generated by CHIRIPA (05-May-2021 14:53:14)
 ------------------------------------------------------
 Symbolic Z-matrix:
 Charge =  0 Multiplicity = 1

                         Standard orientation:
 ---------------------------------------------------------------------
 Center     Atomic      Atomic             Coordinates (Angstroms)
 Number     Number       Type             X           Y           Z
 ---------------------------------------------------------------------
      1          6           0       -2.698043    1.135488    0.228036
      2          6           0       -1.986338    2.300849   -0.459999
      3          6           0       -2.299088    3.650006    0.187889
      4          1           0       -3.782182    1.311858    0.206101
      5          1           0       -2.406725    1.110954    1.287247
      6          1           0       -2.277841    2.322337   -1.517912
      7          1           0       -0.903779    2.121591   -0.436592
      8          1           0       -1.992036    3.653126    1.238750
      9          1           0       -3.373906    3.855012    0.151286
     10          1           0       -1.780015    4.469041   -0.319658
     11          6           0       -2.395322   -0.219945   -0.408274
     12          6           0       -3.107027   -1.385306    0.279762
     13          6           0       -2.794278   -2.734462   -0.368126
     14          1           0       -2.686640   -0.195411   -1.467484
     15          1           0       -1.311183   -0.396315   -0.386338
     16          1           0       -4.189587   -1.206048    0.256355
     17          1           0       -2.815524   -1.406793    1.337675
     18          1           0       -1.719460   -2.939468   -0.331524
     19          1           0       -3.101329   -2.737582   -1.418988
     20          1           0       -3.313350   -3.553498    0.139421
     21          6           0        0.987896   -2.663526    0.283442
     22          6           0        1.429005   -2.204277   -0.961963
     23          6           0        1.985650   -0.928405   -1.091759
     24          6           0        2.086437   -0.134709    0.049809
     25          6           0        1.656016   -0.563838    1.304353
     26          6           0        1.102607   -1.843287    1.410637
     27          1           0        0.556738   -3.656043    0.375139
     28          1           0        1.341168   -2.839109   -1.839070
     29          1           0        2.335144   -0.547783   -2.043808
     30          1           0        1.756737    0.091925    2.160652
     31          1           0        0.760874   -2.197315    2.379104
     32          7           0        2.674019    1.217892   -0.075154
     33          8           0        2.751701    1.897781    0.945802
     34          8           0        3.045757    1.572562   -1.191693
 ---------------------------------------------------------------------

 SCF Done:  E(RHF) =  -669.534872385     A.U. after   15 cycles
 E2 =    -0.2094859679D+01 EUMP2 =    -0.67162973206374D+03

 The electronic state is 1-A.
 Alpha  occ. eigenvalues --  -20.60889 -20.60884 -15.85948 -11.31358 -11.27927
 Alpha  occ. eigenvalues --  -11.27912 -11.27644 -11.26931 -11.26916 -11.21932
 Alpha  occ. eigenvalues --  -11.21569 -11.21444 -11.21422 -11.21342 -11.20777
 Alpha  occ. eigenvalues --   -1.59967  -1.39517  -1.19538  -1.08930  -1.08488
 Alpha  occ. eigenvalues --   -1.04926  -1.03611  -0.96083  -0.95735  -0.87096
 Alpha  occ. eigenvalues --   -0.86321  -0.82569  -0.79697  -0.78278  -0.77607
 Alpha  occ. eigenvalues --   -0.72159  -0.71295  -0.70653  -0.65176  -0.65156
 Alpha  occ. eigenvalues --   -0.64910  -0.62262  -0.61042  -0.59463  -0.57665
 Alpha  occ. eigenvalues --   -0.55645  -0.55170  -0.53329  -0.53008  -0.52760
 Alpha  occ. eigenvalues --   -0.52496  -0.50032  -0.48921  -0.48912  -0.47993
 Alpha  occ. eigenvalues --   -0.46712  -0.45807  -0.45666  -0.44911  -0.43843
 Alpha  occ. eigenvalues --   -0.37433  -0.36528
 Alpha virt. eigenvalues --    0.04878   0.11081   0.16287   0.20851   0.22813
 Alpha virt. eigenvalues --    0.24305   0.26368   0.26621   0.27211   0.27559
 Alpha virt. eigenvalues --    0.28774   0.30715   0.31427   0.31869   0.32175

 Mulliken charges:
               1
     1  C   -0.297838
     2  C   -0.299182
     3  C   -0.475522
     4  H    0.148962
     5  H    0.147426
     6  H    0.151580
     7  H    0.152756
     8  H    0.156150
     9  H    0.152868
    10  H    0.164504
    11  C   -0.304258
    12  C   -0.296859
    13  C   -0.480209
    14  H    0.148225
    15  H    0.157697
    16  H    0.153392
    17  H    0.147690
    18  H    0.150023
    19  H    0.156283
    20  H    0.158117
    21  C   -0.171211
    22  C   -0.217185
    23  C   -0.170976
    24  C    0.159026
    25  C   -0.172108
    26  C   -0.218725
    27  H    0.228178
    28  H    0.225260
    29  H    0.276685
    30  H    0.276320
    31  H    0.224694
    32  N    0.487998
    33  O   -0.460129
    34  O   -0.459630
 Sum of Mulliken charges =  -0.00000

 Dipole moment (field-independent basis, Debye):
    X=             -1.9080    Y=             -4.6860    Z=              0.4176  Tot=              5.0767
 Quadrupole moment (field-independent basis, Debye-Ang):
   XX=           -103.8008   YY=            -95.0259   ZZ=            -89.6331
   XY=            -10.1107   XZ=              0.6163   YZ=              0.0774

 Normal termination of Gaussian 16 at Thu May  6 04:13:22 2021.
