 Gaussian 16, Revision A.03,
 Gaussian 16:  EM64L-G16RevA.03 25-Dec-2016

 -------------
 #p 6-31g* mp2
 -------------

 ------------------------------------------------------
 Input file generated by CHIRIPA (05-May-2021 14:51:09)
 ------------------------------------------------------
 Symbolic Z-matrix:
 Charge =  0 Multiplicity = 1

                         Standard orientation:
 ---------------------------------------------------------------------
 Center     Atomic      Atomic             Coordinates (Angstroms)
 Number     Number       Type             X           Y           Z
 ---------------------------------------------------------------------
      1          6           0        3.218892   -0.525178   -0.225899
      2          6           0        2.033455   -1.490514   -0.255041
      3          6           0        2.453207   -2.933881   -0.534854
      4          1           0        3.747772   -0.574870   -1.187544
      5          1           0        3.933069   -0.855559    0.541040
      6          1           0        1.321066   -1.157626   -1.020746
      7          1           0        1.507222   -1.438377    0.706716
      8          1           0        3.146396   -3.289492    0.234321
      9          1           0        2.959183   -3.007146   -1.502956
     10          1           0        1.590304   -3.606926   -0.551250
     11          6           0        2.815291    0.921612    0.052729
     12          6           0        4.000729    1.886949    0.081872
     13          6           0        3.580976    3.330315    0.361684
     14          1           0        2.101115    1.251994   -0.714209
     15          1           0        2.286411    0.971304    1.014374
     16          1           0        4.526962    1.834811   -0.879885
     17          1           0        4.713117    1.554061    0.847577
     18          1           0        3.075001    3.403580    1.329787
     19          1           0        2.887787    3.685926   -0.407491
     20          1           0        4.443879    4.003361    0.378081
     21          6           0       -2.713057   -0.720801    0.553383
     22          6           0       -1.855268   -1.757172   -0.173334
     23          6           0       -1.253954   -2.795881    0.773924
     24          1           0       -2.101204   -0.215530    1.313173
     25          1           0       -3.519366   -1.236149    1.093456
     26          1           0       -1.051638   -1.239913   -0.713000
     27          1           0       -2.469183   -2.259901   -0.931613
     28          1           0       -2.044363   -3.337899    1.303141
     29          1           0       -0.618764   -2.312116    1.522994
     30          1           0       -0.644579   -3.526935    0.233477
     31          6           0       -3.321126    0.324367   -0.380214
     32          6           0       -4.178916    1.360737    0.346504
     33          6           0       -4.780230    2.399447   -0.600755
     34          1           0       -2.514817    0.839714   -0.920287
     35          1           0       -3.932979   -0.180904   -1.140004
     36          1           0       -3.565000    1.863467    1.104782
     37          1           0       -4.982544    0.843479    0.886170
     38          1           0       -5.415419    1.915681   -1.349825
     39          1           0       -3.989820    2.941465   -1.129971
     40          1           0       -5.389604    3.130500   -0.060308
 ---------------------------------------------------------------------

 SCF Done:  E(RHF) =  -470.731572917     A.U. after   11 cycles
 E2 =    -0.1584554652D+01 EUMP2 =    -0.47231612756889D+03

 The electronic state is 1-A.
 Alpha  occ. eigenvalues --  -11.21632 -11.21582 -11.21564 -11.21506 -11.21433
 Alpha  occ. eigenvalues --  -11.21373 -11.21362 -11.21311 -11.21102 -11.21058
 Alpha  occ. eigenvalues --  -11.21045 -11.21004  -1.08474  -1.08374  -1.03627
 Alpha  occ. eigenvalues --   -1.03418  -0.96073  -0.95876  -0.87043  -0.86942
 Alpha  occ. eigenvalues --   -0.79658  -0.79535  -0.78312  -0.78177  -0.65090
 Alpha  occ. eigenvalues --   -0.65034  -0.61030  -0.60915  -0.59701  -0.59062
 Alpha  occ. eigenvalues --   -0.57817  -0.57289  -0.55325  -0.55160  -0.52941
 Alpha  occ. eigenvalues --   -0.52559  -0.52453  -0.52144  -0.50052  -0.49808
 Alpha  occ. eigenvalues --   -0.48189  -0.47654  -0.46952  -0.46365  -0.45954
 Alpha  occ. eigenvalues --   -0.45800  -0.45638  -0.45359  -0.43899  -0.43622
 Alpha virt. eigenvalues --    0.21136   0.23227   0.23345   0.25127   0.25366
 Alpha virt. eigenvalues --    0.25934   0.26893   0.27776   0.28280   0.29327
 Alpha virt. eigenvalues --    0.29577   0.30624   0.31204   0.32025   0.32920

 Mulliken charges:
               1
     1  C   -0.297527
     2  C   -0.304370
     3  C   -0.479178
     4  H    0.149460
     5  H    0.149456
     6  H    0.154339
     7  H    0.155680
     8  H    0.155177
     9  H    0.154895
    10  H    0.163680
    11  C   -0.298172
    12  C   -0.299585
    13  C   -0.475728
    14  H    0.148761
    15  H    0.148988
    16  H    0.152127
    17  H    0.152111
    18  H    0.155075
    19  H    0.155070
    20  H    0.160441
    21  C   -0.297823
    22  C   -0.305069
    23  C   -0.478678
    24  H    0.149271
    25  H    0.149257
    26  H    0.158337
    27  H    0.151167
    28  H    0.154794
    29  H    0.155859
    30  H    0.162645
    31  C   -0.298184
    32  C   -0.299622
    33  C   -0.475684
    34  H    0.149245
    35  H    0.149508
    36  H    0.151982
    37  H    0.151879
    38  H    0.155097
    39  H    0.155110
    40  H    0.160208
 Sum of Mulliken charges =  -0.00000

 Dipole moment (field-independent basis, Debye):
    X=              0.0234    Y=             -0.0087    Z=              0.0005  Tot=              0.0250
 Quadrupole moment (field-independent basis, Debye-Ang):
   XX=            -84.5313   YY=            -86.2994   ZZ=            -84.1108
   XY=              1.0088   XZ=             -0.0000   YZ=              0.1628

 Normal termination of Gaussian 16 at Thu May  6 02:10:59 2021.
