 Gaussian 16, Revision A.03,
 Gaussian 16:  EM64L-G16RevA.03 25-Dec-2016

 -------------
 #p 6-31g* mp2
 -------------

 ------------------------------------------------------
 Input file generated by CHIRIPA (05-May-2021 14:57:24)
 ------------------------------------------------------
 Symbolic Z-matrix:
 Charge =  0 Multiplicity = 1

                         Standard orientation:
 ---------------------------------------------------------------------
 Center     Atomic      Atomic             Coordinates (Angstroms)
 Number     Number       Type             X           Y           Z
 ---------------------------------------------------------------------
      1          6           0       -5.176846   -1.366000    0.551125
      2          6           0       -5.235584   -0.082993    1.105168
      3          6           0       -4.260618    0.869726    0.794820
      4          6           0       -3.236359    0.503789   -0.077116
      5          6           0       -3.150434   -0.766296   -0.645263
      6          6           0       -4.136293   -1.702963   -0.320785
      7          1           0       -5.938454   -2.099860    0.797699
      8          1           0       -6.042537    0.181491    1.782604
      9          1           0       -4.281912    1.870229    1.209500
     10          1           0       -2.333870   -1.000502   -1.317415
     11          1           0       -4.088142   -2.698604   -0.752554
     12          7           0       -2.198440    1.503893   -0.413147
     13          8           0       -1.306326    1.156644   -1.183983
     14          8           0       -2.296687    2.616088    0.100670
     15          6           0        5.250906    1.322691    0.476045
     16          6           0        5.422447   -0.023344    0.815579
     17          6           0        4.407767   -0.952810    0.568465
     18          6           0        3.229199   -0.499603   -0.022187
     19          6           0        3.028240    0.834787   -0.371915
     20          6           0        4.056456    1.746713   -0.115575
     21          1           0        6.044392    2.037911    0.671592
     22          1           0        6.349010   -0.355488    1.275150
     23          1           0        4.514055   -2.000777    0.821223
     24          1           0        2.093396    1.135923   -0.828864
     25          1           0        3.920455    2.791443   -0.380320
     26          7           0        2.147838   -1.474303   -0.288678
     27          8           0        1.118973   -1.049730   -0.810036
     28          8           0        2.349607   -2.644389    0.028849
 ---------------------------------------------------------------------

 SCF Done:  E(RHF) =  -868.339465566     A.U. after   16 cycles
 E2 =    -0.2599345022D+01 EUMP2 =    -0.87093881058805D+03

 The electronic state is 1-A.
 Alpha  occ. eigenvalues --  -20.60267 -20.60233 -20.60173 -20.60170 -15.85239
 Alpha  occ. eigenvalues --  -15.85239 -11.30514 -11.30485 -11.27164 -11.27135
 Alpha  occ. eigenvalues --  -11.26943 -11.26937 -11.26881 -11.26851 -11.26164
 Alpha  occ. eigenvalues --  -11.26129 -11.26038 -11.26010  -1.59295  -1.59286
 Alpha  occ. eigenvalues --   -1.38853  -1.38815  -1.18702  -1.18671  -1.08132
 Alpha  occ. eigenvalues --   -1.08105  -1.04080  -1.04051  -0.94992  -0.94925
 Alpha  occ. eigenvalues --   -0.85487  -0.85457  -0.81848  -0.81715  -0.76903
 Alpha  occ. eigenvalues --   -0.76737  -0.71623  -0.71320  -0.70638  -0.70553
 Alpha  occ. eigenvalues --   -0.69809  -0.69787  -0.64369  -0.64311  -0.64093
 Alpha  occ. eigenvalues --   -0.64058  -0.61400  -0.61375  -0.54627  -0.54595
 Alpha  occ. eigenvalues --   -0.52441  -0.52403  -0.52168  -0.52133  -0.48313
 Alpha  occ. eigenvalues --   -0.48301  -0.48179  -0.48149  -0.44391  -0.44113
 Alpha  occ. eigenvalues --   -0.36717  -0.36679  -0.35685  -0.35647
 Alpha virt. eigenvalues --    0.05581   0.05771   0.11965   0.12005   0.17096
 Alpha virt. eigenvalues --    0.17224   0.22009   0.22205   0.27998   0.28078
 Alpha virt. eigenvalues --    0.28805   0.29227   0.31525   0.31695   0.33058

 Mulliken charges:
               1
     1  C   -0.170645
     2  C   -0.219571
     3  C   -0.171739
     4  C    0.155661
     5  C   -0.168336
     6  C   -0.219747
     7  H    0.223533
     8  H    0.220412
     9  H    0.272405
    10  H    0.289400
    11  H    0.224817
    12  N    0.488037
    13  O   -0.454745
    14  O   -0.468297
    15  C   -0.170799
    16  C   -0.219557
    17  C   -0.171748
    18  C    0.155262
    19  C   -0.174657
    20  C   -0.220096
    21  H    0.223602
    22  H    0.220545
    23  H    0.272590
    24  H    0.293646
    25  H    0.225657
    26  N    0.488214
    27  O   -0.456223
    28  O   -0.467623
 Sum of Mulliken charges =  -0.00000

 Dipole moment (field-independent basis, Debye):
    X=              0.1194    Y=             -0.0831    Z=              1.9160  Tot=              1.9215
 Quadrupole moment (field-independent basis, Debye-Ang):
   XX=            -56.7484   YY=           -108.0490   ZZ=           -103.8648
   XY=             15.8652   XZ=             -0.8187   YZ=              0.9880

 Normal termination of Gaussian 16 at Thu May  6 11:21:29 2021.
