 Gaussian 16, Revision A.03,
 Gaussian 16:  EM64L-G16RevA.03 25-Dec-2016

 -------------
 #p 6-31g* mp2
 -------------

 ------------------------------------------------------
 Input file generated by CHIRIPA (05-May-2021 14:51:09)
 ------------------------------------------------------
 Symbolic Z-matrix:
 Charge =  0 Multiplicity = 1

                         Standard orientation:
 ---------------------------------------------------------------------
 Center     Atomic      Atomic             Coordinates (Angstroms)
 Number     Number       Type             X           Y           Z
 ---------------------------------------------------------------------
      1          6           0        2.917786    0.128697    0.873115
      2          6           0        1.563175   -0.507708    1.186169
      3          6           0        0.749087    0.301607    2.196151
      4          1           0        3.489457    0.236068    1.805107
      5          1           0        2.757172    1.144503    0.486157
      6          1           0        1.726235   -1.522518    1.571120
      7          1           0        0.994739   -0.613753    0.253296
      8          1           0        0.557159    1.310325    1.816346
      9          1           0        1.292811    0.396396    3.141657
     10          1           0       -0.215479   -0.171341    2.405419
     11          6           0        3.743279   -0.668764   -0.135025
     12          6           0        5.097890   -0.032359   -0.448078
     13          6           0        5.911978   -0.841674   -1.458061
     14          1           0        3.903893   -1.684570    0.251933
     15          1           0        3.171608   -0.776135   -1.067016
     16          1           0        5.666326    0.073686    0.484794
     17          1           0        4.934831    0.982452   -0.833029
     18          1           0        5.368254   -0.936462   -2.403567
     19          1           0        6.103906   -1.850392   -1.078256
     20          1           0        6.876544   -0.368726   -1.667328
     21          6           0       -3.999034   -0.075931   -0.239251
     22          6           0       -3.937659   -1.594891   -0.403504
     23          6           0       -5.282710   -2.272750   -0.140561
     24          1           0       -4.339113    0.163082    0.777687
     25          1           0       -4.755468    0.329796   -0.925245
     26          1           0       -3.180588   -1.997486    0.281607
     27          1           0       -3.597503   -1.830315   -1.420109
     28          1           0       -6.044288   -1.898950   -0.832569
     29          1           0       -5.625005   -2.067070    0.878816
     30          1           0       -5.216062   -3.358244   -0.263525
     31          6           0       -2.662031    0.615998   -0.498840
     32          6           0       -2.723407    2.134958   -0.334587
     33          6           0       -1.378355    2.812817   -0.597528
     34          1           0       -1.905596    0.210270    0.187154
     35          1           0       -2.321952    0.376985   -1.515778
     36          1           0       -3.063563    2.370382    0.682019
     37          1           0       -3.480477    2.537552   -1.019697
     38          1           0       -1.036060    2.607137   -1.616907
     39          1           0       -0.616776    2.439017    0.094478
     40          1           0       -1.445004    3.898311   -0.474565
 ---------------------------------------------------------------------

 SCF Done:  E(RHF) =  -470.733150007     A.U. after   11 cycles
 E2 =    -0.1583341898D+01 EUMP2 =    -0.47231649190495D+03

 The electronic state is 1-A.
 Alpha  occ. eigenvalues --  -11.21628 -11.21601 -11.21598 -11.21595 -11.21412
 Alpha  occ. eigenvalues --  -11.21391 -11.21351 -11.21329 -11.21141 -11.21071
 Alpha  occ. eigenvalues --  -11.21069 -11.21067  -1.08453  -1.08413  -1.03574
 Alpha  occ. eigenvalues --   -1.03508  -0.96015  -0.95973  -0.87035  -0.86989
 Alpha  occ. eigenvalues --   -0.79635  -0.79571  -0.78257  -0.78232  -0.65171
 Alpha  occ. eigenvalues --   -0.64972  -0.61138  -0.60762  -0.59392  -0.59330
 Alpha  occ. eigenvalues --   -0.57697  -0.57526  -0.55437  -0.55143  -0.52714
 Alpha  occ. eigenvalues --   -0.52670  -0.52518  -0.52320  -0.50103  -0.49782
 Alpha  occ. eigenvalues --   -0.47995  -0.47833  -0.46731  -0.46505  -0.45862
 Alpha  occ. eigenvalues --   -0.45744  -0.45701  -0.45627  -0.43803  -0.43779
 Alpha virt. eigenvalues --    0.20144   0.23039   0.23662   0.24847   0.26001
 Alpha virt. eigenvalues --    0.26326   0.26818   0.27539   0.28123   0.29463
 Alpha virt. eigenvalues --    0.30438   0.31409   0.31733   0.31932   0.32108

 Mulliken charges:
               1
     1  C   -0.298540
     2  C   -0.302209
     3  C   -0.481381
     4  H    0.149666
     5  H    0.149954
     6  H    0.152155
     7  H    0.154594
     8  H    0.159676
     9  H    0.155966
    10  H    0.159877
    11  C   -0.298357
    12  C   -0.299729
    13  C   -0.475718
    14  H    0.149476
    15  H    0.149968
    16  H    0.151890
    17  H    0.152162
    18  H    0.155219
    19  H    0.155141
    20  H    0.160268
    21  C   -0.298174
    22  C   -0.299604
    23  C   -0.475695
    24  H    0.149623
    25  H    0.149537
    26  H    0.151692
    27  H    0.151897
    28  H    0.155202
    29  H    0.155178
    30  H    0.160254
    31  C   -0.304828
    32  C   -0.298685
    33  C   -0.482252
    34  H    0.156910
    35  H    0.148990
    36  H    0.152133
    37  H    0.151926
    38  H    0.154772
    39  H    0.160689
    40  H    0.160358
 Sum of Mulliken charges =  -0.00000

 Dipole moment (field-independent basis, Debye):
    X=              0.0164    Y=             -0.0051    Z=              0.0091  Tot=              0.0194
 Quadrupole moment (field-independent basis, Debye-Ang):
   XX=            -85.8753   YY=            -85.1697   ZZ=            -83.7566
   XY=             -0.4778   XZ=              1.2006   YZ=             -0.7176

 Normal termination of Gaussian 16 at Thu May  6 00:34:59 2021.
