 Gaussian 16, Revision A.03,
 Gaussian 16:  EM64L-G16RevA.03 25-Dec-2016

 -------------
 #p 6-31g* mp2
 -------------

 ------------------------------------------------------
 Input file generated by CHIRIPA (05-May-2021 14:57:22)
 ------------------------------------------------------
 Symbolic Z-matrix:
 Charge =  0 Multiplicity = 1

                         Standard orientation:
 ---------------------------------------------------------------------
 Center     Atomic      Atomic             Coordinates (Angstroms)
 Number     Number       Type             X           Y           Z
 ---------------------------------------------------------------------
      1          6           0       -1.877766    1.057170   -0.790267
      2          6           0       -2.745453    1.684490    0.109793
      3          6           0       -3.950101    1.076569    0.475586
      4          6           0       -4.256858   -0.164426   -0.080400
      5          6           0       -3.413190   -0.814712   -0.979646
      6          6           0       -2.213811   -0.188233   -1.331160
      7          1           0       -0.944013    1.536625   -1.068878
      8          1           0       -2.487071    2.651703    0.531437
      9          1           0       -4.640216    1.539922    1.170181
     10          1           0       -3.698098   -1.778711   -1.383316
     11          1           0       -1.541880   -0.677756   -2.030389
     12          7           0       -5.529376   -0.817828    0.299291
     13          8           0       -5.776547   -1.911286   -0.204587
     14          8           0       -6.255508   -0.224134    1.093580
     15          6           0        1.997010    1.519536    0.295109
     16          6           0        2.704685    1.429095   -0.908027
     17          6           0        3.842003    0.621705   -1.003825
     18          6           0        4.245330   -0.084680    0.128270
     19          6           0        3.561467   -0.015337    1.341041
     20          6           0        2.426900    0.798303    1.413831
     21          1           0        1.114582    2.149163    0.360591
     22          1           0        2.373137    1.988086   -1.778457
     23          1           0        4.408580    0.533366   -1.922848
     24          1           0        3.916321   -0.584454    2.191689
     25          1           0        1.879272    0.866620    2.349502
     26          7           0        5.447901   -0.942735    0.039031
     27          8           0        5.782673   -1.555027    1.050795
     28          8           0        6.032933   -0.986741   -1.040986
 ---------------------------------------------------------------------

 SCF Done:  E(RHF) =  -868.336421161     A.U. after   16 cycles
 E2 =    -0.2600101090D+01 EUMP2 =    -0.87093652225112D+03

 The electronic state is 1-A.
 Alpha  occ. eigenvalues --  -20.61355 -20.61347 -20.61261 -20.61254 -15.86413
 Alpha  occ. eigenvalues --  -15.86318 -11.31946 -11.31825 -11.28544 -11.28492
 Alpha  occ. eigenvalues --  -11.28422 -11.28412 -11.28373 -11.28277 -11.27672
 Alpha  occ. eigenvalues --  -11.27569 -11.27538 -11.27442  -1.60425  -1.60332
 Alpha  occ. eigenvalues --   -1.39974  -1.39882  -1.20146  -1.20021  -1.09543
 Alpha  occ. eigenvalues --   -1.09409  -1.05562  -1.05437  -0.96356  -0.96204
 Alpha  occ. eigenvalues --   -0.86969  -0.86843  -0.83172  -0.83025  -0.78149
 Alpha  occ. eigenvalues --   -0.78042  -0.72628  -0.72534  -0.71751  -0.71657
 Alpha  occ. eigenvalues --   -0.71566  -0.70967  -0.65807  -0.65684  -0.65584
 Alpha  occ. eigenvalues --   -0.65444  -0.62894  -0.62773  -0.56416  -0.55772
 Alpha  occ. eigenvalues --   -0.53899  -0.53745  -0.53660  -0.53537  -0.49401
 Alpha  occ. eigenvalues --   -0.49372  -0.49305  -0.49279  -0.45341  -0.45255
 Alpha  occ. eigenvalues --   -0.38273  -0.37942  -0.37156  -0.37031
 Alpha virt. eigenvalues --    0.04254   0.04573   0.10429   0.10592   0.15551
 Alpha virt. eigenvalues --    0.16081   0.18428   0.21870   0.25360   0.25956
 Alpha virt. eigenvalues --    0.27113   0.29291   0.30260   0.30484   0.32297

 Mulliken charges:
               1
     1  C   -0.171595
     2  C   -0.220265
     3  C   -0.170192
     4  C    0.159253
     5  C   -0.170165
     6  C   -0.217774
     7  H    0.217269
     8  H    0.220091
     9  H    0.277146
    10  H    0.278319
    11  H    0.226380
    12  N    0.487915
    13  O   -0.458144
    14  O   -0.459237
    15  C   -0.172294
    16  C   -0.221275
    17  C   -0.170227
    18  C    0.159456
    19  C   -0.170095
    20  C   -0.217222
    21  H    0.217710
    22  H    0.220879
    23  H    0.277576
    24  H    0.278707
    25  H    0.226587
    26  N    0.487894
    27  O   -0.457793
    28  O   -0.458906
 Sum of Mulliken charges =  -0.00000

 Dipole moment (field-independent basis, Debye):
    X=              0.2936    Y=              5.1012    Z=             -0.9558  Tot=              5.1983
 Quadrupole moment (field-independent basis, Debye-Ang):
   XX=           -178.4878   YY=           -104.0117   ZZ=            -98.5269
   XY=              1.8926   XZ=              4.9617   YZ=              1.7525

 Normal termination of Gaussian 16 at Thu May  6 22:39:48 2021.
