 Gaussian 16, Revision A.03,
 Gaussian 16:  EM64L-G16RevA.03 25-Dec-2016

 -------------
 #p 6-31g* mp2
 -------------

 ------------------------------------------------------
 Input file generated by CHIRIPA (05-May-2021 14:51:10)
 ------------------------------------------------------
 Symbolic Z-matrix:
 Charge =  0 Multiplicity = 1

                         Standard orientation:
 ---------------------------------------------------------------------
 Center     Atomic      Atomic             Coordinates (Angstroms)
 Number     Number       Type             X           Y           Z
 ---------------------------------------------------------------------
      1          6           0        3.534097   -0.554629    0.030537
      2          6           0        3.985954    0.755108   -0.616302
      3          6           0        5.468845    0.749654   -0.988862
      4          1           0        4.138646   -0.740196    0.928885
      5          1           0        3.736664   -1.385318   -0.659620
      6          1           0        3.781325    1.583239    0.074308
      7          1           0        3.380130    0.937675   -1.513108
      8          1           0        5.685247   -0.057010   -1.696721
      9          1           0        6.088722    0.592222   -0.100285
     10          1           0        5.770482    1.695427   -1.449719
     11          6           0        2.054004   -0.564523    0.408631
     12          6           0        1.602146   -1.874260    1.055469
     13          6           0        0.119256   -1.868806    1.428029
     14          1           0        1.851437    0.266166    1.098788
     15          1           0        1.449455   -0.378956   -0.489718
     16          1           0        2.207971   -2.056827    1.952276
     17          1           0        1.806776   -2.702391    0.364860
     18          1           0       -0.500621   -1.711374    0.539453
     19          1           0       -0.097146   -1.062142    2.135888
     20          1           0       -0.182381   -2.814579    1.888887
     21          6           0       -2.711509    1.107800    0.305839
     22          6           0       -2.092745    2.391252   -0.249019
     23          6           0       -1.934033    3.478616    0.814110
     24          1           0       -3.691894    1.340441    0.743638
     25          1           0       -2.084378    0.731406    1.125856
     26          1           0       -2.720116    2.764360   -1.068661
     27          1           0       -1.113803    2.155496   -0.685720
     28          1           0       -1.290562    3.130199    1.628450
     29          1           0       -2.906001    3.742523    1.243333
     30          1           0       -1.489896    4.387265    0.395827
     31          6           0       -2.876592    0.011351   -0.745007
     32          6           0       -3.495356   -1.272100   -0.190148
     33          6           0       -3.654067   -2.359464   -1.253277
     34          1           0       -3.503723    0.387747   -1.565025
     35          1           0       -1.896208   -0.221288   -1.182806
     36          1           0       -4.474298   -1.036343    0.246552
     37          1           0       -2.867985   -1.645208    0.629493
     38          1           0       -2.682100   -2.623372   -1.682500
     39          1           0       -4.297539   -2.011048   -2.067618
     40          1           0       -4.098204   -3.268113   -0.834995
 ---------------------------------------------------------------------

 SCF Done:  E(RHF) =  -470.732795027     A.U. after   11 cycles
 E2 =    -0.1584110858D+01 EUMP2 =    -0.47231690588435D+03

 The electronic state is 1-A.
 Alpha  occ. eigenvalues --  -11.21684 -11.21646 -11.21544 -11.21490 -11.21487
 Alpha  occ. eigenvalues --  -11.21419 -11.21351 -11.21277 -11.21155 -11.21104
 Alpha  occ. eigenvalues --  -11.21040 -11.21038  -1.08510  -1.08370  -1.03609
 Alpha  occ. eigenvalues --   -1.03471  -0.96059  -0.95931  -0.87092  -0.86939
 Alpha  occ. eigenvalues --   -0.79692  -0.79522  -0.78322  -0.78179  -0.65221
 Alpha  occ. eigenvalues --   -0.64970  -0.61150  -0.60754  -0.59421  -0.59298
 Alpha  occ. eigenvalues --   -0.57661  -0.57535  -0.55345  -0.55217  -0.52757
 Alpha  occ. eigenvalues --   -0.52642  -0.52459  -0.52357  -0.50128  -0.49752
 Alpha  occ. eigenvalues --   -0.48031  -0.47833  -0.46751  -0.46501  -0.45989
 Alpha  occ. eigenvalues --   -0.45829  -0.45607  -0.45487  -0.43850  -0.43728
 Alpha virt. eigenvalues --    0.20075   0.23040   0.23725   0.24817   0.24944
 Alpha virt. eigenvalues --    0.25920   0.27212   0.27837   0.28476   0.30011
 Alpha virt. eigenvalues --    0.30504   0.30988   0.31593   0.31757   0.32175

 Mulliken charges:
               1
     1  C   -0.298305
     2  C   -0.299764
     3  C   -0.475762
     4  H    0.149991
     5  H    0.149757
     6  H    0.152117
     7  H    0.151961
     8  H    0.155271
     9  H    0.155270
    10  H    0.160476
    11  C   -0.299152
    12  C   -0.300393
    13  C   -0.482739
    14  H    0.149502
    15  H    0.149440
    16  H    0.152301
    17  H    0.152263
    18  H    0.162839
    19  H    0.156017
    20  H    0.160738
    21  C   -0.300809
    22  C   -0.299997
    23  C   -0.475459
    24  H    0.149262
    25  H    0.153387
    26  H    0.151522
    27  H    0.152591
    28  H    0.154647
    29  H    0.155035
    30  H    0.160087
    31  C   -0.299728
    32  C   -0.306202
    33  C   -0.475653
    34  H    0.149870
    35  H    0.148549
    36  H    0.152114
    37  H    0.159506
    38  H    0.154052
    39  H    0.155119
    40  H    0.160279
 Sum of Mulliken charges =  -0.00000

 Dipole moment (field-independent basis, Debye):
    X=              0.0344    Y=             -0.0225    Z=              0.0300  Tot=              0.0509
 Quadrupole moment (field-independent basis, Debye-Ang):
   XX=            -85.0215   YY=            -85.3513   ZZ=            -84.4290
   XY=             -0.5406   XZ=              0.5850   YZ=             -0.3062

 Normal termination of Gaussian 16 at Wed May  5 16:43:04 2021.
