 Gaussian 16, Revision A.03,
 Gaussian 16:  EM64L-G16RevA.03 25-Dec-2016

 -------------
 #p 6-31g* mp2
 -------------

 ------------------------------------------------------
 Input file generated by CHIRIPA (05-May-2021 14:51:13)
 ------------------------------------------------------
 Symbolic Z-matrix:
 Charge =  0 Multiplicity = 1

                         Standard orientation:
 ---------------------------------------------------------------------
 Center     Atomic      Atomic             Coordinates (Angstroms)
 Number     Number       Type             X           Y           Z
 ---------------------------------------------------------------------
      1          6           0        3.160359    1.207692    0.202566
      2          6           0        2.273030    2.342966   -0.309084
      3          6           0        2.625243    3.694677    0.312701
      4          1           0        3.070358    1.144681    1.295669
      5          1           0        4.211034    1.448057   -0.011214
      6          1           0        1.224235    2.099889   -0.095639
      7          1           0        2.365007    2.403157   -1.401115
      8          1           0        3.662636    3.963266    0.088480
      9          1           0        2.515383    3.658275    1.401373
     10          1           0        1.978708    4.491947   -0.067054
     11          6           0        2.820444   -0.149930   -0.409846
     12          6           0        3.707773   -1.285204    0.101804
     13          6           0        3.355560   -2.636916   -0.519981
     14          1           0        1.769769   -0.390295   -0.196066
     15          1           0        2.910445   -0.086919   -1.502949
     16          1           0        3.615796   -1.345396    1.193835
     17          1           0        4.756568   -1.042127   -0.111641
     18          1           0        3.465420   -2.600513   -1.608653
     19          1           0        2.318167   -2.905505   -0.295760
     20          1           0        4.002095   -3.434185   -0.140226
     21          6           0       -2.579189   -1.142855   -0.089681
     22          6           0       -1.338101   -1.340255    0.781363
     23          6           0       -0.525765   -2.572610    0.382360
     24          1           0       -3.212186   -2.038313   -0.023230
     25          1           0       -2.270813   -1.055359   -1.140701
     26          1           0       -1.648614   -1.425968    1.830578
     27          1           0       -0.708079   -0.444145    0.712982
     28          1           0       -0.187817   -2.491669   -0.655831
     29          1           0       -1.133695   -3.479069    0.468115
     30          1           0        0.356862   -2.694680    1.017914
     31          6           0       -3.401613    0.085093    0.296961
     32          6           0       -4.642702    0.282493   -0.574083
     33          6           0       -5.455038    1.514849   -0.175080
     34          1           0       -3.709990   -0.002403    1.347981
     35          1           0       -2.768617    0.980551    0.230510
     36          1           0       -5.272724   -0.613616   -0.505702
     37          1           0       -4.332189    0.368206   -1.623298
     38          1           0       -4.847108    2.421308   -0.260835
     39          1           0       -5.792987    1.433908    0.863111
     40          1           0       -6.337665    1.636918   -0.810634
 ---------------------------------------------------------------------

 SCF Done:  E(RHF) =  -470.732409877     A.U. after   11 cycles
 E2 =    -0.1584105458D+01 EUMP2 =    -0.47231651533462D+03

 The electronic state is 1-A.
 Alpha  occ. eigenvalues --  -11.21705 -11.21634 -11.21626 -11.21539 -11.21463
 Alpha  occ. eigenvalues --  -11.21401 -11.21379 -11.21306 -11.21163 -11.21095
 Alpha  occ. eigenvalues --  -11.21084 -11.20884  -1.08502  -1.08397  -1.03620
 Alpha  occ. eigenvalues --   -1.03478  -0.96069  -0.95925  -0.87106  -0.86928
 Alpha  occ. eigenvalues --   -0.79707  -0.79525  -0.78309  -0.78220  -0.65255
 Alpha  occ. eigenvalues --   -0.64940  -0.61131  -0.60826  -0.59446  -0.59263
 Alpha  occ. eigenvalues --   -0.57656  -0.57556  -0.55372  -0.55233  -0.52826
 Alpha  occ. eigenvalues --   -0.52625  -0.52473  -0.52299  -0.50082  -0.49792
 Alpha  occ. eigenvalues --   -0.47986  -0.47860  -0.46746  -0.46509  -0.45965
 Alpha  occ. eigenvalues --   -0.45778  -0.45734  -0.45504  -0.43818  -0.43744
 Alpha virt. eigenvalues --    0.20119   0.23101   0.23494   0.24460   0.25931
 Alpha virt. eigenvalues --    0.26891   0.26915   0.27462   0.28302   0.29446
 Alpha virt. eigenvalues --    0.30233   0.31107   0.31794   0.32082   0.32190

 Mulliken charges:
               1
     1  C   -0.297718
     2  C   -0.300344
     3  C   -0.475663
     4  H    0.149524
     5  H    0.149656
     6  H    0.151191
     7  H    0.151958
     8  H    0.155403
     9  H    0.155352
    10  H    0.160109
    11  C   -0.306811
    12  C   -0.298635
    13  C   -0.484424
    14  H    0.158523
    15  H    0.149065
    16  H    0.150767
    17  H    0.151648
    18  H    0.153856
    19  H    0.165872
    20  H    0.159164
    21  C   -0.298574
    22  C   -0.304162
    23  C   -0.480837
    24  H    0.150021
    25  H    0.150262
    26  H    0.152493
    27  H    0.154458
    28  H    0.158206
    29  H    0.156460
    30  H    0.162772
    31  C   -0.298431
    32  C   -0.299724
    33  C   -0.475765
    34  H    0.149612
    35  H    0.149616
    36  H    0.152031
    37  H    0.152164
    38  H    0.155302
    39  H    0.155200
    40  H    0.160402
 Sum of Mulliken charges =  -0.00000

 Dipole moment (field-independent basis, Debye):
    X=             -0.0741    Y=             -0.0234    Z=              0.0037  Tot=              0.0778
 Quadrupole moment (field-independent basis, Debye-Ang):
   XX=            -84.7494   YY=            -86.2138   ZZ=            -83.9467
   XY=              1.0156   XZ=             -0.7588   YZ=             -1.0544

 Normal termination of Gaussian 16 at Thu May  6 07:07:51 2021.
