 Gaussian 16, Revision A.03,
 Gaussian 16:  EM64L-G16RevA.03 25-Dec-2016

 -------------
 #p 6-31g* mp2
 -------------

 ------------------------------------------------------
 Input file generated by CHIRIPA (05-May-2021 14:55:24)
 ------------------------------------------------------
 Symbolic Z-matrix:
 Charge =  0 Multiplicity = 1

                         Standard orientation:
 ---------------------------------------------------------------------
 Center     Atomic      Atomic             Coordinates (Angstroms)
 Number     Number       Type             X           Y           Z
 ---------------------------------------------------------------------
      1          6           0       -1.473304    1.744103    1.113574
      2          6           0       -2.360480    1.038507    1.933070
      3          6           0       -3.197638    0.057245    1.393777
      4          6           0       -3.121031   -0.193843    0.024698
      5          6           0       -2.247655    0.492175   -0.817848
      6          6           0       -1.419818    1.469170   -0.256854
      7          1           0       -0.826600    2.504714    1.540939
      8          1           0       -2.404175    1.249912    2.997704
      9          1           0       -3.893759   -0.503990    2.005208
     10          1           0       -2.226822    0.259182   -1.875533
     11          1           0       -0.731800    2.015574   -0.895696
     12          7           0       -4.002359   -1.230402   -0.557715
     13          8           0       -3.915683   -1.432822   -1.766909
     14          8           0       -4.763133   -1.820810    0.206012
     15          6           0        3.832885   -0.727345   -0.053836
     16          6           0        5.221269   -1.245409    0.322968
     17          6           0        5.252984   -2.761194    0.520926
     18          1           0        3.117383   -1.011242    0.730003
     19          1           0        3.500951   -1.225425   -0.975319
     20          1           0        5.551070   -0.745483    1.242708
     21          1           0        5.933585   -0.960080   -0.461766
     22          1           0        4.949093   -3.275931   -0.396297
     23          1           0        4.564404   -3.060114    1.317862
     24          1           0        6.254926   -3.110090    0.789707
     25          6           0        3.785105    0.786237   -0.255122
     26          6           0        2.396721    1.304303   -0.631926
     27          6           0        2.365006    2.820087   -0.829884
     28          1           0        4.117040    1.284318    0.666361
     29          1           0        4.500607    1.070135   -1.038961
     30          1           0        1.684404    1.018972    0.152808
     31          1           0        2.066919    0.804376   -1.551665
     32          1           0        3.053586    3.119007   -1.626819
     33          1           0        2.668897    3.334823    0.087339
     34          1           0        1.363064    3.168983   -1.098665
 ---------------------------------------------------------------------

 SCF Done:  E(RHF) =  -669.535189724     A.U. after   15 cycles
 E2 =    -0.2092121779D+01 EUMP2 =    -0.67162731150338D+03

 The electronic state is 1-A.
 Alpha  occ. eigenvalues --  -20.60750 -20.60745 -15.85803 -11.31172 -11.27733
 Alpha  occ. eigenvalues --  -11.27716 -11.27470 -11.26759 -11.26710 -11.22443
 Alpha  occ. eigenvalues --  -11.22198 -11.22028 -11.21967 -11.21826 -11.21334
 Alpha  occ. eigenvalues --   -1.59825  -1.39379  -1.19340  -1.09036  -1.08733
 Alpha  occ. eigenvalues --   -1.04746  -1.04172  -0.96634  -0.95569  -0.87642
 Alpha  occ. eigenvalues --   -0.86142  -0.82400  -0.80244  -0.78796  -0.77448
 Alpha  occ. eigenvalues --   -0.72022  -0.71148  -0.70446  -0.65667  -0.64989
 Alpha  occ. eigenvalues --   -0.64799  -0.62162  -0.61556  -0.59998  -0.58215
 Alpha  occ. eigenvalues --   -0.55897  -0.55235  -0.53399  -0.53141  -0.53056
 Alpha  occ. eigenvalues --   -0.52673  -0.50546  -0.48778  -0.48776  -0.48559
 Alpha  occ. eigenvalues --   -0.47263  -0.46342  -0.46238  -0.44784  -0.44416
 Alpha  occ. eigenvalues --   -0.37304  -0.36322
 Alpha virt. eigenvalues --    0.05069   0.11228   0.16541   0.19644   0.22611
 Alpha virt. eigenvalues --    0.23957   0.25752   0.26147   0.26976   0.27822
 Alpha virt. eigenvalues --    0.29271   0.29657   0.30864   0.31543   0.31781

 Mulliken charges:
               1
     1  C   -0.174581
     2  C   -0.218640
     3  C   -0.171367
     4  C    0.158980
     5  C   -0.173340
     6  C   -0.219543
     7  H    0.226187
     8  H    0.223250
     9  H    0.275471
    10  H    0.275867
    11  H    0.232285
    12  N    0.487987
    13  O   -0.460366
    14  O   -0.460522
    15  C   -0.298966
    16  C   -0.300172
    17  C   -0.476090
    18  H    0.150664
    19  H    0.151581
    20  H    0.151642
    21  H    0.152617
    22  H    0.156683
    23  H    0.155841
    24  H    0.161294
    25  C   -0.298434
    26  C   -0.305144
    27  C   -0.480192
    28  H    0.149443
    29  H    0.151515
    30  H    0.153872
    31  H    0.152919
    32  H    0.162150
    33  H    0.156757
    34  H    0.150353
 Sum of Mulliken charges =  -0.00000

 Dipole moment (field-independent basis, Debye):
    X=              3.2601    Y=              3.5824    Z=              2.0498  Tot=              5.2596
 Quadrupole moment (field-independent basis, Debye-Ang):
   XX=           -113.5541   YY=            -97.9774   ZZ=            -89.6856
   XY=            -11.5667   XZ=             -8.7459   YZ=             -0.8650

 Normal termination of Gaussian 16 at Wed May  5 17:37:46 2021.
