 Gaussian 16, Revision A.03,
 Gaussian 16:  EM64L-G16RevA.03 25-Dec-2016

 -------------
 #p 6-31g* mp2
 -------------

 ------------------------------------------------------
 Input file generated by CHIRIPA (05-May-2021 14:53:16)
 ------------------------------------------------------
 Symbolic Z-matrix:
 Charge =  0 Multiplicity = 1

                         Standard orientation:
 ---------------------------------------------------------------------
 Center     Atomic      Atomic             Coordinates (Angstroms)
 Number     Number       Type             X           Y           Z
 ---------------------------------------------------------------------
      1          6           0        3.594323   -0.429575   -0.003571
      2          6           0        4.509754   -1.270892   -0.893603
      3          6           0        4.163000   -2.759626   -0.858584
      4          1           0        3.658035   -0.798158    1.029402
      5          1           0        2.552507   -0.571948   -0.322544
      6          1           0        5.549659   -1.125900   -0.573930
      7          1           0        4.444002   -0.900141   -1.924542
      8          1           0        3.135114   -2.923843   -1.197825
      9          1           0        4.247054   -3.150885    0.160461
     10          1           0        4.829735   -3.342372   -1.501804
     11          6           0        3.928482    1.060884   -0.027990
     12          6           0        3.013051    1.902201    0.862042
     13          6           0        3.359806    3.390935    0.827023
     14          1           0        4.970298    1.203257    0.290984
     15          1           0        3.864770    1.429467   -1.060962
     16          1           0        3.078804    1.531450    1.892982
     17          1           0        1.973146    1.757209    0.542370
     18          1           0        3.275752    3.782194   -0.192022
     19          1           0        4.387692    3.555152    1.166265
     20          1           0        2.693071    3.973680    1.470243
     21          6           0       -1.323017   -1.931028    0.970735
     22          6           0       -2.674245   -1.974285    1.329664
     23          6           0       -3.578362   -1.046031    0.804817
     24          6           0       -3.094785   -0.083761   -0.080327
     25          6           0       -1.754457   -0.014748   -0.457223
     26          6           0       -0.868237   -0.953122    0.080008
     27          1           0       -0.627628   -2.656048    1.383260
     28          1           0       -3.030251   -2.732626    2.021202
     29          1           0       -4.629676   -1.056654    1.065670
     30          1           0       -1.429267    0.752939   -1.148833
     31          1           0        0.180597   -0.917131   -0.200525
     32          7           0       -4.042459    0.904296   -0.642515
     33          8           0       -3.591357    1.742148   -1.420426
     34          8           0       -5.218405    0.822175   -0.294600
 ---------------------------------------------------------------------

 SCF Done:  E(RHF) =  -669.535576422     A.U. after   15 cycles
 E2 =    -0.2091355655D+01 EUMP2 =    -0.67162693207693D+03

 The electronic state is 1-A.
 Alpha  occ. eigenvalues --  -20.60742 -20.60737 -15.85796 -11.31156 -11.27727
 Alpha  occ. eigenvalues --  -11.27723 -11.27457 -11.26738 -11.26709 -11.22414
 Alpha  occ. eigenvalues --  -11.22354 -11.22220 -11.22074 -11.21889 -11.21482
 Alpha  occ. eigenvalues --   -1.59818  -1.39372  -1.19327  -1.09210  -1.08720
 Alpha  occ. eigenvalues --   -1.04731  -1.04216  -0.96675  -0.95557  -0.87684
 Alpha  occ. eigenvalues --   -0.86130  -0.82393  -0.80291  -0.79046  -0.77439
 Alpha  occ. eigenvalues --   -0.72014  -0.71141  -0.70432  -0.65881  -0.64978
 Alpha  occ. eigenvalues --   -0.64718  -0.62087  -0.61606  -0.60041  -0.58283
 Alpha  occ. eigenvalues --   -0.55977  -0.55225  -0.53327  -0.53126  -0.53057
 Alpha  occ. eigenvalues --   -0.52809  -0.50612  -0.48781  -0.48770  -0.48597
 Alpha  occ. eigenvalues --   -0.47333  -0.46550  -0.46482  -0.44779  -0.44499
 Alpha  occ. eigenvalues --   -0.37303  -0.36332
 Alpha virt. eigenvalues --    0.05089   0.11310   0.16550   0.19135   0.22749
 Alpha virt. eigenvalues --    0.23586   0.24491   0.26394   0.27298   0.28172
 Alpha virt. eigenvalues --    0.29388   0.30513   0.31179   0.31350   0.31737

 Mulliken charges:
               1
     1  C   -0.304454
     2  C   -0.299458
     3  C   -0.476157
     4  H    0.150672
     5  H    0.142620
     6  H    0.155736
     7  H    0.154533
     8  H    0.150733
     9  H    0.154898
    10  H    0.164496
    11  C   -0.298577
    12  C   -0.299807
    13  C   -0.476324
    14  H    0.152943
    15  H    0.151713
    16  H    0.152637
    17  H    0.147949
    18  H    0.157097
    19  H    0.156321
    20  H    0.163469
    21  C   -0.173760
    22  C   -0.218529
    23  C   -0.171163
    24  C    0.158933
    25  C   -0.174276
    26  C   -0.226369
    27  H    0.226569
    28  H    0.223312
    29  H    0.275476
    30  H    0.275523
    31  H    0.236326
    32  N    0.488092
    33  O   -0.460578
    34  O   -0.460594
 Sum of Mulliken charges =  -0.00000

 Dipole moment (field-independent basis, Debye):
    X=              3.5518    Y=             -3.4232    Z=              2.0020  Tot=              5.3237
 Quadrupole moment (field-independent basis, Debye-Ang):
   XX=           -111.6021   YY=            -94.7521   ZZ=            -93.6802
   XY=             12.2984   XZ=             -8.2575   YZ=             -1.3492

 Normal termination of Gaussian 16 at Wed May  5 23:35:34 2021.
