 Gaussian 16, Revision A.03,
 Gaussian 16:  EM64L-G16RevA.03 25-Dec-2016

 -------------
 #p 6-31g* mp2
 -------------

 ------------------------------------------------------
 Input file generated by CHIRIPA (05-May-2021 14:57:21)
 ------------------------------------------------------
 Symbolic Z-matrix:
 Charge =  0 Multiplicity = 1

                         Standard orientation:
 ---------------------------------------------------------------------
 Center     Atomic      Atomic             Coordinates (Angstroms)
 Number     Number       Type             X           Y           Z
 ---------------------------------------------------------------------
      1          6           0       -5.186077    0.058797   -0.732105
      2          6           0       -4.699474    1.078708    0.092226
      3          6           0       -3.432620    0.977218    0.674745
      4          6           0       -2.675737   -0.163182    0.410352
      5          6           0       -3.132743   -1.196243   -0.406484
      6          6           0       -4.402539   -1.073427   -0.978394
      7          1           0       -6.171342    0.145920   -1.180499
      8          1           0       -5.305781    1.959149    0.285256
      9          1           0       -3.031373    1.751889    1.316854
     10          1           0       -2.505178   -2.061887   -0.580380
     11          1           0       -4.777869   -1.867066   -1.618167
     12          7           0       -1.333017   -0.281913    1.021423
     13          8           0       -0.685763   -1.296758    0.772852
     14          8           0       -0.953274    0.642119    1.737382
     15          6           0        3.433432   -2.296939    0.039509
     16          6           0        2.420955   -1.923085   -0.850235
     17          6           0        2.115187   -0.573817   -1.051550
     18          6           0        2.845176    0.379558   -0.343394
     19          6           0        3.859620    0.038695    0.549917
     20          6           0        4.148273   -1.316584    0.735518
     21          1           0        3.664313   -3.347417    0.189793
     22          1           0        1.864156   -2.682279   -1.392124
     23          1           0        1.336380   -0.256493   -1.734327
     24          1           0        4.397342    0.818280    1.075770
     25          1           0        4.935102   -1.603999    1.427138
     26          7           0        2.530531    1.811149   -0.548200
     27          8           0        3.188280    2.631836    0.087785
     28          8           0        1.632124    2.085435   -1.340833
 ---------------------------------------------------------------------

 SCF Done:  E(RHF) =  -868.338117929     A.U. after   16 cycles
 E2 =    -0.2600472020D+01 EUMP2 =    -0.87093858994944D+03

 The electronic state is 1-A.
 Alpha  occ. eigenvalues --  -20.60908 -20.60859 -20.59731 -20.59708 -15.85911
 Alpha  occ. eigenvalues --  -15.84772 -11.31208 -11.29910 -11.27829 -11.27717
 Alpha  occ. eigenvalues --  -11.27501 -11.26807 -11.26733 -11.26508 -11.26500
 Alpha  occ. eigenvalues --  -11.26249 -11.25522 -11.25480  -1.59948  -1.58787
 Alpha  occ. eigenvalues --   -1.39508  -1.38356  -1.19373  -1.18072  -1.08783
 Alpha  occ. eigenvalues --   -1.07531  -1.04770  -1.03477  -0.95633  -0.94408
 Alpha  occ. eigenvalues --   -0.86173  -0.84917  -0.82475  -0.81267  -0.77532
 Alpha  occ. eigenvalues --   -0.76330  -0.72149  -0.71276  -0.71015  -0.70491
 Alpha  occ. eigenvalues --   -0.70068  -0.69276  -0.65034  -0.64779  -0.63776
 Alpha  occ. eigenvalues --   -0.63554  -0.62125  -0.60883  -0.55279  -0.54060
 Alpha  occ. eigenvalues --   -0.53099  -0.52868  -0.51776  -0.51638  -0.48908
 Alpha  occ. eigenvalues --   -0.48868  -0.47773  -0.47746  -0.44932  -0.43818
 Alpha  occ. eigenvalues --   -0.37351  -0.36366  -0.36039  -0.34944
 Alpha virt. eigenvalues --    0.04974   0.06280   0.11287   0.12616   0.16486
 Alpha virt. eigenvalues --    0.17803   0.21389   0.22471   0.27270   0.28049
 Alpha virt. eigenvalues --    0.28557   0.29333   0.30993   0.31932   0.32581

 Mulliken charges:
               1
     1  C   -0.170348
     2  C   -0.218132
     3  C   -0.168111
     4  C    0.159737
     5  C   -0.172077
     6  C   -0.218164
     7  H    0.225941
     8  H    0.225023
     9  H    0.278897
    10  H    0.270039
    11  H    0.222215
    12  N    0.488780
    13  O   -0.467574
    14  O   -0.454740
    15  C   -0.169675
    16  C   -0.205302
    17  C   -0.157033
    18  C    0.162145
    19  C   -0.169361
    20  C   -0.217873
    21  H    0.220544
    22  H    0.216805
    23  H    0.267086
    24  H    0.272004
    25  H    0.218668
    26  N    0.490484
    27  O   -0.462759
    28  O   -0.467218
 Sum of Mulliken charges =  -0.00000

 Dipole moment (field-independent basis, Debye):
    X=             -3.8669    Y=             -4.5436    Z=             -1.2912  Tot=              6.1045
 Quadrupole moment (field-independent basis, Debye-Ang):
   XX=            -72.0182   YY=           -105.6173   ZZ=           -105.2759
   XY=            -14.4465   XZ=              8.1628   YZ=              5.9501

 Normal termination of Gaussian 16 at Thu May  6 11:11:26 2021.
