 Gaussian 16, Revision A.03,
 Gaussian 16:  EM64L-G16RevA.03 25-Dec-2016

 -------------
 #p 6-31g* mp2
 -------------

 ------------------------------------------------------
 Input file generated by CHIRIPA (05-May-2021 14:51:12)
 ------------------------------------------------------
 Symbolic Z-matrix:
 Charge =  0 Multiplicity = 1

                         Standard orientation:
 ---------------------------------------------------------------------
 Center     Atomic      Atomic             Coordinates (Angstroms)
 Number     Number       Type             X           Y           Z
 ---------------------------------------------------------------------
      1          6           0       -4.595177   -0.672776   -0.029668
      2          6           0       -5.937694    0.008100   -0.298069
      3          6           0       -7.038053   -0.983465   -0.677283
      4          1           0       -4.291620   -1.235583   -0.923002
      5          1           0       -4.720080   -1.409198    0.776233
      6          1           0       -5.809986    0.744001   -1.102281
      7          1           0       -6.237998    0.569508    0.595941
      8          1           0       -7.194493   -1.710995    0.125729
      9          1           0       -6.764049   -1.535510   -1.582142
     10          1           0       -7.989134   -0.475382   -0.864783
     11          6           0       -3.485114    0.305423    0.350618
     12          6           0       -2.142597   -0.375453    0.619019
     13          6           0       -1.042238    0.616112    0.998233
     14          1           0       -3.360212    1.041845   -0.455283
     15          1           0       -3.788671    0.868230    1.243952
     16          1           0       -1.842293   -0.936861   -0.274991
     17          1           0       -2.270305   -1.111355    1.423231
     18          1           0       -1.316243    1.168157    1.903092
     19          1           0       -0.885799    1.343642    0.195221
     20          1           0       -0.091157    0.108029    1.185733
     21          6           0        3.563573    0.682066    0.168036
     22          6           0        3.146901    1.824186   -0.759286
     23          6           0        2.193433    2.812995   -0.087758
     24          1           0        2.665310    0.151368    0.512170
     25          1           0        4.040942    1.102204    1.064138
     26          1           0        2.671705    1.401956   -1.654007
     27          1           0        4.046274    2.352106   -1.101403
     28          1           0        2.661986    3.261507    0.794227
     29          1           0        1.279606    2.305956    0.238483
     30          1           0        1.908411    3.621233   -0.768472
     31          6           0        4.516718   -0.314712   -0.488986
     32          6           0        4.933390   -1.456833    0.438336
     33          6           0        5.886858   -2.445642   -0.233192
     34          1           0        4.039350   -0.734851   -1.385088
     35          1           0        5.414982    0.215985   -0.833120
     36          1           0        4.034018   -1.984754    0.780454
     37          1           0        5.408587   -1.034602    1.333057
     38          1           0        6.800685   -1.938603   -0.559433
     39          1           0        5.418305   -2.894153   -1.115177
     40          1           0        6.171881   -3.253881    0.447522
 ---------------------------------------------------------------------

 SCF Done:  E(RHF) =  -470.732910033     A.U. after   11 cycles
 E2 =    -0.1582910473D+01 EUMP2 =    -0.47231582050605D+03

 The electronic state is 1-A.
 Alpha  occ. eigenvalues --  -11.21662 -11.21625 -11.21584 -11.21526 -11.21443
 Alpha  occ. eigenvalues --  -11.21383 -11.21369 -11.21308 -11.21154 -11.21090
 Alpha  occ. eigenvalues --  -11.21057 -11.20886  -1.08473  -1.08384  -1.03588
 Alpha  occ. eigenvalues --   -1.03465  -0.96053  -0.95904  -0.87090  -0.86907
 Alpha  occ. eigenvalues --   -0.79695  -0.79495  -0.78288  -0.78193  -0.65118
 Alpha  occ. eigenvalues --   -0.65008  -0.61065  -0.60808  -0.59429  -0.59258
 Alpha  occ. eigenvalues --   -0.57665  -0.57520  -0.55474  -0.55085  -0.52772
 Alpha  occ. eigenvalues --   -0.52620  -0.52524  -0.52248  -0.50126  -0.49708
 Alpha  occ. eigenvalues --   -0.47980  -0.47812  -0.46752  -0.46474  -0.45832
 Alpha  occ. eigenvalues --   -0.45769  -0.45708  -0.45637  -0.43798  -0.43728
 Alpha virt. eigenvalues --    0.21481   0.23014   0.23699   0.24844   0.25877
 Alpha virt. eigenvalues --    0.26515   0.26970   0.27214   0.27849   0.29092
 Alpha virt. eigenvalues --    0.30380   0.30805   0.31566   0.31815   0.32026

 Mulliken charges:
               1
     1  C   -0.298312
     2  C   -0.299680
     3  C   -0.475732
     4  H    0.149651
     5  H    0.149615
     6  H    0.152013
     7  H    0.152041
     8  H    0.155218
     9  H    0.155192
    10  H    0.160362
    11  C   -0.298748
    12  C   -0.299811
    13  C   -0.481728
    14  H    0.149892
    15  H    0.149906
    16  H    0.151899
    17  H    0.152146
    18  H    0.156539
    19  H    0.157664
    20  H    0.162771
    21  C   -0.301312
    22  C   -0.298633
    23  C   -0.485646
    24  H    0.151891
    25  H    0.149546
    26  H    0.151055
    27  H    0.151515
    28  H    0.154390
    29  H    0.167879
    30  H    0.158749
    31  C   -0.298157
    32  C   -0.299584
    33  C   -0.475667
    34  H    0.149343
    35  H    0.149704
    36  H    0.151615
    37  H    0.151942
    38  H    0.155186
    39  H    0.155116
    40  H    0.160170
 Sum of Mulliken charges =  -0.00000

 Dipole moment (field-independent basis, Debye):
    X=             -0.0606    Y=             -0.0088    Z=              0.0209  Tot=              0.0647
 Quadrupole moment (field-independent basis, Debye-Ang):
   XX=            -85.4567   YY=            -85.5823   ZZ=            -83.8954
   XY=              0.4037   XZ=              0.0081   YZ=             -0.3242

 Normal termination of Gaussian 16 at Wed May  5 19:53:47 2021.
