 Gaussian 16, Revision A.03,
 Gaussian 16:  EM64L-G16RevA.03 25-Dec-2016

 -------------
 #p 6-31g* mp2
 -------------

 ------------------------------------------------------
 Input file generated by CHIRIPA (05-May-2021 14:51:08)
 ------------------------------------------------------
 Symbolic Z-matrix:
 Charge =  0 Multiplicity = 1

                         Standard orientation:
 ---------------------------------------------------------------------
 Center     Atomic      Atomic             Coordinates (Angstroms)
 Number     Number       Type             X           Y           Z
 ---------------------------------------------------------------------
      1          6           0        3.941879   -0.296318    0.012632
      2          6           0        2.956211    0.339277    0.993683
      3          6           0        1.499717    0.010101    0.664955
      4          1           0        3.708019    0.045030   -1.005079
      5          1           0        3.801346   -1.386101    0.016819
      6          1           0        3.099507    1.427421    0.988670
      7          1           0        3.192564   -0.003473    2.009201
      8          1           0        1.334354   -1.071872    0.689256
      9          1           0        1.240768    0.367152   -0.337073
     10          1           0        0.812208    0.474492    1.378772
     11          6           0        5.401963    0.023630    0.328095
     12          6           0        6.387632   -0.611965   -0.652956
     13          6           0        7.844126   -0.282789   -0.324228
     14          1           0        5.542497    1.113413    0.323908
     15          1           0        5.635823   -0.317717    1.345806
     16          1           0        6.151278   -0.269214   -1.668474
     17          1           0        6.244336   -1.700108   -0.647943
     18          1           0        8.103075   -0.639840    0.677800
     19          1           0        8.009488    0.799184   -0.348529
     20          1           0        8.531634   -0.747179   -1.038045
     21          6           0       -4.001829    0.136732   -0.536981
     22          6           0       -3.010127    1.162216    0.013379
     23          6           0       -1.674260    1.150937   -0.730345
     24          1           0       -3.555145   -0.865128   -0.476196
     25          1           0       -4.173142    0.338399   -1.603459
     26          1           0       -2.841797    0.959521    1.078835
     27          1           0       -3.459300    2.161728   -0.048546
     28          1           0       -1.822303    1.375268   -1.791646
     29          1           0       -1.201292    0.166230   -0.657860
     30          1           0       -0.980393    1.891565   -0.320614
     31          6           0       -5.342014    0.135956    0.196253
     32          6           0       -6.333715   -0.889528   -0.354107
     33          6           0       -7.669581   -0.878249    0.389619
     34          1           0       -5.170700   -0.065712    1.262733
     35          1           0       -5.788697    1.137816    0.135469
     36          1           0       -5.884543   -1.889041   -0.292181
     37          1           0       -6.502046   -0.686833   -1.419561
     38          1           0       -8.142551    0.106458    0.317133
     39          1           0       -7.521539   -1.102581    1.450920
     40          1           0       -8.363449   -1.618877   -0.020112
 ---------------------------------------------------------------------

 SCF Done:  E(RHF) =  -470.732307876     A.U. after   11 cycles
 E2 =    -0.1582670192D+01 EUMP2 =    -0.47231497806760D+03

 The electronic state is 1-A.
 Alpha  occ. eigenvalues --  -11.21583 -11.21575 -11.21540 -11.21530 -11.21377
 Alpha  occ. eigenvalues --  -11.21364 -11.21317 -11.21303 -11.21058 -11.21051
 Alpha  occ. eigenvalues --  -11.20957 -11.20908  -1.08404  -1.08378  -1.03530
 Alpha  occ. eigenvalues --   -1.03441  -0.96040  -0.95835  -0.87121  -0.86795
 Alpha  occ. eigenvalues --   -0.79685  -0.79425  -0.78228  -0.78180  -0.65046
 Alpha  occ. eigenvalues --   -0.65002  -0.60980  -0.60814  -0.59414  -0.59198
 Alpha  occ. eigenvalues --   -0.57624  -0.57469  -0.55405  -0.55088  -0.52846
 Alpha  occ. eigenvalues --   -0.52507  -0.52407  -0.52216  -0.50032  -0.49670
 Alpha  occ. eigenvalues --   -0.47966  -0.47764  -0.46678  -0.46470  -0.45795
 Alpha  occ. eigenvalues --   -0.45706  -0.45684  -0.45614  -0.43819  -0.43619
 Alpha virt. eigenvalues --    0.22453   0.22937   0.23656   0.24776   0.26484
 Alpha virt. eigenvalues --    0.26641   0.27054   0.27409   0.27676   0.29152
 Alpha virt. eigenvalues --    0.30528   0.31086   0.31390   0.32110   0.32192

 Mulliken charges:
               1
     1  C   -0.298419
     2  C   -0.300738
     3  C   -0.476997
     4  H    0.149739
     5  H    0.149278
     6  H    0.151493
     7  H    0.151247
     8  H    0.153193
     9  H    0.160372
    10  H    0.160882
    11  C   -0.298198
    12  C   -0.299611
    13  C   -0.475682
    14  H    0.149455
    15  H    0.149560
    16  H    0.151932
    17  H    0.151848
    18  H    0.155129
    19  H    0.155156
    20  H    0.160188
    21  C   -0.298461
    22  C   -0.300300
    23  C   -0.478093
    24  H    0.149776
    25  H    0.149358
    26  H    0.151492
    27  H    0.151295
    28  H    0.153237
    29  H    0.161341
    30  H    0.160928
    31  C   -0.298227
    32  C   -0.299604
    33  C   -0.475672
    34  H    0.149417
    35  H    0.149533
    36  H    0.151888
    37  H    0.151857
    38  H    0.155125
    39  H    0.155130
    40  H    0.160154
 Sum of Mulliken charges =  -0.00000

 Dipole moment (field-independent basis, Debye):
    X=              0.0053    Y=             -0.0035    Z=             -0.0119  Tot=              0.0135
 Quadrupole moment (field-independent basis, Debye-Ang):
   XX=            -87.2217   YY=            -83.6675   ZZ=            -84.2548
   XY=             -0.5252   XZ=              0.5429   YZ=             -0.9308

 Normal termination of Gaussian 16 at Thu May  6 16:32:56 2021.
