 Gaussian 16, Revision A.03,
 Gaussian 16:  EM64L-G16RevA.03 25-Dec-2016

 -------------
 #p 6-31g* mp2
 -------------

 ------------------------------------------------------
 Input file generated by CHIRIPA (05-May-2021 14:57:27)
 ------------------------------------------------------
 Symbolic Z-matrix:
 Charge =  0 Multiplicity = 1

                         Standard orientation:
 ---------------------------------------------------------------------
 Center     Atomic      Atomic             Coordinates (Angstroms)
 Number     Number       Type             X           Y           Z
 ---------------------------------------------------------------------
      1          6           0       -3.948067   -1.683592   -0.772228
      2          6           0       -4.504035   -0.667983    0.012603
      3          6           0       -3.737585    0.439335    0.388035
      4          6           0       -2.412545    0.498985   -0.040916
      5          6           0       -1.830015   -0.496764   -0.823497
      6          6           0       -2.615182   -1.594898   -1.187042
      7          1           0       -4.550734   -2.540216   -1.059255
      8          1           0       -5.538899   -0.734208    0.336202
      9          1           0       -4.142757    1.239816    0.995065
     10          1           0       -0.795541   -0.402759   -1.130813
     11          1           0       -2.180765   -2.382141   -1.796610
     12          7           0       -1.591231    1.666391    0.350245
     13          8           0       -0.426293    1.695313   -0.040547
     14          8           0       -2.127976    2.530378    1.040222
     15          6           0        1.964573   -1.523648    2.237142
     16          6           0        2.256959   -0.156172    2.269376
     17          6           0        2.581470    0.528392    1.094380
     18          6           0        2.604301   -0.188921   -0.100707
     19          6           0        2.317789   -1.551648   -0.165312
     20          6           0        1.995865   -2.215802    1.022043
     21          1           0        1.713489   -2.047506    3.154707
     22          1           0        2.233428    0.383926    3.211600
     23          1           0        2.812060    1.586801    1.090665
     24          1           0        2.349379   -2.063047   -1.119719
     25          1           0        1.769237   -3.277828    0.994005
     26          7           0        2.946477    0.524992   -1.351165
     27          8           0        2.959726   -0.129753   -2.391246
     28          8           0        3.194947    1.725785   -1.267514
 ---------------------------------------------------------------------

 SCF Done:  E(RHF) =  -868.338100717     A.U. after   16 cycles
 E2 =    -0.2601749879D+01 EUMP2 =    -0.87093985059591D+03

 The electronic state is 1-A.
 Alpha  occ. eigenvalues --  -20.60931 -20.60898 -20.60220 -20.60130 -15.85951
 Alpha  occ. eigenvalues --  -15.85230 -11.31279 -11.30633 -11.27870 -11.27822
 Alpha  occ. eigenvalues --  -11.27615 -11.27367 -11.27112 -11.27050 -11.26876
 Alpha  occ. eigenvalues --  -11.26857 -11.26388 -11.26185  -1.59981  -1.59240
 Alpha  occ. eigenvalues --   -1.39537  -1.38795  -1.19460  -1.18840  -1.08867
 Alpha  occ. eigenvalues --   -1.08234  -1.04858  -1.04261  -0.95707  -0.95057
 Alpha  occ. eigenvalues --   -0.86260  -0.85661  -0.82543  -0.81897  -0.77594
 Alpha  occ. eigenvalues --   -0.76921  -0.72213  -0.71462  -0.71299  -0.70574
 Alpha  occ. eigenvalues --   -0.70516  -0.69977  -0.65118  -0.64867  -0.64507
 Alpha  occ. eigenvalues --   -0.64285  -0.62207  -0.61609  -0.55376  -0.54796
 Alpha  occ. eigenvalues --   -0.53195  -0.52990  -0.52536  -0.52365  -0.48941
 Alpha  occ. eigenvalues --   -0.48933  -0.48236  -0.48190  -0.44944  -0.44192
 Alpha  occ. eigenvalues --   -0.37461  -0.36816  -0.36485  -0.35788
 Alpha virt. eigenvalues --    0.04887   0.05686   0.11187   0.11750   0.16437
 Alpha virt. eigenvalues --    0.17097   0.21236   0.21855   0.26979   0.27793
 Alpha virt. eigenvalues --    0.28015   0.28806   0.30605   0.31338   0.32198

 Mulliken charges:
               1
     1  C   -0.170800
     2  C   -0.219155
     3  C   -0.171091
     4  C    0.157233
     5  C   -0.168914
     6  C   -0.220455
     7  H    0.225389
     8  H    0.223235
     9  H    0.275232
    10  H    0.277917
    11  H    0.223202
    12  N    0.489699
    13  O   -0.461396
    14  O   -0.461387
    15  C   -0.171997
    16  C   -0.220807
    17  C   -0.151500
    18  C    0.163917
    19  C   -0.182303
    20  C   -0.219672
    21  H    0.222861
    22  H    0.224463
    23  H    0.281660
    24  H    0.269699
    25  H    0.218087
    26  N    0.488837
    27  O   -0.469841
    28  O   -0.452115
 Sum of Mulliken charges =  -0.00000

 Dipole moment (field-independent basis, Debye):
    X=             -4.0737    Y=             -6.2406    Z=              3.1148  Tot=              8.0773
 Quadrupole moment (field-independent basis, Debye-Ang):
   XX=            -95.0818   YY=           -104.6525   ZZ=           -104.3627
   XY=              1.9735   XZ=             13.5877   YZ=              2.6341

 Normal termination of Gaussian 16 at Thu May  6 13:09:47 2021.
