 Gaussian 16, Revision A.03,
 Gaussian 16:  EM64L-G16RevA.03 25-Dec-2016

 -------------
 #p 6-31g* mp2
 -------------

 ------------------------------------------------------
 Input file generated by CHIRIPA (05-May-2021 14:53:18)
 ------------------------------------------------------
 Symbolic Z-matrix:
 Charge =  0 Multiplicity = 1

                         Standard orientation:
 ---------------------------------------------------------------------
 Center     Atomic      Atomic             Coordinates (Angstroms)
 Number     Number       Type             X           Y           Z
 ---------------------------------------------------------------------
      1          6           0       -2.549950    0.008349    0.255468
      2          6           0       -4.004619   -0.462054    0.280827
      3          6           0       -4.152922   -1.897790    0.785270
      4          1           0       -1.963587   -0.667998   -0.381460
      5          1           0       -2.128470   -0.071213    1.267110
      6          1           0       -4.423647   -0.380322   -0.730287
      7          1           0       -4.587626    0.215603    0.917616
      8          1           0       -3.760747   -1.990918    1.803173
      9          1           0       -3.595836   -2.590229    0.145907
     10          1           0       -5.200789   -2.213601    0.795205
     11          6           0       -2.385443    1.441762   -0.246522
     12          6           0       -0.930774    1.912166   -0.271881
     13          6           0       -0.782471    3.347902   -0.776324
     14          1           0       -2.806923    1.521325   -1.258164
     15          1           0       -2.971806    2.118109    0.390406
     16          1           0       -0.347767    1.234508   -0.908670
     17          1           0       -0.511746    1.830434    0.739233
     18          1           0       -1.339557    4.040340   -0.136961
     19          1           0       -1.174646    3.441029   -1.794227
     20          1           0        0.265396    3.663712   -0.786259
     21          6           0        2.671058    0.275939    2.255710
     22          6           0        3.351633    0.675826    1.100967
     23          6           0        2.948640    0.215349   -0.156056
     24          6           0        1.856040   -0.647889   -0.221906
     25          6           0        1.157548   -1.064404    0.910309
     26          6           0        1.578114   -0.591370    2.156870
     27          1           0        2.990938    0.638526    3.228131
     28          1           0        4.200767    1.349308    1.174711
     29          1           0        3.457502    0.508959   -1.066150
     30          1           0        0.314668   -1.736626    0.805002
     31          1           0        1.047681   -0.903602    3.051967
     32          7           0        1.420109   -1.142022   -1.547121
     33          8           0        0.454505   -1.901808   -1.578291
     34          8           0        2.052283   -0.760180   -2.529562
 ---------------------------------------------------------------------

 SCF Done:  E(RHF) =  -669.535249846     A.U. after   15 cycles
 E2 =    -0.2095186534D+01 EUMP2 =    -0.67163043637947D+03

 The electronic state is 1-A.
 Alpha  occ. eigenvalues --  -20.60940 -20.60935 -15.85950 -11.31174 -11.27789
 Alpha  occ. eigenvalues --  -11.27741 -11.27538 -11.26790 -11.26777 -11.21438
 Alpha  occ. eigenvalues --  -11.21395 -11.21186 -11.21110 -11.20950 -11.20920
 Alpha  occ. eigenvalues --   -1.59998  -1.39555  -1.19388  -1.08814  -1.08240
 Alpha  occ. eigenvalues --   -1.04777  -1.03365  -0.95819  -0.95655  -0.86838
 Alpha  occ. eigenvalues --   -0.86185  -0.82496  -0.79448  -0.78138  -0.77511
 Alpha  occ. eigenvalues --   -0.72184  -0.71320  -0.70506  -0.65069  -0.64837
 Alpha  occ. eigenvalues --   -0.64781  -0.62132  -0.60756  -0.59206  -0.57440
 Alpha  occ. eigenvalues --   -0.55300  -0.55094  -0.53193  -0.52887  -0.52482
 Alpha  occ. eigenvalues --   -0.52234  -0.49763  -0.48954  -0.48933  -0.47736
 Alpha  occ. eigenvalues --   -0.46475  -0.45700  -0.45566  -0.44762  -0.43607
 Alpha  occ. eigenvalues --   -0.37312  -0.36335
 Alpha virt. eigenvalues --    0.04922   0.11225   0.16377   0.21093   0.23116
 Alpha virt. eigenvalues --    0.24233   0.26393   0.26502   0.27760   0.28169
 Alpha virt. eigenvalues --    0.28797   0.30938   0.31356   0.31750   0.32035

 Mulliken charges:
               1
     1  C   -0.311326
     2  C   -0.298364
     3  C   -0.477453
     4  H    0.169395
     5  H    0.138169
     6  H    0.155293
     7  H    0.149385
     8  H    0.148767
     9  H    0.161196
    10  H    0.160480
    11  C   -0.296774
    12  C   -0.301524
    13  C   -0.474968
    14  H    0.153263
    15  H    0.146877
    16  H    0.152170
    17  H    0.150140
    18  H    0.153130
    19  H    0.158299
    20  H    0.157340
    21  C   -0.170504
    22  C   -0.218434
    23  C   -0.171431
    24  C    0.155749
    25  C   -0.165929
    26  C   -0.220294
    27  H    0.225718
    28  H    0.223457
    29  H    0.275472
    30  H    0.277688
    31  H    0.223597
    32  N    0.491306
    33  O   -0.460958
    34  O   -0.458932
 Sum of Mulliken charges =  -0.00000

 Dipole moment (field-independent basis, Debye):
    X=              1.6055    Y=              1.6648    Z=              4.5286  Tot=              5.0850
 Quadrupole moment (field-independent basis, Debye-Ang):
   XX=            -86.8208   YY=            -97.3541   ZZ=            -95.6272
   XY=              4.3067   XZ=              7.0581   YZ=             -4.0129

 Normal termination of Gaussian 16 at Wed May  5 18:49:30 2021.
