 Gaussian 16, Revision A.03,
 Gaussian 16:  EM64L-G16RevA.03 25-Dec-2016

 -------------
 #p 6-31g* mp2
 -------------

 ------------------------------------------------------
 Input file generated by CHIRIPA (05-May-2021 14:53:17)
 ------------------------------------------------------
 Symbolic Z-matrix:
 Charge =  0 Multiplicity = 1

                         Standard orientation:
 ---------------------------------------------------------------------
 Center     Atomic      Atomic             Coordinates (Angstroms)
 Number     Number       Type             X           Y           Z
 ---------------------------------------------------------------------
      1          6           0        3.650447    0.677355   -0.000572
      2          6           0        3.311503    1.576066    1.189143
      3          6           0        2.296765    2.664439    0.837653
      4          1           0        4.042938    1.296022   -0.819197
      5          1           0        2.727715    0.212625   -0.374719
      6          1           0        4.234793    2.037885    1.561803
      7          1           0        2.919953    0.955164    2.005099
      8          1           0        1.360374    2.219118    0.486281
      9          1           0        2.682685    3.307991    0.040466
     10          1           0        2.068883    3.295272    1.702511
     11          6           0        4.663618   -0.415597    0.335088
     12          6           0        5.002562   -1.314307   -0.854627
     13          6           0        6.017300   -2.402680   -0.503137
     14          1           0        5.586350    0.049134    0.709235
     15          1           0        4.271127   -1.034264    1.153713
     16          1           0        5.394112   -0.693405   -1.670584
     17          1           0        4.079272   -1.776126   -1.227287
     18          1           0        5.631380   -3.046232    0.294050
     19          1           0        6.953691   -1.957359   -0.151765
     20          1           0        6.245182   -3.033514   -1.367995
     21          6           0       -5.084344   -1.661495    0.618560
     22          6           0       -3.745569   -1.995568    0.847894
     23          6           0       -2.719684   -1.139210    0.437089
     24          6           0       -3.070120    0.048493   -0.203104
     25          6           0       -4.394547    0.409321   -0.445975
     26          6           0       -5.403997   -0.462231   -0.026506
     27          1           0       -5.874893   -2.332636    0.941048
     28          1           0       -3.494366   -2.926270    1.348629
     29          1           0       -1.674928   -1.373148    0.601943
     30          1           0       -4.613813    1.344062   -0.947571
     31          1           0       -6.442836   -0.200197   -0.205940
     32          7           0       -1.992761    0.963123   -0.642590
     33          8           0       -2.327790    2.003605   -1.204541
     34          8           0       -0.833697    0.622209   -0.416788
 ---------------------------------------------------------------------

 SCF Done:  E(RHF) =  -669.536487665     A.U. after   15 cycles
 E2 =    -0.2091042788D+01 EUMP2 =    -0.67162753045330D+03

 The electronic state is 1-A.
 Alpha  occ. eigenvalues --  -20.61042 -20.61034 -15.86064 -11.31352 -11.27912
 Alpha  occ. eigenvalues --  -11.27905 -11.27641 -11.26909 -11.26899 -11.20978
 Alpha  occ. eigenvalues --  -11.20614 -11.20605 -11.20459 -11.20265 -11.19463
 Alpha  occ. eigenvalues --   -1.60091  -1.39649  -1.19515  -1.08925  -1.07517
 Alpha  occ. eigenvalues --   -1.04907  -1.02580  -0.95773  -0.95011  -0.86309
 Alpha  occ. eigenvalues --   -0.86024  -0.82609  -0.78687  -0.77667  -0.77278
 Alpha  occ. eigenvalues --   -0.72287  -0.71400  -0.70624  -0.65173  -0.64909
 Alpha  occ. eigenvalues --   -0.64152  -0.62254  -0.59974  -0.58445  -0.56618
 Alpha  occ. eigenvalues --   -0.55413  -0.54287  -0.53239  -0.52998  -0.51733
 Alpha  occ. eigenvalues --   -0.51424  -0.49199  -0.49035  -0.48783  -0.46966
 Alpha  occ. eigenvalues --   -0.45733  -0.45060  -0.44836  -0.44660  -0.42845
 Alpha  occ. eigenvalues --   -0.37491  -0.36506
 Alpha virt. eigenvalues --    0.04846   0.11150   0.16341   0.21271   0.23696
 Alpha virt. eigenvalues --    0.25297   0.27204   0.27467   0.28101   0.28480
 Alpha virt. eigenvalues --    0.29073   0.30852   0.32219   0.32466   0.32609

 Mulliken charges:
               1
     1  C   -0.300738
     2  C   -0.296948
     3  C   -0.488279
     4  H    0.148121
     5  H    0.160554
     6  H    0.145821
     7  H    0.146785
     8  H    0.185274
     9  H    0.151151
    10  H    0.151913
    11  C   -0.297321
    12  C   -0.298896
    13  C   -0.475009
    14  H    0.147027
    15  H    0.146075
    16  H    0.151869
    17  H    0.151686
    18  H    0.152944
    19  H    0.154336
    20  H    0.158218
    21  C   -0.170461
    22  C   -0.218526
    23  C   -0.170623
    24  C    0.157827
    25  C   -0.170465
    26  C   -0.218586
    27  H    0.226225
    28  H    0.224005
    29  H    0.275445
    30  H    0.276080
    31  H    0.224049
    32  N    0.490402
    33  O   -0.457583
    34  O   -0.462374
 Sum of Mulliken charges =  -0.00000

 Dipole moment (field-independent basis, Debye):
    X=             -4.2056    Y=             -3.2298    Z=              1.4324  Tot=              5.4927
 Quadrupole moment (field-independent basis, Debye-Ang):
   XX=            -70.4293   YY=            -94.1888   ZZ=            -95.7034
   XY=              8.4298   XZ=             -3.2653   YZ=             -1.0733

 Normal termination of Gaussian 16 at Thu May  6 18:56:14 2021.
