 Gaussian 16, Revision A.03,
 Gaussian 16:  EM64L-G16RevA.03 25-Dec-2016

 -------------
 #p 6-31g* mp2
 -------------

 ------------------------------------------------------
 Input file generated by CHIRIPA (05-May-2021 14:55:23)
 ------------------------------------------------------
 Symbolic Z-matrix:
 Charge =  0 Multiplicity = 1

                         Standard orientation:
 ---------------------------------------------------------------------
 Center     Atomic      Atomic             Coordinates (Angstroms)
 Number     Number       Type             X           Y           Z
 ---------------------------------------------------------------------
      1          6           0        4.173279   -1.772602    0.662153
      2          6           0        3.365292   -1.762796   -0.479593
      3          6           0        2.685538   -0.601339   -0.858408
      4          6           0        2.837089    0.537488   -0.068854
      5          6           0        3.634762    0.559256    1.074183
      6          6           0        4.305202   -0.613588    1.434036
      7          1           0        4.697710   -2.679273    0.949060
      8          1           0        3.260979   -2.661428   -1.080944
      9          1           0        2.053543   -0.565919   -1.737467
     10          1           0        3.719147    1.470580    1.653653
     11          1           0        4.932016   -0.618287    2.321238
     12          7           0        2.122393    1.773098   -0.459851
     13          8           0        2.272457    2.763300    0.252621
     14          8           0        1.425685    1.727969   -1.471384
     15          6           0       -3.274878   -0.721864   -0.483488
     16          6           0       -1.879641   -0.891044    0.118737
     17          6           0       -0.875752   -1.481369   -0.871979
     18          1           0       -3.635955   -1.697738   -0.835961
     19          1           0       -3.208403   -0.074731   -1.369036
     20          1           0       -1.948939   -1.536543    1.003692
     21          1           0       -1.521921    0.085313    0.469992
     22          1           0       -0.777103   -0.836212   -1.750979
     23          1           0       -1.206548   -2.467285   -1.214247
     24          1           0        0.114996   -1.593722   -0.420698
     25          6           0       -4.289612   -0.132777    0.494785
     26          6           0       -5.684850    0.036403   -0.107440
     27          6           0       -6.688738    0.626728    0.883276
     28          1           0       -4.356087   -0.779910    1.380333
     29          1           0       -3.928534    0.843096    0.847258
     30          1           0       -6.042569   -0.939955   -0.458695
     31          1           0       -5.615551    0.681902   -0.992395
     32          1           0       -6.357942    1.612643    1.225544
     33          1           0       -6.787388   -0.018429    1.762276
     34          1           0       -7.679487    0.739081    0.431996
 ---------------------------------------------------------------------

 SCF Done:  E(RHF) =  -669.535048652     A.U. after   15 cycles
 E2 =    -0.2092456847D+01 EUMP2 =    -0.67162750549843D+03

 The electronic state is 1-A.
 Alpha  occ. eigenvalues --  -20.60826 -20.60816 -15.85869 -11.31197 -11.27794
 Alpha  occ. eigenvalues --  -11.27747 -11.27535 -11.26786 -11.26773 -11.21338
 Alpha  occ. eigenvalues --  -11.21311 -11.21088 -11.21028 -11.20895 -11.20805
 Alpha  occ. eigenvalues --   -1.59892  -1.39446  -1.19395  -1.08787  -1.08134
 Alpha  occ. eigenvalues --   -1.04800  -1.03272  -0.95774  -0.95600  -0.86793
 Alpha  occ. eigenvalues --   -0.86172  -0.82459  -0.79355  -0.77945  -0.77499
 Alpha  occ. eigenvalues --   -0.72089  -0.71214  -0.70504  -0.65044  -0.64816
 Alpha  occ. eigenvalues --   -0.64726  -0.62163  -0.60648  -0.59140  -0.57372
 Alpha  occ. eigenvalues --   -0.55309  -0.55001  -0.53307  -0.52903  -0.52292
 Alpha  occ. eigenvalues --   -0.52114  -0.49668  -0.48844  -0.48838  -0.47663
 Alpha  occ. eigenvalues --   -0.46349  -0.45494  -0.45394  -0.44846  -0.43546
 Alpha  occ. eigenvalues --   -0.37371  -0.36320
 Alpha virt. eigenvalues --    0.05006   0.11243   0.16448   0.21267   0.23191
 Alpha virt. eigenvalues --    0.24539   0.26519   0.27087   0.27736   0.27976
 Alpha virt. eigenvalues --    0.28949   0.30390   0.31594   0.31872   0.32303

 Mulliken charges:
               1
     1  C   -0.170156
     2  C   -0.220308
     3  C   -0.171109
     4  C    0.157600
     5  C   -0.170683
     6  C   -0.218928
     7  H    0.225833
     8  H    0.224505
     9  H    0.280916
    10  H    0.275648
    11  H    0.223492
    12  N    0.488509
    13  O   -0.460312
    14  O   -0.461123
    15  C   -0.299043
    16  C   -0.297998
    17  C   -0.486831
    18  H    0.146952
    19  H    0.154053
    20  H    0.148723
    21  H    0.157752
    22  H    0.163891
    23  H    0.150590
    24  H    0.158128
    25  C   -0.298787
    26  C   -0.299675
    27  C   -0.475707
    28  H    0.147498
    29  H    0.152793
    30  H    0.150412
    31  H    0.153452
    32  H    0.156343
    33  H    0.153998
    34  H    0.159572
 Sum of Mulliken charges =  -0.00000

 Dipole moment (field-independent basis, Debye):
    X=              2.5769    Y=             -4.2446    Z=              1.3480  Tot=              5.1453
 Quadrupole moment (field-independent basis, Debye-Ang):
   XX=            -81.0766   YY=            -98.3785   ZZ=            -92.3811
   XY=             -9.8568   XZ=              6.1004   YZ=              2.6300

 Normal termination of Gaussian 16 at Thu May  6 15:56:01 2021.
