 Gaussian 16, Revision A.03,
 Gaussian 16:  EM64L-G16RevA.03 25-Dec-2016

 -------------
 #p 6-31g* mp2
 -------------

 ------------------------------------------------------
 Input file generated by CHIRIPA (05-May-2021 14:53:11)
 ------------------------------------------------------
 Symbolic Z-matrix:
 Charge =  0 Multiplicity = 1

                         Standard orientation:
 ---------------------------------------------------------------------
 Center     Atomic      Atomic             Coordinates (Angstroms)
 Number     Number       Type             X           Y           Z
 ---------------------------------------------------------------------
      1          6           0       -2.626854    1.194081    0.131639
      2          6           0       -1.732573    2.187506   -0.610895
      3          6           0       -2.085514    3.643483   -0.305352
      4          1           0       -3.675349    1.382773   -0.136684
      5          1           0       -2.543679    1.373438    1.212522
      6          1           0       -1.816348    2.005422   -1.689988
      7          1           0       -0.686069    1.996303   -0.340920
      8          1           0       -1.983764    3.848008    0.765357
      9          1           0       -3.120466    3.857179   -0.591376
     10          1           0       -1.433947    4.336599   -0.846564
     11          6           0       -2.286295   -0.265579   -0.163555
     12          6           0       -3.180576   -1.259003    0.578979
     13          6           0       -2.827635   -2.714980    0.273436
     14          1           0       -2.369470   -0.444936   -1.244438
     15          1           0       -1.237800   -0.454270    0.104768
     16          1           0       -4.227080   -1.067800    0.309004
     17          1           0       -3.096801   -1.076919    1.658072
     18          1           0       -1.792683   -2.928676    0.559460
     19          1           0       -2.929385   -2.919506   -0.797273
     20          1           0       -3.479202   -3.408097    0.814648
     21          6           0        2.709934    1.952825    0.628116
     22          6           0        2.330561    1.053295    1.629837
     23          6           0        1.890842   -0.232249    1.300333
     24          6           0        1.842754   -0.586552   -0.047052
     25          6           0        2.213995    0.287075   -1.067955
     26          6           0        2.650544    1.567523   -0.715214
     27          1           0        3.050287    2.949487    0.893108
     28          1           0        2.375659    1.349789    2.673917
     29          1           0        1.591202   -0.948572    2.055657
     30          1           0        2.158239   -0.037314   -2.099983
     31          1           0        2.944547    2.264020   -1.495278
     32          7           0        1.378920   -1.944803   -0.408182
     33          8           0        1.345673   -2.232605   -1.602628
     34          8           0        1.057398   -2.695878    0.510048
 ---------------------------------------------------------------------

 SCF Done:  E(RHF) =  -669.536056884     A.U. after   15 cycles
 E2 =    -0.2094757941D+01 EUMP2 =    -0.67163081482534D+03

 The electronic state is 1-A.
 Alpha  occ. eigenvalues --  -20.60999 -20.60985 -15.86007 -11.31337 -11.27909
 Alpha  occ. eigenvalues --  -11.27897 -11.27655 -11.26923 -11.26913 -11.21527
 Alpha  occ. eigenvalues --  -11.21199 -11.21192 -11.21001 -11.20941 -11.19907
 Alpha  occ. eigenvalues --   -1.60043  -1.39601  -1.19523  -1.08923  -1.08115
 Alpha  occ. eigenvalues --   -1.04912  -1.03134  -0.95760  -0.95566  -0.86580
 Alpha  occ. eigenvalues --   -0.86310  -0.82590  -0.79234  -0.77917  -0.77639
 Alpha  occ. eigenvalues --   -0.72237  -0.71363  -0.70618  -0.65174  -0.64910
 Alpha  occ. eigenvalues --   -0.64753  -0.62255  -0.60533  -0.59024  -0.57173
 Alpha  occ. eigenvalues --   -0.55413  -0.54858  -0.53283  -0.53000  -0.52257
 Alpha  occ. eigenvalues --   -0.51986  -0.49527  -0.48996  -0.48988  -0.47509
 Alpha  occ. eigenvalues --   -0.46282  -0.45508  -0.45390  -0.44757  -0.43408
 Alpha  occ. eigenvalues --   -0.37463  -0.36497
 Alpha virt. eigenvalues --    0.04842   0.11108   0.16303   0.21273   0.23022
 Alpha virt. eigenvalues --    0.24678   0.26551   0.27205   0.27500   0.28164
 Alpha virt. eigenvalues --    0.28575   0.30817   0.31760   0.31940   0.32315

 Mulliken charges:
               1
     1  C   -0.296718
     2  C   -0.304334
     3  C   -0.474649
     4  H    0.149600
     5  H    0.146432
     6  H    0.151192
     7  H    0.154711
     8  H    0.152815
     9  H    0.156388
    10  H    0.155718
    11  C   -0.299855
    12  C   -0.298401
    13  C   -0.486511
    14  H    0.152405
    15  H    0.145156
    16  H    0.148712
    17  H    0.147584
    18  H    0.178560
    19  H    0.155424
    20  H    0.155391
    21  C   -0.170732
    22  C   -0.218027
    23  C   -0.172842
    24  C    0.157007
    25  C   -0.170064
    26  C   -0.218057
    27  H    0.226720
    28  H    0.224270
    29  H    0.275959
    30  H    0.276463
    31  H    0.224579
    32  N    0.492180
    33  O   -0.456971
    34  O   -0.460103
 Sum of Mulliken charges =  -0.00000

 Dipole moment (field-independent basis, Debye):
    X=              1.8756    Y=              4.6452    Z=              1.2137  Tot=              5.1545
 Quadrupole moment (field-independent basis, Debye-Ang):
   XX=            -89.3412   YY=           -102.0849   ZZ=            -89.5611
   XY=              8.4708   XZ=              2.1891   YZ=             -2.1733

 Normal termination of Gaussian 16 at Wed May  5 16:57:43 2021.
