 Gaussian 16, Revision A.03,
 Gaussian 16:  EM64L-G16RevA.03 25-Dec-2016

 -------------
 #p 6-31g* mp2
 -------------

 ------------------------------------------------------
 Input file generated by CHIRIPA (05-May-2021 14:53:16)
 ------------------------------------------------------
 Symbolic Z-matrix:
 Charge =  0 Multiplicity = 1

                         Standard orientation:
 ---------------------------------------------------------------------
 Center     Atomic      Atomic             Coordinates (Angstroms)
 Number     Number       Type             X           Y           Z
 ---------------------------------------------------------------------
      1          6           0       -1.959908    0.668885    0.204439
      2          6           0       -2.682852    1.985390   -0.082184
      3          6           0       -1.927912    3.202888    0.452193
      4          1           0       -1.815486    0.565733    1.288619
      5          1           0       -0.956741    0.704657   -0.242518
      6          1           0       -3.684868    1.946607    0.363996
      7          1           0       -2.825741    2.085330   -1.165794
      8          1           0       -0.933849    3.269502   -0.001682
      9          1           0       -1.797857    3.129991    1.536800
     10          1           0       -2.462442    4.133242    0.236367
     11          6           0       -2.702279   -0.557374   -0.323673
     12          6           0       -1.979335   -1.873879   -0.037051
     13          6           0       -2.734275   -3.091377   -0.571428
     14          1           0       -3.705446   -0.593146    0.123283
     15          1           0       -2.846701   -0.454222   -1.407853
     16          1           0       -1.836446   -1.973819    1.046559
     17          1           0       -0.977319   -1.835096   -0.483231
     18          1           0       -2.864329   -3.018480   -1.656035
     19          1           0       -3.728338   -3.157991   -0.117553
     20          1           0       -2.199745   -4.021731   -0.355602
     21          6           0        1.612621   -0.625460    2.492762
     22          6           0        1.817755   -1.636165    1.547819
     23          6           0        1.934766   -1.325357    0.189786
     24          6           0        1.841328    0.012697   -0.189912
     25          6           0        1.637297    1.042166    0.727614
     26          6           0        1.523205    0.708129    2.080370
     27          1           0        1.522858   -0.875926    3.545665
     28          1           0        1.887600   -2.672714    1.865205
     29          1           0        2.093882   -2.087976   -0.562885
     30          1           0        1.571912    2.066321    0.380844
     31          1           0        1.363927    1.495135    2.812011
     32          7           0        1.963658    0.354031   -1.624808
     33          8           0        1.877759    1.540566   -1.933669
     34          8           0        2.143122   -0.571428   -2.413449
 ---------------------------------------------------------------------

 SCF Done:  E(RHF) =  -669.533634576     A.U. after   15 cycles
 E2 =    -0.2096528330D+01 EUMP2 =    -0.67163016290589D+03

 The electronic state is 1-A.
 Alpha  occ. eigenvalues --  -20.60888 -20.60875 -15.85921 -11.31192 -11.27815
 Alpha  occ. eigenvalues --  -11.27779 -11.27558 -11.26815 -11.26789 -11.21582
 Alpha  occ. eigenvalues --  -11.21561 -11.21320 -11.21242 -11.21217 -11.21095
 Alpha  occ. eigenvalues --   -1.59955  -1.39510  -1.19426  -1.08824  -1.08401
 Alpha  occ. eigenvalues --   -1.04822  -1.03543  -0.96008  -0.95665  -0.87030
 Alpha  occ. eigenvalues --   -0.86223  -0.82493  -0.79616  -0.78258  -0.77540
 Alpha  occ. eigenvalues --   -0.72143  -0.71292  -0.70540  -0.65100  -0.65029
 Alpha  occ. eigenvalues --   -0.64796  -0.62179  -0.60935  -0.59379  -0.57642
 Alpha  occ. eigenvalues --   -0.55335  -0.55300  -0.53363  -0.52910  -0.52644
 Alpha  occ. eigenvalues --   -0.52411  -0.49957  -0.48907  -0.48895  -0.47982
 Alpha  occ. eigenvalues --   -0.46657  -0.45730  -0.45616  -0.44887  -0.43777
 Alpha  occ. eigenvalues --   -0.37312  -0.36287
 Alpha virt. eigenvalues --    0.04938   0.11074   0.16425   0.20794   0.22971
 Alpha virt. eigenvalues --    0.23826   0.25875   0.26724   0.27300   0.27858
 Alpha virt. eigenvalues --    0.29172   0.29801   0.31249   0.31769   0.31902

 Mulliken charges:
               1
     1  C   -0.300607
     2  C   -0.298490
     3  C   -0.478780
     4  H    0.144635
     5  H    0.154416
     6  H    0.150435
     7  H    0.157176
     8  H    0.157387
     9  H    0.147946
    10  H    0.162738
    11  C   -0.299056
    12  C   -0.300859
    13  C   -0.475477
    14  H    0.147774
    15  H    0.153517
    16  H    0.146891
    17  H    0.153845
    18  H    0.158749
    19  H    0.154390
    20  H    0.156462
    21  C   -0.171594
    22  C   -0.214962
    23  C   -0.172323
    24  C    0.159239
    25  C   -0.173120
    26  C   -0.214207
    27  H    0.225777
    28  H    0.223818
    29  H    0.275678
    30  H    0.277125
    31  H    0.224021
    32  N    0.489195
    33  O   -0.461266
    34  O   -0.460471
 Sum of Mulliken charges =  -0.00000

 Dipole moment (field-independent basis, Debye):
    X=             -0.3501    Y=             -1.1845    Z=              5.0036  Tot=              5.1538
 Quadrupole moment (field-independent basis, Debye-Ang):
   XX=            -97.1482   YY=            -91.2921   ZZ=            -96.3051
   XY=             -3.4502   XZ=              9.0924   YZ=              0.9879

 Normal termination of Gaussian 16 at Wed May  5 23:36:38 2021.
