 Gaussian 16, Revision A.03,
 Gaussian 16:  EM64L-G16RevA.03 25-Dec-2016

 -------------
 #p 6-31g* mp2
 -------------

 ------------------------------------------------------
 Input file generated by CHIRIPA (05-May-2021 14:53:16)
 ------------------------------------------------------
 Symbolic Z-matrix:
 Charge =  0 Multiplicity = 1

                         Standard orientation:
 ---------------------------------------------------------------------
 Center     Atomic      Atomic             Coordinates (Angstroms)
 Number     Number       Type             X           Y           Z
 ---------------------------------------------------------------------
      1          6           0       -3.406338    0.301642    0.942802
      2          6           0       -2.010500    0.762059    0.521332
      3          6           0       -1.155701    1.216988    1.704613
      4          1           0       -3.912928    1.122362    1.468854
      5          1           0       -3.310976   -0.520882    1.665128
      6          1           0       -2.108480    1.582548   -0.201034
      7          1           0       -1.507245   -0.059789   -0.003945
      8          1           0       -1.028355    0.401524    2.423920
      9          1           0       -1.633006    2.053193    2.225711
     10          1           0       -0.162044    1.541873    1.380647
     11          6           0       -4.272802   -0.156192   -0.229100
     12          6           0       -5.668640   -0.616609    0.192370
     13          6           0       -6.523438   -1.071537   -0.990911
     14          1           0       -4.368164    0.666332   -0.951426
     15          1           0       -3.766211   -0.976912   -0.755152
     16          1           0       -6.171895    0.205240    0.717647
     17          1           0       -5.570660   -1.437098    0.914736
     18          1           0       -6.046134   -1.907742   -1.512009
     19          1           0       -6.650785   -0.256073   -1.710218
     20          1           0       -7.517096   -1.396423   -0.666945
     21          6           0        1.768311    2.029866   -0.982670
     22          6           0        3.029019    2.129049   -0.384927
     23          6           0        3.720401    0.979569    0.009071
     24          6           0        3.118707   -0.258549   -0.210741
     25          6           0        1.864019   -0.390089   -0.803825
     26          6           0        1.190852    0.772830   -1.189845
     27          1           0        1.238304    2.928030   -1.285639
     28          1           0        3.479919    3.103957   -0.222791
     29          1           0        4.697625    1.027480    0.473998
     30          1           0        1.440229   -1.375862   -0.952391
     31          1           0        0.211898    0.692777   -1.653833
     32          7           0        3.841000   -1.482567    0.202144
     33          8           0        3.289218   -2.561585   -0.002534
     34          8           0        4.945238   -1.339756    0.722624
 ---------------------------------------------------------------------

 SCF Done:  E(RHF) =  -669.534599794     A.U. after   15 cycles
 E2 =    -0.2093307533D+01 EUMP2 =    -0.67162790732678D+03

 The electronic state is 1-A.
 Alpha  occ. eigenvalues --  -20.60788 -20.60783 -15.85840 -11.31225 -11.27774
 Alpha  occ. eigenvalues --  -11.27759 -11.27509 -11.26822 -11.26743 -11.22310
 Alpha  occ. eigenvalues --  -11.21973 -11.21898 -11.21838 -11.21417 -11.21390
 Alpha  occ. eigenvalues --   -1.59862  -1.39415  -1.19396  -1.08942  -1.08780
 Alpha  occ. eigenvalues --   -1.04805  -1.03986  -0.96404  -0.95618  -0.87420
 Alpha  occ. eigenvalues --   -0.86191  -0.82454  -0.80101  -0.78771  -0.77477
 Alpha  occ. eigenvalues --   -0.72059  -0.71184  -0.70494  -0.65568  -0.65039
 Alpha  occ. eigenvalues --   -0.64799  -0.62167  -0.61382  -0.59812  -0.58072
 Alpha  occ. eigenvalues --   -0.55682  -0.55288  -0.53466  -0.53002  -0.52865
 Alpha  occ. eigenvalues --   -0.52524  -0.50344  -0.48827  -0.48813  -0.48365
 Alpha  occ. eigenvalues --   -0.47136  -0.46279  -0.46214  -0.44817  -0.44241
 Alpha  occ. eigenvalues --   -0.37343  -0.36349
 Alpha virt. eigenvalues --    0.05006   0.11225   0.16424   0.20626   0.22598
 Alpha virt. eigenvalues --    0.24110   0.25591   0.26061   0.27545   0.28120
 Alpha virt. eigenvalues --    0.28570   0.30673   0.30941   0.31653   0.31993

 Mulliken charges:
               1
     1  C   -0.298032
     2  C   -0.299991
     3  C   -0.481143
     4  H    0.151136
     5  H    0.153225
     6  H    0.143793
     7  H    0.146183
     8  H    0.159057
     9  H    0.154337
    10  H    0.166182
    11  C   -0.298631
    12  C   -0.300021
    13  C   -0.476038
    14  H    0.147498
    15  H    0.148475
    16  H    0.152639
    17  H    0.153889
    18  H    0.155706
    19  H    0.154635
    20  H    0.161867
    21  C   -0.174466
    22  C   -0.218121
    23  C   -0.171376
    24  C    0.159147
    25  C   -0.172145
    26  C   -0.214320
    27  H    0.226249
    28  H    0.223825
    29  H    0.275757
    30  H    0.275230
    31  H    0.227993
    32  N    0.488054
    33  O   -0.460363
    34  O   -0.460231
 Sum of Mulliken charges =  -0.00000

 Dipole moment (field-independent basis, Debye):
    X=             -2.5650    Y=              4.2940    Z=             -1.4105  Tot=              5.1969
 Quadrupole moment (field-independent basis, Debye-Ang):
   XX=           -108.1556   YY=            -95.1120   ZZ=            -94.8108
   XY=             16.2828   XZ=             -3.2357   YZ=              0.0812

 Normal termination of Gaussian 16 at Thu May  6 04:18:32 2021.
