 Gaussian 16, Revision A.03,
 Gaussian 16:  EM64L-G16RevA.03 25-Dec-2016

 -------------
 #p 6-31g* mp2
 -------------

 ------------------------------------------------------
 Input file generated by CHIRIPA (05-May-2021 14:51:11)
 ------------------------------------------------------
 Symbolic Z-matrix:
 Charge =  0 Multiplicity = 1

                         Standard orientation:
 ---------------------------------------------------------------------
 Center     Atomic      Atomic             Coordinates (Angstroms)
 Number     Number       Type             X           Y           Z
 ---------------------------------------------------------------------
      1          6           0        4.153290    0.752328   -0.325042
      2          6           0        3.740180    1.983001    0.482900
      3          6           0        4.369236    3.273680   -0.042676
      4          1           0        5.248014    0.661446   -0.308793
      5          1           0        3.867405    0.899249   -1.375793
      6          1           0        4.025517    1.833216    1.532073
      7          1           0        2.646300    2.070855    0.464886
      8          1           0        4.074690    3.450289   -1.082221
      9          1           0        5.461744    3.211299   -0.008970
     10          1           0        4.060509    4.140844    0.549417
     11          6           0        3.532494   -0.545709    0.188221
     12          6           0        3.945604   -1.776382   -0.619721
     13          6           0        3.316549   -3.067061   -0.094145
     14          1           0        3.818379   -0.692630    1.238973
     15          1           0        2.437770   -0.454827    0.171972
     16          1           0        5.039484   -1.864236   -0.601707
     17          1           0        3.660267   -1.626597   -1.668893
     18          1           0        2.224041   -3.004680   -0.127850
     19          1           0        3.611094   -3.243670    0.945400
     20          1           0        3.625276   -3.934225   -0.686238
     21          6           0       -3.331708   -0.564389    0.399360
     22          6           0       -1.894115   -0.295122   -0.046519
     23          6           0       -0.883048   -1.225500    0.624251
     24          1           0       -3.397248   -0.453905    1.490434
     25          1           0       -3.588237   -1.609019    0.175004
     26          1           0       -1.640837    0.749076    0.177351
     27          1           0       -1.832031   -0.406071   -1.136681
     28          1           0       -1.107953   -2.271239    0.390911
     29          1           0       -0.915675   -1.109529    1.712409
     30          1           0        0.138164   -1.015631    0.291170
     31          6           0       -4.354077    0.357770   -0.262540
     32          6           0       -5.791669    0.088503    0.183341
     33          6           0       -6.802736    1.018880   -0.487431
     34          1           0       -4.097547    1.402400   -0.038183
     35          1           0       -4.288536    0.247286   -1.353614
     36          1           0       -5.853753    0.199452    1.273501
     37          1           0       -6.044946   -0.955695   -0.040530
     38          1           0       -6.770110    0.902910   -1.575589
     39          1           0       -6.577830    2.064620   -0.254090
     40          1           0       -7.823947    0.809012   -0.154349
 ---------------------------------------------------------------------

 SCF Done:  E(RHF) =  -470.733274114     A.U. after   11 cycles
 E2 =    -0.1582757748D+01 EUMP2 =    -0.47231603186212D+03

 The electronic state is 1-A.
 Alpha  occ. eigenvalues --  -11.21649 -11.21618 -11.21597 -11.21580 -11.21432
 Alpha  occ. eigenvalues --  -11.21392 -11.21372 -11.21332 -11.21109 -11.21085
 Alpha  occ. eigenvalues --  -11.21067 -11.21017  -1.08460  -1.08419  -1.03565
 Alpha  occ. eigenvalues --   -1.03509  -0.96013  -0.95959  -0.87032  -0.86975
 Alpha  occ. eigenvalues --   -0.79645  -0.79555  -0.78274  -0.78233  -0.65087
 Alpha  occ. eigenvalues --   -0.65069  -0.60963  -0.60919  -0.59446  -0.59270
 Alpha  occ. eigenvalues --   -0.57646  -0.57552  -0.55316  -0.55226  -0.52758
 Alpha  occ. eigenvalues --   -0.52643  -0.52473  -0.52344  -0.49973  -0.49876
 Alpha  occ. eigenvalues --   -0.47983  -0.47863  -0.46658  -0.46600  -0.45818
 Alpha  occ. eigenvalues --   -0.45769  -0.45736  -0.45697  -0.43779  -0.43733
 Alpha virt. eigenvalues --    0.21109   0.23045   0.23704   0.24678   0.26036
 Alpha virt. eigenvalues --    0.26602   0.27180   0.27327   0.27968   0.28931
 Alpha virt. eigenvalues --    0.30688   0.31373   0.31784   0.31814   0.31991

 Mulliken charges:
               1
     1  C   -0.297557
     2  C   -0.299651
     3  C   -0.475703
     4  H    0.149737
     5  H    0.149350
     6  H    0.151997
     7  H    0.151739
     8  H    0.155198
     9  H    0.155203
    10  H    0.160181
    11  C   -0.307159
    12  C   -0.299107
    13  C   -0.478326
    14  H    0.149793
    15  H    0.157287
    16  H    0.151922
    17  H    0.151478
    18  H    0.158273
    19  H    0.155176
    20  H    0.159922
    21  C   -0.298654
    22  C   -0.299033
    23  C   -0.485336
    24  H    0.149859
    25  H    0.149703
    26  H    0.151783
    27  H    0.151736
    28  H    0.155597
    29  H    0.156120
    30  H    0.168197
    31  C   -0.298249
    32  C   -0.299671
    33  C   -0.475722
    34  H    0.149550
    35  H    0.149635
    36  H    0.152018
    37  H    0.151991
    38  H    0.155185
    39  H    0.155206
    40  H    0.160330
 Sum of Mulliken charges =  -0.00000

 Dipole moment (field-independent basis, Debye):
    X=             -0.0179    Y=             -0.0019    Z=              0.0115  Tot=              0.0213
 Quadrupole moment (field-independent basis, Debye-Ang):
   XX=            -85.0121   YY=            -85.7271   ZZ=            -84.0290
   XY=              0.1047   XZ=              0.3649   YZ=              0.9350

 Normal termination of Gaussian 16 at Thu May  6 00:41:18 2021.
