 Gaussian 16, Revision A.03,
 Gaussian 16:  EM64L-G16RevA.03 25-Dec-2016

 -------------
 #p 6-31g* mp2
 -------------

 ------------------------------------------------------
 Input file generated by CHIRIPA (05-May-2021 14:51:12)
 ------------------------------------------------------
 Symbolic Z-matrix:
 Charge =  0 Multiplicity = 1

                         Standard orientation:
 ---------------------------------------------------------------------
 Center     Atomic      Atomic             Coordinates (Angstroms)
 Number     Number       Type             X           Y           Z
 ---------------------------------------------------------------------
      1          6           0        3.380294    0.593673   -0.528091
      2          6           0        3.051964    1.840603    0.293705
      3          6           0        2.473653    2.972921   -0.555533
      4          1           0        4.093549    0.861314   -1.319659
      5          1           0        2.468751    0.245537   -1.033349
      6          1           0        3.963554    2.185477    0.798365
      7          1           0        2.339555    1.569922    1.083529
      8          1           0        1.549705    2.652217   -1.047539
      9          1           0        3.182931    3.271270   -1.334323
     10          1           0        2.246187    3.854454    0.051937
     11          6           0        3.959293   -0.547058    0.306908
     12          6           0        4.287624   -1.793988   -0.514888
     13          6           0        4.865935   -2.926306    0.334351
     14          1           0        4.870836   -0.198922    0.812167
     15          1           0        3.246039   -0.814699    1.098477
     16          1           0        5.000033   -1.523307   -1.304711
     17          1           0        3.376034   -2.138862   -1.019547
     18          1           0        4.156657   -3.224655    1.113140
     19          1           0        5.789883   -2.605602    0.826356
     20          1           0        5.093400   -3.807839   -0.273120
     21          6           0       -4.404138   -0.061708    0.317222
     22          6           0       -5.253520   -0.921247   -0.619649
     23          6           0       -6.720268   -0.988360   -0.193103
     24          1           0       -4.472842   -0.464407    1.337055
     25          1           0       -4.823342    0.953367    0.353089
     26          1           0       -4.832026   -1.934027   -0.654813
     27          1           0       -5.182633   -0.516567   -1.637404
     28          1           0       -7.162695    0.012922   -0.176012
     29          1           0       -6.810097   -1.412590    0.812162
     30          1           0       -7.309201   -1.607867   -0.876645
     31          6           0       -2.935450    0.015093   -0.096040
     32          6           0       -2.086067    0.874631    0.840831
     33          6           0       -0.619320    0.941745    0.414287
     34          1           0       -2.516245   -0.999982   -0.131907
     35          1           0       -2.866745    0.417792   -1.115873
     36          1           0       -2.156955    0.469952    1.858586
     37          1           0       -2.507561    1.887411    0.875995
     38          1           0       -0.529491    1.365975   -0.590980
     39          1           0       -0.176893   -0.059537    0.397194
     40          1           0       -0.030387    1.561253    1.097827
 ---------------------------------------------------------------------

 SCF Done:  E(RHF) =  -470.732250745     A.U. after   11 cycles
 E2 =    -0.1583736373D+01 EUMP2 =    -0.47231598711804D+03

 The electronic state is 1-A.
 Alpha  occ. eigenvalues --  -11.21655 -11.21631 -11.21558 -11.21450 -11.21446
 Alpha  occ. eigenvalues --  -11.21389 -11.21323 -11.21246 -11.21143 -11.21094
 Alpha  occ. eigenvalues --  -11.21043 -11.20922  -1.08482  -1.08339  -1.03610
 Alpha  occ. eigenvalues --   -1.03421  -0.96065  -0.95874  -0.87067  -0.86913
 Alpha  occ. eigenvalues --   -0.79659  -0.79513  -0.78290  -0.78160  -0.65109
 Alpha  occ. eigenvalues --   -0.64988  -0.61050  -0.60884  -0.59387  -0.59229
 Alpha  occ. eigenvalues --   -0.57685  -0.57477  -0.55508  -0.55044  -0.52691
 Alpha  occ. eigenvalues --   -0.52592  -0.52478  -0.52310  -0.50160  -0.49658
 Alpha  occ. eigenvalues --   -0.48007  -0.47819  -0.46739  -0.46443  -0.45871
 Alpha  occ. eigenvalues --   -0.45756  -0.45686  -0.45549  -0.43792  -0.43682
 Alpha virt. eigenvalues --    0.21091   0.22963   0.23726   0.24830   0.26036
 Alpha virt. eigenvalues --    0.26256   0.26899   0.27688   0.27821   0.29333
 Alpha virt. eigenvalues --    0.29826   0.30823   0.31741   0.31918   0.32440

 Mulliken charges:
               1
     1  C   -0.299789
     2  C   -0.301884
     3  C   -0.478795
     4  H    0.149026
     5  H    0.151868
     6  H    0.151086
     7  H    0.155346
     8  H    0.159616
     9  H    0.154192
    10  H    0.158766
    11  C   -0.298566
    12  C   -0.299543
    13  C   -0.475613
    14  H    0.149297
    15  H    0.149486
    16  H    0.151895
    17  H    0.151598
    18  H    0.154885
    19  H    0.155160
    20  H    0.160061
    21  C   -0.298284
    22  C   -0.299654
    23  C   -0.475730
    24  H    0.149717
    25  H    0.149683
    26  H    0.151923
    27  H    0.152004
    28  H    0.155256
    29  H    0.155214
    30  H    0.160356
    31  C   -0.298827
    32  C   -0.300394
    33  C   -0.479518
    34  H    0.149363
    35  H    0.149738
    36  H    0.151951
    37  H    0.152399
    38  H    0.156564
    39  H    0.155025
    40  H    0.165120
 Sum of Mulliken charges =  -0.00000

 Dipole moment (field-independent basis, Debye):
    X=             -0.0612    Y=              0.0011    Z=              0.0049  Tot=              0.0614
 Quadrupole moment (field-independent basis, Debye-Ang):
   XX=            -85.4447   YY=            -84.9432   ZZ=            -84.6964
   XY=              0.3072   XZ=             -0.0466   YZ=             -0.0645

 Normal termination of Gaussian 16 at Wed May  5 18:18:26 2021.
