 Gaussian 16, Revision A.03,
 Gaussian 16:  EM64L-G16RevA.03 25-Dec-2016

 -------------
 #p 6-31g* mp2
 -------------

 ------------------------------------------------------
 Input file generated by CHIRIPA (05-May-2021 14:57:22)
 ------------------------------------------------------
 Symbolic Z-matrix:
 Charge =  0 Multiplicity = 1

                         Standard orientation:
 ---------------------------------------------------------------------
 Center     Atomic      Atomic             Coordinates (Angstroms)
 Number     Number       Type             X           Y           Z
 ---------------------------------------------------------------------
      1          6           0        1.750572    2.593018    0.291695
      2          6           0        1.389488    1.708681   -0.730111
      3          6           0        2.093341    0.515446   -0.918072
      4          6           0        3.157740    0.236954   -0.062042
      5          6           0        3.541695    1.097752    0.965039
      6          6           0        2.823631    2.285274    1.134523
      7          1           0        1.198283    3.517733    0.430531
      8          1           0        0.556573    1.945079   -1.386170
      9          1           0        1.835153   -0.187081   -1.701151
     10          1           0        4.376582    0.834693    1.603146
     11          1           0        3.106292    2.970185    1.928906
     12          7           0        3.910399   -1.023246   -0.251248
     13          8           0        4.844256   -1.245459    0.516326
     14          8           0        3.552225   -1.764916   -1.163538
     15          6           0       -4.976647    1.143919   -0.228561
     16          6           0       -3.969642    1.105371   -1.198599
     17          6           0       -2.888443    0.229153   -1.065185
     18          6           0       -2.845855   -0.598227    0.055939
     19          6           0       -3.833625   -0.583183    1.039491
     20          6           0       -4.905550    0.301006    0.885425
     21          1           0       -5.812946    1.827682   -0.340222
     22          1           0       -4.022244    1.758838   -2.064774
     23          1           0       -2.095146    0.178696   -1.801087
     24          1           0       -3.753658   -1.246710    1.891990
     25          1           0       -5.686166    0.328782    1.640350
     26          7           0       -1.706147   -1.530059    0.208111
     27          8           0       -1.691869   -2.248751    1.205063
     28          8           0       -0.848702   -1.524092   -0.672452
 ---------------------------------------------------------------------

 SCF Done:  E(RHF) =  -868.337250365     A.U. after   16 cycles
 E2 =    -0.2600392834D+01 EUMP2 =    -0.87093764319868D+03

 The electronic state is 1-A.
 Alpha  occ. eigenvalues --  -20.61168 -20.61149 -20.59903 -20.59860 -15.86210
 Alpha  occ. eigenvalues --  -15.84945 -11.31679 -11.30395 -11.28311 -11.28206
 Alpha  occ. eigenvalues --  -11.27982 -11.27312 -11.27243 -11.27082 -11.26968
 Alpha  occ. eigenvalues --  -11.26922 -11.26131 -11.26121  -1.60216  -1.58954
 Alpha  occ. eigenvalues --   -1.39775  -1.38504  -1.19850  -1.18634  -1.09217
 Alpha  occ. eigenvalues --   -1.08034  -1.05273  -1.04063  -0.96041  -0.94834
 Alpha  occ. eigenvalues --   -0.86662  -0.85470  -0.82880  -0.81674  -0.77924
 Alpha  occ. eigenvalues --   -0.76671  -0.72433  -0.71540  -0.71173  -0.70954
 Alpha  occ. eigenvalues --   -0.70267  -0.69777  -0.65503  -0.65272  -0.64306
 Alpha  occ. eigenvalues --   -0.64116  -0.62627  -0.61400  -0.55749  -0.54635
 Alpha  occ. eigenvalues --   -0.53590  -0.53366  -0.52383  -0.52182  -0.49187
 Alpha  occ. eigenvalues --   -0.49166  -0.47947  -0.47904  -0.45159  -0.43889
 Alpha  occ. eigenvalues --   -0.37821  -0.36890  -0.36661  -0.35627
 Alpha virt. eigenvalues --    0.04586   0.05911   0.10728   0.12009   0.16098
 Alpha virt. eigenvalues --    0.17301   0.20318   0.21990   0.25710   0.27250
 Alpha virt. eigenvalues --    0.28653   0.29002   0.30661   0.31164   0.33038

 Mulliken charges:
               1
     1  C   -0.171284
     2  C   -0.221045
     3  C   -0.155847
     4  C    0.156611
     5  C   -0.170126
     6  C   -0.219808
     7  H    0.220277
     8  H    0.213273
     9  H    0.283155
    10  H    0.274208
    11  H    0.220028
    12  N    0.488837
    13  O   -0.464415
    14  O   -0.455342
    15  C   -0.171139
    16  C   -0.218907
    17  C   -0.173529
    18  C    0.160515
    19  C   -0.170635
    20  C   -0.218187
    21  H    0.226699
    22  H    0.222692
    23  H    0.269956
    24  H    0.277708
    25  H    0.225218
    26  N    0.489934
    27  O   -0.455322
    28  O   -0.463526
 Sum of Mulliken charges =  -0.00000

 Dipole moment (field-independent basis, Debye):
    X=             -6.8253    Y=              7.4178    Z=              0.1599  Tot=             10.0813
 Quadrupole moment (field-independent basis, Debye-Ang):
   XX=            -97.1444   YY=           -107.5127   ZZ=            -98.8588
   XY=              7.5682   XZ=              3.7725   YZ=             -0.2274

 Normal termination of Gaussian 16 at Fri May  7 00:10:40 2021.
