 Gaussian 16, Revision A.03,
 Gaussian 16:  EM64L-G16RevA.03 25-Dec-2016

 -------------
 #p 6-31g* mp2
 -------------

 ------------------------------------------------------
 Input file generated by CHIRIPA (05-May-2021 14:53:15)
 ------------------------------------------------------
 Symbolic Z-matrix:
 Charge =  0 Multiplicity = 1

                         Standard orientation:
 ---------------------------------------------------------------------
 Center     Atomic      Atomic             Coordinates (Angstroms)
 Number     Number       Type             X           Y           Z
 ---------------------------------------------------------------------
      1          6           0       -2.814004    0.219324   -0.316236
      2          6           0       -2.432930   -1.249560   -0.503712
      3          6           0       -3.627508   -2.126901   -0.879277
      4          1           0       -3.585421    0.294913    0.462319
      5          1           0       -3.268281    0.594316   -1.243818
      6          1           0       -1.978245   -1.621283    0.423488
      7          1           0       -1.662192   -1.321642   -1.281777
      8          1           0       -4.078432   -1.783360   -1.815892
      9          1           0       -4.396280   -2.084703   -0.100939
     10          1           0       -3.332522   -3.172926   -1.008407
     11          6           0       -1.630394    1.109063    0.059475
     12          6           0       -2.011468    2.577947    0.246952
     13          6           0       -0.816890    3.455288    0.622516
     14          1           0       -1.176117    0.734071    0.987057
     15          1           0       -0.858977    1.033474   -0.719080
     16          1           0       -2.782206    2.650029    1.025016
     17          1           0       -2.466153    2.949670   -0.680248
     18          1           0       -0.048118    3.413090   -0.155822
     19          1           0       -0.365966    3.111747    1.559132
     20          1           0       -1.111876    4.501314    0.751646
     21          6           0        2.606331    0.545578   -2.015239
     22          6           0        1.974207   -0.701093   -2.067707
     23          6           0        1.488150   -1.300331   -0.901856
     24          6           0        1.651962   -0.621811    0.304819
     25          6           0        2.277265    0.621207    0.389617
     26          6           0        2.755580    1.201593   -0.788907
     27          1           0        2.980904    1.003759   -2.925822
     28          1           0        1.856901   -1.212867   -3.018692
     29          1           0        0.994812   -2.264642   -0.913780
     30          1           0        2.379473    1.107086    1.352369
     31          1           0        3.246080    2.169859   -0.745150
     32          7           0        1.141493   -1.246219    1.545761
     33          8           0        1.298246   -0.627940    2.596379
     34          8           0        0.594300   -2.342085    1.444296
 ---------------------------------------------------------------------

 SCF Done:  E(RHF) =  -669.535590604     A.U. after   15 cycles
 E2 =    -0.2096176277D+01 EUMP2 =    -0.67163176688056D+03

 The electronic state is 1-A.
 Alpha  occ. eigenvalues --  -20.60947 -20.60941 -15.85940 -11.31191 -11.27796
 Alpha  occ. eigenvalues --  -11.27793 -11.27577 -11.26833 -11.26821 -11.21501
 Alpha  occ. eigenvalues --  -11.21158 -11.21127 -11.21108 -11.21057 -11.20724
 Alpha  occ. eigenvalues --   -1.59993  -1.39552  -1.19417  -1.08831  -1.08190
 Alpha  occ. eigenvalues --   -1.04815  -1.03304  -0.95786  -0.95673  -0.86806
 Alpha  occ. eigenvalues --   -0.86210  -0.82515  -0.79390  -0.78077  -0.77537
 Alpha  occ. eigenvalues --   -0.72185  -0.71285  -0.70536  -0.65078  -0.64825
 Alpha  occ. eigenvalues --   -0.64808  -0.62164  -0.60698  -0.59152  -0.57402
 Alpha  occ. eigenvalues --   -0.55333  -0.55078  -0.53246  -0.52905  -0.52451
 Alpha  occ. eigenvalues --   -0.52213  -0.49735  -0.48960  -0.48939  -0.47738
 Alpha  occ. eigenvalues --   -0.46459  -0.45542  -0.45418  -0.44760  -0.43553
 Alpha  occ. eigenvalues --   -0.37344  -0.36372
 Alpha virt. eigenvalues --    0.04908   0.11145   0.16342   0.21086   0.23184
 Alpha virt. eigenvalues --    0.24186   0.26520   0.26824   0.27242   0.27959
 Alpha virt. eigenvalues --    0.29041   0.30435   0.31072   0.31849   0.32166

 Mulliken charges:
               1
     1  C   -0.296653
     2  C   -0.310826
     3  C   -0.475045
     4  H    0.151463
     5  H    0.145756
     6  H    0.172799
     7  H    0.141472
     8  H    0.150883
     9  H    0.156890
    10  H    0.160159
    11  C   -0.307141
    12  C   -0.297933
    13  C   -0.477830
    14  H    0.153112
    15  H    0.151578
    16  H    0.154317
    17  H    0.149939
    18  H    0.149566
    19  H    0.157700
    20  H    0.159478
    21  C   -0.171158
    22  C   -0.220524
    23  C   -0.168857
    24  C    0.161108
    25  C   -0.168748
    26  C   -0.219156
    27  H    0.225994
    28  H    0.223802
    29  H    0.276835
    30  H    0.275828
    31  H    0.224231
    32  N    0.488716
    33  O   -0.459775
    34  O   -0.457981
 Sum of Mulliken charges =  -0.00000

 Dipole moment (field-independent basis, Debye):
    X=              1.9021    Y=              2.0952    Z=             -4.2236  Tot=              5.0840
 Quadrupole moment (field-independent basis, Debye-Ang):
   XX=            -89.5786   YY=            -95.4679   ZZ=            -95.6732
   XY=              3.5465   XZ=             -6.6003   YZ=              5.3009

 Normal termination of Gaussian 16 at Wed May  5 15:37:49 2021.
