 Gaussian 16, Revision A.03,
 Gaussian 16:  EM64L-G16RevA.03 25-Dec-2016

 -------------
 #p 6-31g* mp2
 -------------

 ------------------------------------------------------
 Input file generated by CHIRIPA (05-May-2021 14:53:13)
 ------------------------------------------------------
 Symbolic Z-matrix:
 Charge =  0 Multiplicity = 1

                         Standard orientation:
 ---------------------------------------------------------------------
 Center     Atomic      Atomic             Coordinates (Angstroms)
 Number     Number       Type             X           Y           Z
 ---------------------------------------------------------------------
      1          6           0       -5.009930   -0.296765   -0.467730
      2          6           0       -6.390519    0.245451   -0.096301
      3          6           0       -7.399652    0.125611   -1.238703
      4          1           0       -4.635418    0.243613   -1.347887
      5          1           0       -5.105266   -1.350307   -0.764977
      6          1           0       -6.292402    1.297266    0.201483
      7          1           0       -6.761704   -0.296149    0.783191
      8          1           0       -7.526996   -0.921470   -1.531972
      9          1           0       -7.055027    0.680999   -2.116985
     10          1           0       -8.379737    0.519103   -0.951548
     11          6           0       -3.990150   -0.183920    0.664102
     12          6           0       -2.609560   -0.726136    0.292674
     13          6           0       -1.600427   -0.606296    1.435075
     14          1           0       -3.894813    0.869622    0.961349
     15          1           0       -4.364661   -0.724298    1.544260
     16          1           0       -2.238375   -0.184536   -0.586818
     17          1           0       -2.707677   -1.777951   -0.005111
     18          1           0       -1.945052   -1.161684    2.313357
     19          1           0       -1.473083    0.440785    1.728344
     20          1           0       -0.620342   -0.999788    1.147921
     21          6           0        2.256615    2.334215    0.339828
     22          6           0        1.744272    1.119935    0.808390
     23          6           0        2.433350   -0.075511    0.583382
     24          6           0        3.637375   -0.019743   -0.116977
     25          6           0        4.173725    1.174296   -0.596445
     26          6           0        3.467571    2.357479   -0.359861
     27          1           0        1.714690    3.258103    0.519116
     28          1           0        0.804058    1.098853    1.352078
     29          1           0        2.059557   -1.029488    0.934985
     30          1           0        5.113396    1.163550   -1.135260
     31          1           0        3.867858    3.299045   -0.724920
     32          7           0        4.375910   -1.278817   -0.361311
     33          8           0        5.434617   -1.202871   -0.980996
     34          8           0        3.882082   -2.317784    0.071491
 ---------------------------------------------------------------------

 SCF Done:  E(RHF) =  -669.534846428     A.U. after   15 cycles
 E2 =    -0.2091779203D+01 EUMP2 =    -0.67162662563180D+03

 The electronic state is 1-A.
 Alpha  occ. eigenvalues --  -20.60718 -20.60712 -15.85769 -11.31121 -11.27681
 Alpha  occ. eigenvalues --  -11.27663 -11.27403 -11.26705 -11.26591 -11.22311
 Alpha  occ. eigenvalues --  -11.22147 -11.21979 -11.21966 -11.21810 -11.21371
 Alpha  occ. eigenvalues --   -1.59793  -1.39347  -1.19281  -1.08979  -1.08679
 Alpha  occ. eigenvalues --   -1.04687  -1.04120  -0.96610  -0.95521  -0.87646
 Alpha  occ. eigenvalues --   -0.86076  -0.82355  -0.80195  -0.78753  -0.77401
 Alpha  occ. eigenvalues --   -0.71988  -0.71115  -0.70403  -0.65628  -0.64935
 Alpha  occ. eigenvalues --   -0.64696  -0.62167  -0.61456  -0.59943  -0.58182
 Alpha  occ. eigenvalues --   -0.55925  -0.55176  -0.53357  -0.53092  -0.52954
 Alpha  occ. eigenvalues --   -0.52699  -0.50499  -0.48747  -0.48742  -0.48497
 Alpha  occ. eigenvalues --   -0.47190  -0.46304  -0.46206  -0.44756  -0.44366
 Alpha  occ. eigenvalues --   -0.37265  -0.36271
 Alpha virt. eigenvalues --    0.05110   0.11357   0.16567   0.20335   0.22585
 Alpha virt. eigenvalues --    0.23891   0.25584   0.25925   0.26502   0.27446
 Alpha virt. eigenvalues --    0.28980   0.29853   0.31285   0.31406   0.32126

 Mulliken charges:
               1
     1  C   -0.298854
     2  C   -0.299976
     3  C   -0.476016
     4  H    0.150111
     5  H    0.151689
     6  H    0.151352
     7  H    0.152786
     8  H    0.156355
     9  H    0.155441
    10  H    0.161180
    11  C   -0.299277
    12  C   -0.299517
    13  C   -0.483173
    14  H    0.147933
    15  H    0.151470
    16  H    0.153693
    17  H    0.157619
    18  H    0.162196
    19  H    0.148242
    20  H    0.159195
    21  C   -0.172971
    22  C   -0.221793
    23  C   -0.177435
    24  C    0.159390
    25  C   -0.171508
    26  C   -0.218314
    27  H    0.225114
    28  H    0.233645
    29  H    0.276271
    30  H    0.275241
    31  H    0.222978
    32  N    0.488393
    33  O   -0.460662
    34  O   -0.460800
 Sum of Mulliken charges =  -0.00000

 Dipole moment (field-independent basis, Debye):
    X=             -2.8358    Y=              4.3721    Z=              0.8367  Tot=              5.2780
 Quadrupole moment (field-independent basis, Debye-Ang):
   XX=           -111.6120   YY=            -93.1935   ZZ=            -94.9050
   XY=             18.8580   XZ=              0.7973   YZ=             -2.3568

 Normal termination of Gaussian 16 at Wed May  5 23:24:00 2021.
