 Gaussian 16, Revision A.03,
 Gaussian 16:  EM64L-G16RevA.03 25-Dec-2016

 -------------
 #p 6-31g* mp2
 -------------

 ------------------------------------------------------
 Input file generated by CHIRIPA (05-May-2021 14:51:08)
 ------------------------------------------------------
 Symbolic Z-matrix:
 Charge =  0 Multiplicity = 1

                         Standard orientation:
 ---------------------------------------------------------------------
 Center     Atomic      Atomic             Coordinates (Angstroms)
 Number     Number       Type             X           Y           Z
 ---------------------------------------------------------------------
      1          6           0       -2.130873   -1.222455   -0.119248
      2          6           0       -1.940992   -2.145859    1.084602
      3          6           0       -1.023998   -3.331226    0.781580
      4          1           0       -2.543102   -1.802110   -0.956513
      5          1           0       -1.149445   -0.853375   -0.447842
      6          1           0       -2.922612   -2.511992    1.411686
      7          1           0       -1.529347   -1.563897    1.919158
      8          1           0       -0.032029   -2.982731    0.476376
      9          1           0       -1.433210   -3.936213   -0.033979
     10          1           0       -0.902122   -3.978278    1.655839
     11          6           0       -3.045090   -0.032749    0.168043
     12          6           0       -3.234971    0.890655   -1.035807
     13          6           0       -4.151965    2.076021   -0.732785
     14          1           0       -4.026518   -0.401829    0.496637
     15          1           0       -2.632862    0.546906    1.005308
     16          1           0       -3.646616    0.308693   -1.870363
     17          1           0       -2.253351    1.256788   -1.362892
     18          1           0       -3.742753    2.681009    0.082774
     19          1           0       -5.143935    1.727527   -0.427581
     20          1           0       -4.273841    2.723074   -1.607044
     21          6           0        2.975428    0.167787   -0.495447
     22          6           0        2.834473   -1.314503   -0.147694
     23          6           0        3.615269   -2.221742   -1.099046
     24          1           0        2.630231    0.330623   -1.525626
     25          1           0        4.039164    0.442467   -0.475139
     26          1           0        1.771207   -1.585977   -0.167299
     27          1           0        3.179867   -1.473797    0.881841
     28          1           0        4.682590   -1.979319   -1.073393
     29          1           0        3.265927   -2.092137   -2.128495
     30          1           0        3.500530   -3.276951   -0.832158
     31          6           0        2.200536    1.087417    0.446652
     32          6           0        2.341491    2.569708    0.098899
     33          6           0        1.560694    3.476946    1.050251
     34          1           0        1.136800    0.812737    0.426345
     35          1           0        2.545732    0.924581    1.476831
     36          1           0        1.996098    2.729001   -0.930637
     37          1           0        3.404756    2.841181    0.118504
     38          1           0        1.910036    3.347341    2.079699
     39          1           0        0.493373    3.234524    1.024598
     40          1           0        1.675434    4.532155    0.783363
 ---------------------------------------------------------------------

 SCF Done:  E(RHF) =  -470.733332948     A.U. after   11 cycles
 E2 =    -0.1583570836D+01 EUMP2 =    -0.47231690378379D+03

 The electronic state is 1-A.
 Alpha  occ. eigenvalues --  -11.21658 -11.21648 -11.21647 -11.21612 -11.21470
 Alpha  occ. eigenvalues --  -11.21451 -11.21408 -11.21391 -11.21127 -11.21101
 Alpha  occ. eigenvalues --  -11.21097 -11.21044  -1.08500  -1.08457  -1.03592
 Alpha  occ. eigenvalues --   -1.03543  -0.96035  -0.95995  -0.87050  -0.87012
 Alpha  occ. eigenvalues --   -0.79689  -0.79580  -0.78356  -0.78234  -0.65273
 Alpha  occ. eigenvalues --   -0.64958  -0.61109  -0.60841  -0.59417  -0.59349
 Alpha  occ. eigenvalues --   -0.57691  -0.57569  -0.55400  -0.55210  -0.52719
 Alpha  occ. eigenvalues --   -0.52690  -0.52469  -0.52414  -0.50060  -0.49874
 Alpha  occ. eigenvalues --   -0.48084  -0.47844  -0.46845  -0.46520  -0.46100
 Alpha  occ. eigenvalues --   -0.45814  -0.45787  -0.45358  -0.43836  -0.43811
 Alpha virt. eigenvalues --    0.19215   0.22523   0.23732   0.24902   0.25521
 Alpha virt. eigenvalues --    0.26641   0.27082   0.27235   0.28367   0.29894
 Alpha virt. eigenvalues --    0.30849   0.31457   0.31762   0.31814   0.31975

 Mulliken charges:
               1
     1  C   -0.302285
     2  C   -0.299179
     3  C   -0.483135
     4  H    0.149964
     5  H    0.151482
     6  H    0.152075
     7  H    0.152441
     8  H    0.162436
     9  H    0.154979
    10  H    0.160477
    11  C   -0.298402
    12  C   -0.299693
    13  C   -0.475708
    14  H    0.150005
    15  H    0.149730
    16  H    0.152144
    17  H    0.151184
    18  H    0.155255
    19  H    0.155390
    20  H    0.160406
    21  C   -0.297302
    22  C   -0.309203
    23  C   -0.475560
    24  H    0.149680
    25  H    0.149971
    26  H    0.159591
    27  H    0.152279
    28  H    0.155425
    29  H    0.155361
    30  H    0.160906
    31  C   -0.301160
    32  C   -0.299634
    33  C   -0.475639
    34  H    0.150753
    35  H    0.150007
    36  H    0.152041
    37  H    0.152344
    38  H    0.155344
    39  H    0.154584
    40  H    0.160648
 Sum of Mulliken charges =  -0.00000

 Dipole moment (field-independent basis, Debye):
    X=              0.0169    Y=             -0.0020    Z=              0.0016  Tot=              0.0171
 Quadrupole moment (field-independent basis, Debye-Ang):
   XX=            -83.9870   YY=            -85.8895   ZZ=            -84.6771
   XY=              1.4749   XZ=              1.1036   YZ=             -0.3151

 Normal termination of Gaussian 16 at Wed May  5 15:03:49 2021.
