 Gaussian 16, Revision A.03,
 Gaussian 16:  EM64L-G16RevA.03 25-Dec-2016

 -------------
 #p 6-31g* mp2
 -------------

 ------------------------------------------------------
 Input file generated by CHIRIPA (05-May-2021 14:53:15)
 ------------------------------------------------------
 Symbolic Z-matrix:
 Charge =  0 Multiplicity = 1

                         Standard orientation:
 ---------------------------------------------------------------------
 Center     Atomic      Atomic             Coordinates (Angstroms)
 Number     Number       Type             X           Y           Z
 ---------------------------------------------------------------------
      1          6           0        3.729104    0.356096   -0.417106
      2          6           0        4.923121    0.984648    0.302080
      3          6           0        5.346999    2.319466   -0.311421
      4          1           0        3.982202    0.210575   -1.476214
      5          1           0        2.883665    1.057497   -0.391289
      6          1           0        5.765626    0.281707    0.276118
      7          1           0        4.667219    1.128513    1.359640
      8          1           0        4.524024    3.040387   -0.271590
      9          1           0        5.628672    2.188768   -1.361268
     10          1           0        6.202089    2.751142    0.218048
     11          6           0        3.293571   -0.978798    0.184640
     12          6           0        2.099554   -1.607350   -0.534547
     13          6           0        1.675676   -2.942168    0.078955
     14          1           0        4.139009   -1.680198    0.158823
     15          1           0        3.040473   -0.833277    1.243748
     16          1           0        2.355456   -1.751215   -1.592106
     17          1           0        1.257049   -0.904408   -0.508584
     18          1           0        1.394003   -2.811470    1.128802
     19          1           0        2.498651   -3.663088    0.039124
     20          1           0        0.820586   -3.373844   -0.450514
     21          6           0       -3.120983    2.737417    0.042604
     22          6           0       -4.010115    1.881910   -0.616239
     23          6           0       -3.810657    0.498305   -0.596192
     24          6           0       -2.706713    0.002115    0.095467
     25          6           0       -1.803091    0.828598    0.761564
     26          6           0       -2.022247    2.208962    0.728194
     27          1           0       -3.283577    3.810975    0.021856
     28          1           0       -4.864263    2.289510   -1.149473
     29          1           0       -4.483324   -0.186836   -1.097710
     30          1           0       -0.960644    0.392730    1.284747
     31          1           0       -1.330093    2.870966    1.240755
     32          7           0       -2.485130   -1.460929    0.123743
     33          8           0       -1.504945   -1.873124    0.740161
     34          8           0       -3.295832   -2.167768   -0.471050
 ---------------------------------------------------------------------

 SCF Done:  E(RHF) =  -669.535836114     A.U. after   15 cycles
 E2 =    -0.2091895380D+01 EUMP2 =    -0.67162773149409D+03

 The electronic state is 1-A.
 Alpha  occ. eigenvalues --  -20.60937 -20.60923 -15.85954 -11.31295 -11.27861
 Alpha  occ. eigenvalues --  -11.27851 -11.27592 -11.26869 -11.26859 -11.21517
 Alpha  occ. eigenvalues --  -11.21198 -11.21085 -11.20940 -11.20817 -11.19731
 Alpha  occ. eigenvalues --   -1.59990  -1.39546  -1.19462  -1.08863  -1.08065
 Alpha  occ. eigenvalues --   -1.04861  -1.03024  -0.95717  -0.95433  -0.86466
 Alpha  occ. eigenvalues --   -0.86258  -0.82535  -0.79144  -0.77835  -0.77589
 Alpha  occ. eigenvalues --   -0.72186  -0.71304  -0.70569  -0.65124  -0.64869
 Alpha  occ. eigenvalues --   -0.64702  -0.62211  -0.60417  -0.58892  -0.57037
 Alpha  occ. eigenvalues --   -0.55362  -0.54742  -0.53190  -0.52954  -0.52088
 Alpha  occ. eigenvalues --   -0.51880  -0.49436  -0.48949  -0.48906  -0.47423
 Alpha  occ. eigenvalues --   -0.46211  -0.45376  -0.45307  -0.44886  -0.43271
 Alpha  occ. eigenvalues --   -0.37437  -0.36460
 Alpha virt. eigenvalues --    0.04907   0.11139   0.16398   0.20931   0.22983
 Alpha virt. eigenvalues --    0.24476   0.26467   0.27435   0.27753   0.28518
 Alpha virt. eigenvalues --    0.28764   0.30641   0.31560   0.32057   0.32907

 Mulliken charges:
               1
     1  C   -0.296461
     2  C   -0.299106
     3  C   -0.474965
     4  H    0.150002
     5  H    0.143127
     6  H    0.153100
     7  H    0.149985
     8  H    0.151847
     9  H    0.155677
    10  H    0.159720
    11  C   -0.298116
    12  C   -0.300447
    13  C   -0.469126
    14  H    0.149571
    15  H    0.146665
    16  H    0.148234
    17  H    0.148170
    18  H    0.159735
    19  H    0.145019
    20  H    0.172694
    21  C   -0.170595
    22  C   -0.218401
    23  C   -0.170752
    24  C    0.158251
    25  C   -0.171740
    26  C   -0.218481
    27  H    0.226063
    28  H    0.223883
    29  H    0.275875
    30  H    0.276219
    31  H    0.223835
    32  N    0.490285
    33  O   -0.460528
    34  O   -0.459240
 Sum of Mulliken charges =  -0.00000

 Dipole moment (field-independent basis, Debye):
    X=             -1.0265    Y=              5.0433    Z=             -0.0838  Tot=              5.1473
 Quadrupole moment (field-independent basis, Debye-Ang):
   XX=            -87.6592   YY=            -95.7632   ZZ=            -93.6224
   XY=            -14.2577   XZ=              2.6552   YZ=              1.5293

 Normal termination of Gaussian 16 at Thu May  6 05:51:10 2021.
