 Gaussian 16, Revision A.03,
 Gaussian 16:  EM64L-G16RevA.03 25-Dec-2016

 -------------
 #p 6-31g* mp2
 -------------

 ------------------------------------------------------
 Input file generated by CHIRIPA (05-May-2021 14:53:16)
 ------------------------------------------------------
 Symbolic Z-matrix:
 Charge =  0 Multiplicity = 1

                         Standard orientation:
 ---------------------------------------------------------------------
 Center     Atomic      Atomic             Coordinates (Angstroms)
 Number     Number       Type             X           Y           Z
 ---------------------------------------------------------------------
      1          6           0        4.589090   -0.074903   -0.272573
      2          6           0        5.362920   -1.295592    0.226517
      3          6           0        6.358283   -1.826963   -0.805323
      4          1           0        4.056047   -0.339082   -1.196164
      5          1           0        5.301320    0.718370   -0.538735
      6          1           0        4.649378   -2.085832    0.492963
      7          1           0        5.894030   -1.028531    1.149131
      8          1           0        7.092406   -1.057197   -1.064407
      9          1           0        5.840682   -2.120506   -1.724303
     10          1           0        6.900492   -2.699526   -0.427827
     11          6           0        3.590103    0.467848    0.747805
     12          6           0        2.816273    1.688537    0.248715
     13          6           0        1.820910    2.219908    1.280555
     14          1           0        2.877873   -0.325425    1.013967
     15          1           0        4.123146    0.732027    1.671396
     16          1           0        2.285163    1.421476   -0.673899
     17          1           0        3.529815    2.478777   -0.017731
     18          1           0        2.338511    2.513451    2.199534
     19          1           0        1.086787    1.450142    1.539638
     20          1           0        1.278701    3.092471    0.903059
     21          6           0       -0.999132    0.867570   -0.893821
     22          6           0       -1.019109   -0.378071   -0.257817
     23          6           0       -2.229967   -0.953364    0.138931
     24          6           0       -3.407285   -0.252207   -0.117173
     25          6           0       -3.420127    0.990425   -0.748830
     26          6           0       -2.197591    1.546646   -1.136869
     27          1           0       -0.053973    1.307064   -1.198641
     28          1           0       -0.089917   -0.907723   -0.067773
     29          1           0       -2.274325   -1.916313    0.633076
     30          1           0       -4.362702    1.494456   -0.924681
     31          1           0       -2.185106    2.514172   -1.630612
     32          7           0       -4.695347   -0.851148    0.298237
     33          8           0       -5.718797   -0.213207    0.061131
     34          8           0       -4.657092   -1.947199    0.853075
 ---------------------------------------------------------------------

 SCF Done:  E(RHF) =  -669.535158601     A.U. after   15 cycles
 E2 =    -0.2092330838D+01 EUMP2 =    -0.67162748943894D+03

 The electronic state is 1-A.
 Alpha  occ. eigenvalues --  -20.60748 -20.60743 -15.85804 -11.31167 -11.27756
 Alpha  occ. eigenvalues --  -11.27748 -11.27453 -11.26759 -11.26735 -11.22796
 Alpha  occ. eigenvalues --  -11.22404 -11.22302 -11.22214 -11.22032 -11.21645
 Alpha  occ. eigenvalues --   -1.59825  -1.39378  -1.19348  -1.09369  -1.08736
 Alpha  occ. eigenvalues --   -1.04756  -1.04419  -0.96840  -0.95568  -0.87844
 Alpha  occ. eigenvalues --   -0.86150  -0.82409  -0.80498  -0.79154  -0.77456
 Alpha  occ. eigenvalues --   -0.72022  -0.71148  -0.70493  -0.66034  -0.64997
 Alpha  occ. eigenvalues --   -0.64747  -0.62130  -0.61786  -0.60228  -0.58455
 Alpha  occ. eigenvalues --   -0.56187  -0.55154  -0.53525  -0.53248  -0.53058
 Alpha  occ. eigenvalues --   -0.52846  -0.50768  -0.48797  -0.48782  -0.48771
 Alpha  occ. eigenvalues --   -0.47556  -0.46684  -0.46612  -0.44785  -0.44670
 Alpha  occ. eigenvalues --   -0.37290  -0.36359
 Alpha virt. eigenvalues --    0.05078   0.11186   0.16535   0.18581   0.22636
 Alpha virt. eigenvalues --    0.24036   0.24788   0.25423   0.27041   0.28130
 Alpha virt. eigenvalues --    0.29014   0.29993   0.30856   0.31094   0.31761

 Mulliken charges:
               1
     1  C   -0.298749
     2  C   -0.300095
     3  C   -0.476207
     4  H    0.147465
     5  H    0.152153
     6  H    0.151394
     7  H    0.154105
     8  H    0.156398
     9  H    0.155360
    10  H    0.162689
    11  C   -0.298387
    12  C   -0.305187
    13  C   -0.479819
    14  H    0.145270
    15  H    0.155007
    16  H    0.141306
    17  H    0.157640
    18  H    0.160929
    19  H    0.158570
    20  H    0.159159
    21  C   -0.171423
    22  C   -0.223558
    23  C   -0.171026
    24  C    0.158131
    25  C   -0.170349
    26  C   -0.220630
    27  H    0.234018
    28  H    0.223892
    29  H    0.275620
    30  H    0.275581
    31  H    0.223708
    32  N    0.488080
    33  O   -0.460473
    34  O   -0.460572
 Sum of Mulliken charges =  -0.00000

 Dipole moment (field-independent basis, Debye):
    X=              4.7384    Y=              2.1457    Z=             -1.3887  Tot=              5.3838
 Quadrupole moment (field-independent basis, Debye-Ang):
   XX=           -124.0756   YY=            -92.6565   ZZ=            -94.6578
   XY=             -9.7910   XZ=              6.5182   YZ=             -1.5336

 Normal termination of Gaussian 16 at Thu May  6 12:14:22 2021.
