 Gaussian 16, Revision A.03,
 Gaussian 16:  EM64L-G16RevA.03 25-Dec-2016

 -------------
 #p 6-31g* mp2
 -------------

 ------------------------------------------------------
 Input file generated by CHIRIPA (05-May-2021 14:55:24)
 ------------------------------------------------------
 Symbolic Z-matrix:
 Charge =  0 Multiplicity = 1

                         Standard orientation:
 ---------------------------------------------------------------------
 Center     Atomic      Atomic             Coordinates (Angstroms)
 Number     Number       Type             X           Y           Z
 ---------------------------------------------------------------------
      1          6           0        0.160926   -0.134333    1.498309
      2          6           0        0.863100    1.053281    1.267993
      3          6           0        2.085418    1.035276    0.589640
      4          6           0        2.578430   -0.193556    0.153519
      5          6           0        1.902442   -1.393751    0.367679
      6          6           0        0.681920   -1.351912    1.048210
      7          1           0       -0.787902   -0.111089    2.026116
      8          1           0        0.460901    2.000323    1.616406
      9          1           0        2.649847    1.939735    0.397829
     10          1           0        2.328779   -2.322481    0.008355
     11          1           0        0.138786   -2.275796    1.225661
     12          7           0        3.871492   -0.225233   -0.565776
     13          8           0        4.284388   -1.320777   -0.939860
     14          8           0        4.447615    0.846082   -0.741856
     15          6           0       -3.432740   -0.335241   -0.053008
     16          6           0       -3.185695   -1.671586   -0.753819
     17          6           0       -4.003308   -2.814809   -0.151866
     18          1           0       -3.191921   -0.437970    1.013948
     19          1           0       -4.502694   -0.091610   -0.109897
     20          1           0       -2.116306   -1.911950   -0.696831
     21          1           0       -3.426948   -1.565610   -1.819268
     22          1           0       -5.074706   -2.601006   -0.222545
     23          1           0       -3.756617   -2.949314    0.906270
     24          1           0       -3.811356   -3.760721   -0.667875
     25          6           0       -2.622473    0.817380   -0.643484
     26          6           0       -2.869517    2.153725    0.057326
     27          6           0       -2.051905    3.296947   -0.544626
     28          1           0       -1.552518    0.573750   -0.586596
     29          1           0       -2.863292    0.920109   -1.710442
     30          1           0       -2.628264    2.047750    1.122776
     31          1           0       -3.938906    2.394089    0.000338
     32          1           0       -2.298595    3.431453   -1.602763
     33          1           0       -0.980506    3.083146   -0.473947
     34          1           0       -2.243856    4.242860   -0.028619
 ---------------------------------------------------------------------

 SCF Done:  E(RHF) =  -669.534324917     A.U. after   15 cycles
 E2 =    -0.2095212342D+01 EUMP2 =    -0.67162953725971D+03

 The electronic state is 1-A.
 Alpha  occ. eigenvalues --  -20.60840 -20.60834 -15.85897 -11.31300 -11.27904
 Alpha  occ. eigenvalues --  -11.27897 -11.27622 -11.26897 -11.26874 -11.22444
 Alpha  occ. eigenvalues --  -11.22346 -11.22235 -11.21920 -11.21814 -11.21796
 Alpha  occ. eigenvalues --   -1.59915  -1.39467  -1.19503  -1.09248  -1.08847
 Alpha  occ. eigenvalues --   -1.04911  -1.04299  -0.96740  -0.95706  -0.87747
 Alpha  occ. eigenvalues --   -0.86297  -0.82535  -0.80360  -0.79006  -0.77571
 Alpha  occ. eigenvalues --   -0.72114  -0.71240  -0.70652  -0.65954  -0.65149
 Alpha  occ. eigenvalues --   -0.64808  -0.62341  -0.61636  -0.60091  -0.58336
 Alpha  occ. eigenvalues --   -0.56185  -0.55271  -0.53439  -0.53271  -0.53120
 Alpha  occ. eigenvalues --   -0.52970  -0.50689  -0.48875  -0.48866  -0.48666
 Alpha  occ. eigenvalues --   -0.47424  -0.46558  -0.46441  -0.44865  -0.44532
 Alpha  occ. eigenvalues --   -0.37356  -0.36495
 Alpha virt. eigenvalues --    0.04936   0.10931   0.16275   0.18616   0.22441
 Alpha virt. eigenvalues --    0.23848   0.24633   0.26475   0.26765   0.27778
 Alpha virt. eigenvalues --    0.30066   0.30638   0.30987   0.31426   0.31522

 Mulliken charges:
               1
     1  C   -0.173691
     2  C   -0.219371
     3  C   -0.171282
     4  C    0.158456
     5  C   -0.170600
     6  C   -0.219173
     7  H    0.230608
     8  H    0.226909
     9  H    0.276540
    10  H    0.276461
    11  H    0.225023
    12  N    0.488133
    13  O   -0.460106
    14  O   -0.459998
    15  C   -0.298333
    16  C   -0.303095
    17  C   -0.475893
    18  H    0.137927
    19  H    0.153276
    20  H    0.150884
    21  H    0.156737
    22  H    0.158289
    23  H    0.150288
    24  H    0.162714
    25  C   -0.308677
    26  C   -0.299154
    27  C   -0.478946
    28  H    0.162014
    29  H    0.153536
    30  H    0.139925
    31  H    0.155777
    32  H    0.160485
    33  H    0.153530
    34  H    0.160808
 Sum of Mulliken charges =  -0.00000

 Dipole moment (field-independent basis, Debye):
    X=             -4.5323    Y=              0.1018    Z=              2.3993  Tot=              5.1292
 Quadrupole moment (field-independent basis, Debye-Ang):
   XX=           -118.4649   YY=            -90.6387   ZZ=            -94.3276
   XY=              0.9817   XZ=              7.0755   YZ=              0.1440

 Normal termination of Gaussian 16 at Thu May  6 01:34:17 2021.
