 Gaussian 16, Revision A.03,
 Gaussian 16:  EM64L-G16RevA.03 25-Dec-2016

 -------------
 #p 6-31g* mp2
 -------------

 ------------------------------------------------------
 Input file generated by CHIRIPA (05-May-2021 14:57:22)
 ------------------------------------------------------
 Symbolic Z-matrix:
 Charge =  0 Multiplicity = 1

                         Standard orientation:
 ---------------------------------------------------------------------
 Center     Atomic      Atomic             Coordinates (Angstroms)
 Number     Number       Type             X           Y           Z
 ---------------------------------------------------------------------
      1          6           0        5.077041   -1.245688    0.572170
      2          6           0        5.189551    0.130099    0.798165
      3          6           0        4.184012    1.003878    0.373962
      4          6           0        3.074679    0.465251   -0.276078
      5          6           0        2.933600   -0.900711   -0.515942
      6          6           0        3.951409   -1.755802   -0.083007
      7          1           0        5.862933   -1.917202    0.905092
      8          1           0        6.062607    0.529071    1.306731
      9          1           0        4.245541    2.073173    0.535949
     10          1           0        2.051442   -1.268812   -1.025566
     11          1           0        3.861351   -2.823815   -0.259878
     12          7           0        2.003665    1.380390   -0.729784
     13          8           0        1.036348    0.880857   -1.300224
     14          8           0        2.151801    2.579881   -0.506369
     15          6           0       -1.001954   -1.451003    0.323882
     16          6           0       -1.218087   -0.250895    1.009119
     17          6           0       -2.460316    0.387633    0.948325
     18          6           0       -3.468643   -0.204545    0.189451
     19          6           0       -3.284187   -1.399456   -0.504419
     20          6           0       -2.033874   -2.020449   -0.429371
     21          1           0       -0.033819   -1.940217    0.376645
     22          1           0       -0.418514    0.193641    1.594881
     23          1           0       -2.654889    1.317410    1.468972
     24          1           0       -4.100538   -1.818397   -1.080160
     25          1           0       -1.868879   -2.952396   -0.962565
     26          7           0       -4.788015    0.462154    0.117546
     27          8           0       -5.660060   -0.079981   -0.557926
     28          8           0       -4.925110    1.514225    0.738021
 ---------------------------------------------------------------------

 SCF Done:  E(RHF) =  -868.336436253     A.U. after   16 cycles
 E2 =    -0.2601932819D+01 EUMP2 =    -0.87093836907293D+03

 The electronic state is 1-A.
 Alpha  occ. eigenvalues --  -20.61616 -20.61568 -20.60149 -20.60136 -15.86617
 Alpha  occ. eigenvalues --  -15.85196 -11.32116 -11.30492 -11.28728 -11.28615
 Alpha  occ. eigenvalues --  -11.28360 -11.27722 -11.27634 -11.27093 -11.27011
 Alpha  occ. eigenvalues --  -11.26916 -11.26169 -11.26093  -1.60670  -1.59219
 Alpha  occ. eigenvalues --   -1.40217  -1.38775  -1.20275  -1.18666  -1.09634
 Alpha  occ. eigenvalues --   -1.08107  -1.05688  -1.04072  -0.96458  -0.94955
 Alpha  occ. eigenvalues --   -0.87072  -0.85508  -0.83279  -0.81797  -0.78335
 Alpha  occ. eigenvalues --   -0.76825  -0.72836  -0.72029  -0.71424  -0.71368
 Alpha  occ. eigenvalues --   -0.70534  -0.69886  -0.65910  -0.65664  -0.64357
 Alpha  occ. eigenvalues --   -0.64138  -0.63031  -0.61448  -0.56146  -0.54752
 Alpha  occ. eigenvalues --   -0.53990  -0.53721  -0.52369  -0.52219  -0.49620
 Alpha  occ. eigenvalues --   -0.49588  -0.48180  -0.48175  -0.45590  -0.44197
 Alpha  occ. eigenvalues --   -0.38236  -0.37301  -0.36594  -0.35595
 Alpha virt. eigenvalues --    0.04142   0.05712   0.10270   0.12024   0.15677
 Alpha virt. eigenvalues --    0.17111   0.20110   0.21943   0.25912   0.27177
 Alpha virt. eigenvalues --    0.27673   0.29177   0.30471   0.30992   0.32432

 Mulliken charges:
               1
     1  C   -0.170478
     2  C   -0.217516
     3  C   -0.171071
     4  C    0.156694
     5  C   -0.179140
     6  C   -0.218611
     7  H    0.228688
     8  H    0.227003
     9  H    0.278384
    10  H    0.272917
    11  H    0.224009
    12  N    0.485115
    13  O   -0.455983
    14  O   -0.457443
    15  C   -0.161089
    16  C   -0.204346
    17  C   -0.168517
    18  C    0.159182
    19  C   -0.170508
    20  C   -0.218651
    21  H    0.211639
    22  H    0.218041
    23  H    0.275734
    24  H    0.273291
    25  H    0.217686
    26  N    0.488185
    27  O   -0.462749
    28  O   -0.460469
 Sum of Mulliken charges =  -0.00000

 Dipole moment (field-independent basis, Debye):
    X=              8.6853    Y=             -5.3328    Z=              1.8416  Tot=             10.3569
 Quadrupole moment (field-independent basis, Debye-Ang):
   XX=           -112.3301   YY=           -101.9725   ZZ=           -104.4934
   XY=              2.4970   XZ=              6.3743   YZ=              5.2963

 Normal termination of Gaussian 16 at Thu May  6 14:32:22 2021.
