 Gaussian 16, Revision A.03,
 Gaussian 16:  EM64L-G16RevA.03 25-Dec-2016

 -------------
 #p 6-31g* mp2
 -------------

 ------------------------------------------------------
 Input file generated by CHIRIPA (05-May-2021 14:55:22)
 ------------------------------------------------------
 Symbolic Z-matrix:
 Charge =  0 Multiplicity = 1

                         Standard orientation:
 ---------------------------------------------------------------------
 Center     Atomic      Atomic             Coordinates (Angstroms)
 Number     Number       Type             X           Y           Z
 ---------------------------------------------------------------------
      1          6           0       -1.402218   -0.010278    2.338502
      2          6           0       -0.830580   -0.640456    1.228264
      3          6           0       -1.535042   -0.734354    0.024327
      4          6           0       -2.814749   -0.184633   -0.034396
      5          6           0       -3.411417    0.449399    1.054310
      6          6           0       -2.688544    0.531682    2.248141
      7          1           0       -0.847824    0.058153    3.269824
      8          1           0        0.168222   -1.062251    1.295544
      9          1           0       -1.116440   -1.216772   -0.850580
     10          1           0       -4.408917    0.860361    0.956732
     11          1           0       -3.134995    1.021657    3.108752
     12          7           0       -3.570276   -0.277891   -1.303601
     13          8           0       -4.696142    0.214439   -1.329579
     14          8           0       -3.022287   -0.841550   -2.248394
     15          6           0        3.415668   -0.432906    0.177185
     16          6           0        4.016594   -1.628416   -0.562835
     17          6           0        3.953573   -2.920600    0.252076
     18          1           0        3.946737   -0.294186    1.128851
     19          1           0        2.370407   -0.656069    0.432181
     20          1           0        5.059999   -1.402516   -0.817577
     21          1           0        3.484160   -1.764188   -1.512937
     22          1           0        2.916185   -3.173055    0.494343
     23          1           0        4.500977   -2.809328    1.193654
     24          1           0        4.388513   -3.762351   -0.295778
     25          6           0        3.471318    0.866219   -0.624631
     26          6           0        2.870391    2.061729    0.115389
     27          6           0        2.933411    3.353913   -0.699523
     28          1           0        4.516578    1.089381   -0.879627
     29          1           0        2.940249    0.727498   -1.576297
     30          1           0        3.402825    2.197501    1.065491
     31          1           0        1.826987    1.835829    0.370131
     32          1           0        2.386007    3.242640   -1.641101
     33          1           0        3.970800    3.606368   -0.941789
     34          1           0        2.498473    4.195663   -0.151669
 ---------------------------------------------------------------------

 SCF Done:  E(RHF) =  -669.535656410     A.U. after   15 cycles
 E2 =    -0.2091579927D+01 EUMP2 =    -0.67162723633740D+03

 The electronic state is 1-A.
 Alpha  occ. eigenvalues --  -20.60789 -20.60784 -15.85844 -11.31217 -11.27798
 Alpha  occ. eigenvalues --  -11.27791 -11.27532 -11.26799 -11.26787 -11.22240
 Alpha  occ. eigenvalues --  -11.22172 -11.22071 -11.21908 -11.21730 -11.21393
 Alpha  occ. eigenvalues --   -1.59865  -1.39418  -1.19394  -1.09046  -1.08783
 Alpha  occ. eigenvalues --   -1.04800  -1.04072  -0.96530  -0.95617  -0.87540
 Alpha  occ. eigenvalues --   -0.86195  -0.82453  -0.80143  -0.78881  -0.77494
 Alpha  occ. eigenvalues --   -0.72061  -0.71188  -0.70496  -0.65732  -0.65044
 Alpha  occ. eigenvalues --   -0.64772  -0.62155  -0.61458  -0.59897  -0.58140
 Alpha  occ. eigenvalues --   -0.55833  -0.55289  -0.53201  -0.53117  -0.53017
 Alpha  occ. eigenvalues --   -0.52835  -0.50466  -0.48826  -0.48816  -0.48453
 Alpha  occ. eigenvalues --   -0.47180  -0.46390  -0.46316  -0.44822  -0.44350
 Alpha  occ. eigenvalues --   -0.37366  -0.36394
 Alpha virt. eigenvalues --    0.05036   0.11175   0.16451   0.19494   0.22813
 Alpha virt. eigenvalues --    0.23618   0.24957   0.26588   0.27413   0.28322
 Alpha virt. eigenvalues --    0.29150   0.30176   0.31261   0.31529   0.31998

 Mulliken charges:
               1
     1  C   -0.171921
     2  C   -0.223544
     3  C   -0.172980
     4  C    0.158547
     5  C   -0.170660
     6  C   -0.218593
     7  H    0.226681
     8  H    0.231542
     9  H    0.275281
    10  H    0.275799
    11  H    0.223625
    12  N    0.488150
    13  O   -0.460333
    14  O   -0.460497
    15  C   -0.302522
    16  C   -0.300419
    17  C   -0.475438
    18  H    0.150513
    19  H    0.141097
    20  H    0.155554
    21  H    0.154413
    22  H    0.149352
    23  H    0.155843
    24  H    0.164481
    25  C   -0.298448
    26  C   -0.301785
    27  C   -0.476070
    28  H    0.152268
    29  H    0.152665
    30  H    0.150450
    31  H    0.151681
    32  H    0.158306
    33  H    0.156008
    34  H    0.160954
 Sum of Mulliken charges =  -0.00000

 Dipole moment (field-independent basis, Debye):
    X=              2.7684    Y=              0.3750    Z=              4.4156  Tot=              5.2251
 Quadrupole moment (field-independent basis, Debye-Ang):
   XX=           -105.6186   YY=            -95.1651   ZZ=            -94.6566
   XY=             -3.4334   XZ=            -14.5882   YZ=              0.9203

 Normal termination of Gaussian 16 at Thu May  6 14:12:37 2021.
