 Gaussian 16, Revision A.03,
 Gaussian 16:  EM64L-G16RevA.03 25-Dec-2016

 -------------
 #p 6-31g* mp2
 -------------

 ------------------------------------------------------
 Input file generated by CHIRIPA (05-May-2021 14:55:22)
 ------------------------------------------------------
 Symbolic Z-matrix:
 Charge =  0 Multiplicity = 1

                         Standard orientation:
 ---------------------------------------------------------------------
 Center     Atomic      Atomic             Coordinates (Angstroms)
 Number     Number       Type             X           Y           Z
 ---------------------------------------------------------------------
      1          6           0        1.353948   -1.429049    1.340589
      2          6           0        1.320496   -0.054149    1.085537
      3          6           0        2.364110    0.564729    0.390981
      4          6           0        3.430486   -0.225124   -0.035944
      5          6           0        3.492740   -1.597142    0.202762
      6          6           0        2.438052   -2.194807    0.899166
      7          1           0        0.538943   -1.901569    1.880854
      8          1           0        0.479838    0.543038    1.427161
      9          1           0        2.363735    1.627215    0.179933
     10          1           0        4.344143   -2.166223   -0.150334
     11          1           0        2.466706   -3.262774    1.095817
     12          7           0        4.541175    0.418826   -0.772217
     13          8           0        5.469346   -0.299175   -1.137744
     14          8           0        4.462531    1.629362   -0.969840
     15          6           0       -4.762547   -0.007860    0.063569
     16          6           0       -5.223015   -0.896973   -1.092039
     17          6           0       -6.435909   -1.754982   -0.730785
     18          1           0       -4.522039   -0.638957    0.930066
     19          1           0       -5.593812    0.641639    0.371050
     20          1           0       -4.390707   -1.543631   -1.398162
     21          1           0       -5.462272   -0.263700   -1.955947
     22          1           0       -7.283442   -1.123335   -0.445635
     23          1           0       -6.205788   -2.410538    0.115319
     24          1           0       -6.748247   -2.382710   -1.571178
     25          6           0       -3.550878    0.855871   -0.282200
     26          6           0       -3.090409    1.744985    0.873407
     27          6           0       -1.877516    2.602993    0.512154
     28          1           0       -2.719612    0.206373   -0.589681
     29          1           0       -3.791385    1.486969   -1.148698
     30          1           0       -2.851153    1.111711    1.737316
     31          1           0       -3.922718    2.391642    1.179531
     32          1           0       -2.107636    3.258550   -0.333951
     33          1           0       -1.029983    1.971346    0.227004
     34          1           0       -1.565178    3.230722    1.352547
 ---------------------------------------------------------------------

 SCF Done:  E(RHF) =  -669.535493298     A.U. after   15 cycles
 E2 =    -0.2091128075D+01 EUMP2 =    -0.67162662137310D+03

 The electronic state is 1-A.
 Alpha  occ. eigenvalues --  -20.60753 -20.60748 -15.85807 -11.31183 -11.27762
 Alpha  occ. eigenvalues --  -11.27748 -11.27504 -11.26777 -11.26735 -11.22441
 Alpha  occ. eigenvalues --  -11.22102 -11.22066 -11.21991 -11.21965 -11.21510
 Alpha  occ. eigenvalues --   -1.59829  -1.39382  -1.19359  -1.09095  -1.08753
 Alpha  occ. eigenvalues --   -1.04765  -1.04205  -0.96656  -0.95585  -0.87674
 Alpha  occ. eigenvalues --   -0.86160  -0.82419  -0.80267  -0.78880  -0.77462
 Alpha  occ. eigenvalues --   -0.72025  -0.71152  -0.70469  -0.65763  -0.65011
 Alpha  occ. eigenvalues --   -0.64772  -0.62201  -0.61529  -0.60022  -0.58246
 Alpha  occ. eigenvalues --   -0.55977  -0.55253  -0.53350  -0.53138  -0.53055
 Alpha  occ. eigenvalues --   -0.52812  -0.50582  -0.48787  -0.48779  -0.48569
 Alpha  occ. eigenvalues --   -0.47305  -0.46424  -0.46344  -0.44785  -0.44445
 Alpha  occ. eigenvalues --   -0.37343  -0.36361
 Alpha virt. eigenvalues --    0.05060   0.11247   0.16465   0.19728   0.22617
 Alpha virt. eigenvalues --    0.23662   0.25790   0.26390   0.26977   0.28261
 Alpha virt. eigenvalues --    0.28695   0.30497   0.30981   0.31254   0.32095

 Mulliken charges:
               1
     1  C   -0.171673
     2  C   -0.223732
     3  C   -0.172389
     4  C    0.158608
     5  C   -0.170885
     6  C   -0.218514
     7  H    0.225456
     8  H    0.230838
     9  H    0.276360
    10  H    0.275664
    11  H    0.223350
    12  N    0.488101
    13  O   -0.460558
    14  O   -0.460150
    15  C   -0.298289
    16  C   -0.300078
    17  C   -0.475924
    18  H    0.147186
    19  H    0.151381
    20  H    0.151678
    21  H    0.153931
    22  H    0.156266
    23  H    0.154316
    24  H    0.161904
    25  C   -0.298955
    26  C   -0.300459
    27  C   -0.481745
    28  H    0.148558
    29  H    0.153230
    30  H    0.146365
    31  H    0.156528
    32  H    0.162622
    33  H    0.149480
    34  H    0.161529
 Sum of Mulliken charges =  -0.00000

 Dipole moment (field-independent basis, Debye):
    X=             -4.0712    Y=             -2.2264    Z=              2.5323  Tot=              5.2862
 Quadrupole moment (field-independent basis, Debye-Ang):
   XX=           -120.8261   YY=            -89.5967   ZZ=            -95.6851
   XY=            -10.5801   XZ=              9.3789   YZ=             -0.3836

 Normal termination of Gaussian 16 at Thu May  6 15:54:11 2021.
