 Gaussian 16, Revision A.03,
 Gaussian 16:  EM64L-G16RevA.03 25-Dec-2016

 -------------
 #p 6-31g* mp2
 -------------

 ------------------------------------------------------
 Input file generated by CHIRIPA (05-May-2021 14:57:25)
 ------------------------------------------------------
 Symbolic Z-matrix:
 Charge =  0 Multiplicity = 1

                         Standard orientation:
 ---------------------------------------------------------------------
 Center     Atomic      Atomic             Coordinates (Angstroms)
 Number     Number       Type             X           Y           Z
 ---------------------------------------------------------------------
      1          6           0       -1.875331    1.113906    0.072997
      2          6           0       -3.005489    1.739230    0.609871
      3          6           0       -4.257314    1.120063    0.545708
      4          6           0       -4.343091   -0.130020   -0.065214
      5          6           0       -3.235567   -0.778595   -0.609303
      6          6           0       -1.993768   -0.140799   -0.533806
      7          1           0       -0.906778    1.602125    0.127243
      8          1           0       -2.916490    2.713649    1.081710
      9          1           0       -5.148552    1.581624    0.953230
     10          1           0       -3.355692   -1.749954   -1.073468
     11          1           0       -1.117782   -0.628797   -0.951599
     12          7           0       -5.663034   -0.795364   -0.139140
     13          8           0       -5.712090   -1.896681   -0.682586
     14          8           0       -6.623558   -0.202947    0.347763
     15          6           0        5.348485   -2.174497    0.283113
     16          6           0        4.146668   -1.967634    0.968213
     17          6           0        3.460510   -0.755479    0.848149
     18          6           0        4.007319    0.232554    0.030787
     19          6           0        5.202658    0.056642   -0.664562
     20          6           0        5.871723   -1.163481   -0.529655
     21          1           0        5.874870   -3.119223    0.382146
     22          1           0        3.737956   -2.751020    1.600120
     23          1           0        2.528282   -0.568692    1.367266
     24          1           0        5.585234    0.856337   -1.287090
     25          1           0        6.804880   -1.321342   -1.062894
     26          7           0        3.289962    1.520026   -0.104177
     27          8           0        3.792680    2.374630   -0.830512
     28          8           0        2.238563    1.650163    0.518931
 ---------------------------------------------------------------------

 SCF Done:  E(RHF) =  -868.340063542     A.U. after   16 cycles
 E2 =    -0.2598175444D+01 EUMP2 =    -0.87093823898609D+03

 The electronic state is 1-A.
 Alpha  occ. eigenvalues --  -20.61876 -20.61803 -20.60356 -20.60349 -15.86874
 Alpha  occ. eigenvalues --  -15.85407 -11.31994 -11.30619 -11.28548 -11.28505
 Alpha  occ. eigenvalues --  -11.28201 -11.27482 -11.27460 -11.27221 -11.27185
 Alpha  occ. eigenvalues --  -11.26683 -11.26129 -11.26070  -1.60902  -1.59436
 Alpha  occ. eigenvalues --   -1.40465  -1.38994  -1.20137  -1.18770  -1.09572
 Alpha  occ. eigenvalues --   -1.08148  -1.05501  -1.04168  -0.96450  -0.95011
 Alpha  occ. eigenvalues --   -0.86908  -0.85547  -0.83293  -0.81867  -0.78372
 Alpha  occ. eigenvalues --   -0.76977  -0.73107  -0.72210  -0.71625  -0.71233
 Alpha  occ. eigenvalues --   -0.70760  -0.69739  -0.65789  -0.65491  -0.64402
 Alpha  occ. eigenvalues --   -0.64155  -0.62850  -0.61533  -0.55995  -0.54483
 Alpha  occ. eigenvalues --   -0.53844  -0.53583  -0.52494  -0.52245  -0.49869
 Alpha  occ. eigenvalues --   -0.49823  -0.48391  -0.48368  -0.45920  -0.44435
 Alpha  occ. eigenvalues --   -0.38096  -0.37096  -0.36680  -0.35801
 Alpha virt. eigenvalues --    0.04118   0.05578   0.10560   0.11869   0.15648
 Alpha virt. eigenvalues --    0.17126   0.20694   0.22212   0.26646   0.27417
 Alpha virt. eigenvalues --    0.27958   0.29199   0.30472   0.31661   0.32069

 Mulliken charges:
               1
     1  C   -0.178597
     2  C   -0.220499
     3  C   -0.171388
     4  C    0.157031
     5  C   -0.171953
     6  C   -0.221753
     7  H    0.249783
     8  H    0.224942
     9  H    0.273762
    10  H    0.272205
    11  H    0.220357
    12  N    0.488300
    13  O   -0.463007
    14  O   -0.461778
    15  C   -0.169880
    16  C   -0.218469
    17  C   -0.172666
    18  C    0.157488
    19  C   -0.170412
    20  C   -0.218375
    21  H    0.228616
    22  H    0.226002
    23  H    0.273540
    24  H    0.277009
    25  H    0.226169
    26  N    0.490769
    27  O   -0.454890
    28  O   -0.472308
 Sum of Mulliken charges =  -0.00000

 Dipole moment (field-independent basis, Debye):
    X=              7.6954    Y=             -2.1338    Z=              0.7317  Tot=              8.0192
 Quadrupole moment (field-independent basis, Debye-Ang):
   XX=           -122.1591   YY=           -104.4833   ZZ=           -103.0111
   XY=            -29.7904   XZ=             -3.3959   YZ=              0.5581

 Normal termination of Gaussian 16 at Thu May  6 09:52:51 2021.
