 Gaussian 16, Revision A.03,
 Gaussian 16:  EM64L-G16RevA.03 25-Dec-2016

 -------------
 #p 6-31g* mp2
 -------------

 ------------------------------------------------------
 Input file generated by CHIRIPA (05-May-2021 14:57:21)
 ------------------------------------------------------
 Symbolic Z-matrix:
 Charge =  0 Multiplicity = 1

                         Standard orientation:
 ---------------------------------------------------------------------
 Center     Atomic      Atomic             Coordinates (Angstroms)
 Number     Number       Type             X           Y           Z
 ---------------------------------------------------------------------
      1          6           0        2.959256    1.998260    0.962778
      2          6           0        3.636276    0.791599    1.168043
      3          6           0        3.231295   -0.371279    0.506036
      4          6           0        2.140353   -0.291066   -0.358083
      5          6           0        1.445396    0.896165   -0.583491
      6          6           0        1.867901    2.046607    0.089206
      7          1           0        3.280662    2.896781    1.481193
      8          1           0        4.484170    0.751088    1.845892
      9          1           0        3.737399   -1.318667    0.646505
     10          1           0        0.603680    0.905319   -1.265289
     11          1           0        1.340230    2.982329   -0.072138
     12          7           0        1.702341   -1.515570   -1.064579
     13          8           0        0.738259   -1.418536   -1.820732
     14          8           0        2.331403   -2.549183   -0.848799
     15          6           0       -2.334706    1.787176   -1.620628
     16          6           0       -2.491130    0.426154   -1.902890
     17          6           0       -2.425327   -0.523459   -0.878949
     18          6           0       -2.200732   -0.074895    0.421681
     19          6           0       -2.040920    1.274083    0.734740
     20          6           0       -2.110495    2.206058   -0.305034
     21          1           0       -2.387287    2.518008   -2.422199
     22          1           0       -2.665366    0.097958   -2.923660
     23          1           0       -2.542931   -1.583328   -1.069375
     24          1           0       -1.868411    1.570820    1.762167
     25          1           0       -1.988646    3.262395   -0.082881
     26          7           0       -2.129073   -1.070873    1.514063
     27          8           0       -1.930209   -0.650001    2.651585
     28          8           0       -2.273127   -2.253532    1.212063
 ---------------------------------------------------------------------

 SCF Done:  E(RHF) =  -868.337720033     A.U. after   16 cycles
 E2 =    -0.2604276251D+01 EUMP2 =    -0.87094199628399D+03

 The electronic state is 1-A.
 Alpha  occ. eigenvalues --  -20.60817 -20.60763 -20.60618 -20.60572 -15.85835
 Alpha  occ. eigenvalues --  -15.85655 -11.31112 -11.31108 -11.27837 -11.27700
 Alpha  occ. eigenvalues --  -11.27661 -11.27632 -11.27604 -11.27496 -11.26900
 Alpha  occ. eigenvalues --  -11.26756 -11.26692 -11.26669  -1.59856  -1.59673
 Alpha  occ. eigenvalues --   -1.39417  -1.39219  -1.19398  -1.19289  -1.08761
 Alpha  occ. eigenvalues --   -1.08732  -1.04792  -1.04673  -0.95591  -0.95529
 Alpha  occ. eigenvalues --   -0.86163  -0.86114  -0.82418  -0.82354  -0.77480
 Alpha  occ. eigenvalues --   -0.77351  -0.72087  -0.71870  -0.71218  -0.70965
 Alpha  occ. eigenvalues --   -0.70493  -0.70413  -0.65011  -0.64972  -0.64804
 Alpha  occ. eigenvalues --   -0.64697  -0.62127  -0.62050  -0.55307  -0.55277
 Alpha  occ. eigenvalues --   -0.53454  -0.52971  -0.52834  -0.52456  -0.48831
 Alpha  occ. eigenvalues --   -0.48807  -0.48648  -0.48610  -0.44853  -0.44588
 Alpha  occ. eigenvalues --   -0.37521  -0.37262  -0.36724  -0.35815
 Alpha virt. eigenvalues --    0.04715   0.05511   0.11178   0.11368   0.16421
 Alpha virt. eigenvalues --    0.16696   0.20813   0.21890   0.26408   0.28013
 Alpha virt. eigenvalues --    0.28380   0.28401   0.30339   0.31653   0.32601

 Mulliken charges:
               1
     1  C   -0.169500
     2  C   -0.218543
     3  C   -0.167665
     4  C    0.155233
     5  C   -0.171640
     6  C   -0.221925
     7  H    0.224483
     8  H    0.224168
     9  H    0.277012
    10  H    0.280382
    11  H    0.215974
    12  N    0.489232
    13  O   -0.467725
    14  O   -0.455841
    15  C   -0.181639
    16  C   -0.216914
    17  C   -0.151070
    18  C    0.151873
    19  C   -0.169418
    20  C   -0.227744
    21  H    0.225107
    22  H    0.229159
    23  H    0.284668
    24  H    0.274154
    25  H    0.218283
    26  N    0.487523
    27  O   -0.463692
    28  O   -0.453936
 Sum of Mulliken charges =  -0.00000

 Dipole moment (field-independent basis, Debye):
    X=              1.1964    Y=              7.3678    Z=             -1.4271  Tot=              7.5996
 Quadrupole moment (field-independent basis, Debye-Ang):
   XX=            -94.8291   YY=           -104.9605   ZZ=           -107.6687
   XY=              0.0268   XZ=             16.3322   YZ=              1.1423

 Normal termination of Gaussian 16 at Thu May  6 19:26:19 2021.
