 Gaussian 16, Revision A.03,
 Gaussian 16:  EM64L-G16RevA.03 25-Dec-2016

 -------------
 #p 6-31g* mp2
 -------------

 ------------------------------------------------------
 Input file generated by CHIRIPA (05-May-2021 14:53:14)
 ------------------------------------------------------
 Symbolic Z-matrix:
 Charge =  0 Multiplicity = 1

                         Standard orientation:
 ---------------------------------------------------------------------
 Center     Atomic      Atomic             Coordinates (Angstroms)
 Number     Number       Type             X           Y           Z
 ---------------------------------------------------------------------
      1          6           0        5.066829    0.012441    0.115428
      2          6           0        5.361403    1.434421   -0.363304
      3          6           0        6.824850    1.832348   -0.168959
      4          1           0        5.333439   -0.072585    1.177800
      5          1           0        5.714103   -0.690915   -0.426533
      6          1           0        4.712789    2.134752    0.178407
      7          1           0        5.093881    1.516124   -1.424611
      8          1           0        7.484596    1.156883   -0.723110
      9          1           0        7.101338    1.779026    0.889017
     10          1           0        7.013245    2.852467   -0.517849
     11          6           0        3.607912   -0.399948   -0.072260
     12          6           0        3.313338   -1.821928    0.406472
     13          6           0        1.849891   -2.219856    0.212126
     14          1           0        2.960638    0.303407    0.469701
     15          1           0        3.341302   -0.314923   -1.134632
     16          1           0        3.580860   -1.903632    1.467779
     17          1           0        3.961952   -2.522260   -0.135239
     18          1           0        1.573403   -2.166533   -0.845849
     19          1           0        1.190145   -1.544391    0.766278
     20          1           0        1.661496   -3.239975    0.561017
     21          6           0       -4.288089    2.501865    0.161926
     22          6           0       -2.916135    2.265226    0.297071
     23          6           0       -2.406603    0.966969    0.199838
     24          6           0       -3.301608   -0.075867   -0.034147
     25          6           0       -4.673634    0.127775   -0.173318
     26          6           0       -5.160921    1.434265   -0.072424
     27          1           0       -4.675267    3.513580    0.238882
     28          1           0       -2.235936    3.092409    0.479116
     29          1           0       -1.348993    0.755423    0.300470
     30          1           0       -5.326953   -0.717111   -0.354308
     31          1           0       -6.226872    1.615072   -0.177797
     32          7           0       -2.773964   -1.454632   -0.139022
     33          8           0       -3.583348   -2.356226   -0.345570
     34          8           0       -1.561003   -1.607606   -0.012689
 ---------------------------------------------------------------------

 SCF Done:  E(RHF) =  -669.535480050     A.U. after   15 cycles
 E2 =    -0.2090995440D+01 EUMP2 =    -0.67162647549011D+03

 The electronic state is 1-A.
 Alpha  occ. eigenvalues --  -20.60811 -20.60806 -15.85854 -11.31227 -11.27798
 Alpha  occ. eigenvalues --  -11.27794 -11.27542 -11.26815 -11.26805 -11.21418
 Alpha  occ. eigenvalues --  -11.21054 -11.20930 -11.20918 -11.20781 -11.19747
 Alpha  occ. eigenvalues --   -1.59883  -1.39437  -1.19401  -1.08796  -1.07984
 Alpha  occ. eigenvalues --   -1.04805  -1.02969  -0.95641  -0.95368  -0.86385
 Alpha  occ. eigenvalues --   -0.86201  -0.82463  -0.79055  -0.77787  -0.77486
 Alpha  occ. eigenvalues --   -0.72073  -0.71203  -0.70509  -0.65056  -0.64808
 Alpha  occ. eigenvalues --   -0.64626  -0.62153  -0.60372  -0.58826  -0.56989
 Alpha  occ. eigenvalues --   -0.55306  -0.54667  -0.53134  -0.52897  -0.52040
 Alpha  occ. eigenvalues --   -0.51787  -0.49344  -0.48834  -0.48822  -0.47324
 Alpha  occ. eigenvalues --   -0.46120  -0.45286  -0.45239  -0.44823  -0.43229
 Alpha  occ. eigenvalues --   -0.37383  -0.36409
 Alpha virt. eigenvalues --    0.05019   0.11245   0.16506   0.21168   0.23201
 Alpha virt. eigenvalues --    0.24566   0.26493   0.27323   0.27638   0.28059
 Alpha virt. eigenvalues --    0.29090   0.30689   0.31688   0.32149   0.32655

 Mulliken charges:
               1
     1  C   -0.297511
     2  C   -0.298861
     3  C   -0.475347
     4  H    0.148843
     5  H    0.149787
     6  H    0.148888
     7  H    0.151288
     8  H    0.155584
     9  H    0.154833
    10  H    0.158637
    11  C   -0.296111
    12  C   -0.302336
    13  C   -0.468916
    14  H    0.143443
    15  H    0.148955
    16  H    0.148274
    17  H    0.149201
    18  H    0.157212
    19  H    0.160407
    20  H    0.161468
    21  C   -0.170744
    22  C   -0.218667
    23  C   -0.170901
    24  C    0.157727
    25  C   -0.170868
    26  C   -0.218569
    27  H    0.225735
    28  H    0.223669
    29  H    0.275912
    30  H    0.275727
    31  H    0.223573
    32  N    0.494207
    33  O   -0.460132
    34  O   -0.464406
 Sum of Mulliken charges =  -0.00000

 Dipole moment (field-independent basis, Debye):
    X=             -2.0794    Y=              4.7675    Z=              0.3505  Tot=              5.2130
 Quadrupole moment (field-independent basis, Debye-Ang):
   XX=            -80.0961   YY=            -95.4249   ZZ=            -94.7588
   XY=            -14.9387   XZ=             -0.7035   YZ=              0.4764

 Normal termination of Gaussian 16 at Thu May  6 08:59:21 2021.
