 Gaussian 16, Revision A.03,
 Gaussian 16:  EM64L-G16RevA.03 25-Dec-2016

 -------------
 #p 6-31g* mp2
 -------------

 ------------------------------------------------------
 Input file generated by CHIRIPA (05-May-2021 14:55:23)
 ------------------------------------------------------
 Symbolic Z-matrix:
 Charge =  0 Multiplicity = 1

                         Standard orientation:
 ---------------------------------------------------------------------
 Center     Atomic      Atomic             Coordinates (Angstroms)
 Number     Number       Type             X           Y           Z
 ---------------------------------------------------------------------
      1          6           0       -1.015766   -1.915927   -0.203202
      2          6           0       -0.702413   -0.564021   -0.378368
      3          6           0       -1.699306    0.412550   -0.294331
      4          6           0       -3.004887   -0.000051   -0.032589
      5          6           0       -3.348616   -1.339086    0.146651
      6          6           0       -2.335540   -2.298470    0.058287
      7          1           0       -0.235070   -2.667875   -0.270165
      8          1           0        0.321677   -0.264023   -0.581556
      9          1           0       -1.484538    1.466122   -0.425775
     10          1           0       -4.378585   -1.607475    0.348017
     11          1           0       -2.581810   -3.347646    0.194760
     12          7           0       -4.068818    1.024703    0.058668
     13          8           0       -5.211349    0.635313    0.290260
     14          8           0       -3.740051    2.197892   -0.103126
     15          6           0        3.993451   -0.448791    0.005842
     16          6           0        3.080899   -1.667151    0.150173
     17          6           0        3.838987   -2.990190    0.037625
     18          1           0        4.508044   -0.496851   -0.963605
     19          1           0        4.775018   -0.491374    0.777032
     20          1           0        2.300463   -1.621563   -0.620189
     21          1           0        2.568273   -1.616087    1.119308
     22          1           0        4.606425   -3.061798    0.815128
     23          1           0        4.337094   -3.067306   -0.934252
     24          1           0        3.167502   -3.847927    0.143707
     25          6           0        3.250167    0.881285    0.116089
     26          6           0        4.162717    2.099646   -0.028242
     27          6           0        3.404629    3.422684    0.084306
     28          1           0        2.468598    0.923868   -0.655100
     29          1           0        2.735572    0.929346    1.085537
     30          1           0        4.675344    2.048581   -0.997376
     31          1           0        4.943154    2.054058    0.742120
     32          1           0        2.906522    3.499800    1.056183
     33          1           0        2.637191    3.494292   -0.693197
     34          1           0        4.076115    4.280421   -0.021775
 ---------------------------------------------------------------------

 SCF Done:  E(RHF) =  -669.535005743     A.U. after   15 cycles
 E2 =    -0.2092571439D+01 EUMP2 =    -0.67162757718194D+03

 The electronic state is 1-A.
 Alpha  occ. eigenvalues --  -20.60676 -20.60670 -15.85727 -11.31064 -11.27634
 Alpha  occ. eigenvalues --  -11.27608 -11.27337 -11.26648 -11.26541 -11.22899
 Alpha  occ. eigenvalues --  -11.22473 -11.22402 -11.22335 -11.22153 -11.21647
 Alpha  occ. eigenvalues --   -1.59752  -1.39306  -1.19228  -1.09469  -1.08625
 Alpha  occ. eigenvalues --   -1.04628  -1.04482  -0.96904  -0.95469  -0.87919
 Alpha  occ. eigenvalues --   -0.86035  -0.82303  -0.80593  -0.79320  -0.77343
 Alpha  occ. eigenvalues --   -0.71946  -0.71075  -0.70338  -0.66134  -0.64877
 Alpha  occ. eigenvalues --   -0.64612  -0.62015  -0.61838  -0.60296  -0.58539
 Alpha  occ. eigenvalues --   -0.56171  -0.55111  -0.53601  -0.53335  -0.52960
 Alpha  occ. eigenvalues --   -0.52726  -0.50842  -0.48888  -0.48706  -0.48699
 Alpha  occ. eigenvalues --   -0.47613  -0.46747  -0.46703  -0.44752  -0.44718
 Alpha  occ. eigenvalues --   -0.37205  -0.36227
 Alpha virt. eigenvalues --    0.05171   0.11389   0.16666   0.19584   0.22452
 Alpha virt. eigenvalues --    0.22847   0.24674   0.25943   0.26061   0.28275
 Alpha virt. eigenvalues --    0.29500   0.30408   0.30974   0.31098   0.32140

 Mulliken charges:
               1
     1  C   -0.175401
     2  C   -0.226746
     3  C   -0.174003
     4  C    0.158764
     5  C   -0.171540
     6  C   -0.218545
     7  H    0.227792
     8  H    0.237198
     9  H    0.275249
    10  H    0.275022
    11  H    0.222724
    12  N    0.488012
    13  O   -0.460903
    14  O   -0.460691
    15  C   -0.298262
    16  C   -0.307152
    17  C   -0.475587
    18  H    0.152845
    19  H    0.154663
    20  H    0.143140
    21  H    0.155647
    22  H    0.160469
    23  H    0.158816
    24  H    0.157770
    25  C   -0.304238
    26  C   -0.299745
    27  C   -0.476823
    28  H    0.143024
    29  H    0.153199
    30  H    0.153990
    31  H    0.155060
    32  H    0.157425
    33  H    0.154759
    34  H    0.164069
 Sum of Mulliken charges =  -0.00000

 Dipole moment (field-independent basis, Debye):
    X=              4.0961    Y=             -3.5441    Z=             -0.2480  Tot=              5.4222
 Quadrupole moment (field-independent basis, Debye-Ang):
   XX=           -114.3460   YY=            -93.1837   ZZ=            -94.3914
   XY=             14.2248   XZ=              0.5168   YZ=             -0.6990

 Normal termination of Gaussian 16 at Thu May  6 01:30:32 2021.
