 Gaussian 16, Revision A.03,
 Gaussian 16:  EM64L-G16RevA.03 25-Dec-2016

 -------------
 #p 6-31g* mp2
 -------------

 ------------------------------------------------------
 Input file generated by CHIRIPA (05-May-2021 14:55:22)
 ------------------------------------------------------
 Symbolic Z-matrix:
 Charge =  0 Multiplicity = 1

                         Standard orientation:
 ---------------------------------------------------------------------
 Center     Atomic      Atomic             Coordinates (Angstroms)
 Number     Number       Type             X           Y           Z
 ---------------------------------------------------------------------
      1          6           0        2.500809    2.587198    0.226885
      2          6           0        1.698729    1.498767    0.585364
      3          6           0        2.175295    0.191227    0.452047
      4          6           0        3.464567    0.007791   -0.045364
      5          6           0        4.287808    1.071643   -0.411128
      6          6           0        3.790514    2.370544   -0.269342
      7          1           0        2.122550    3.599571    0.333738
      8          1           0        0.696728    1.664024    0.971018
      9          1           0        1.575625   -0.669558    0.721979
     10          1           0        5.282455    0.875309   -0.792636
     11          1           0        4.415650    3.213931   -0.548537
     12          7           0        3.980058   -1.371870   -0.190983
     13          8           0        5.119451   -1.506801   -0.631679
     14          8           0        3.234944   -2.292193    0.138333
     15          6           0       -5.032821   -0.430656   -0.231281
     16          6           0       -5.969410    0.766045   -0.061896
     17          6           0       -7.379989    0.491289   -0.583978
     18          1           0       -4.985200   -0.703301   -1.294457
     19          1           0       -5.457260   -1.296934    0.294845
     20          1           0       -5.542644    1.630179   -0.587025
     21          1           0       -6.014656    1.035993    1.000976
     22          1           0       -7.829401   -0.354128   -0.053035
     23          1           0       -7.354707    0.243434   -1.650060
     24          1           0       -8.032822    1.359918   -0.453007
     25          6           0       -3.618976   -0.171393    0.285974
     26          6           0       -2.682386   -1.368095    0.116589
     27          6           0       -1.271808   -1.093339    0.638671
     28          1           0       -3.194536    0.694884   -0.240152
     29          1           0       -3.666595    0.101251    1.349150
     30          1           0       -2.637140   -1.638043   -0.946283
     31          1           0       -3.109152   -2.232229    0.641718
     32          1           0       -1.297088   -0.845484    1.704753
     33          1           0       -0.822395   -0.247922    0.107728
     34          1           0       -0.618975   -1.961967    0.507699
 ---------------------------------------------------------------------

 SCF Done:  E(RHF) =  -669.535057233     A.U. after   15 cycles
 E2 =    -0.2092042290D+01 EUMP2 =    -0.67162709952252D+03

 The electronic state is 1-A.
 Alpha  occ. eigenvalues --  -20.60705 -20.60700 -15.85755 -11.31072 -11.27678
 Alpha  occ. eigenvalues --  -11.27572 -11.27417 -11.26684 -11.26630 -11.22093
 Alpha  occ. eigenvalues --  -11.21938 -11.21876 -11.21808 -11.21730 -11.21335
 Alpha  occ. eigenvalues --   -1.59779  -1.39334  -1.19262  -1.08864  -1.08668
 Alpha  occ. eigenvalues --   -1.04672  -1.03978  -0.96475  -0.95502  -0.87515
 Alpha  occ. eigenvalues --   -0.86058  -0.82346  -0.80081  -0.78673  -0.77369
 Alpha  occ. eigenvalues --   -0.71976  -0.71101  -0.70378  -0.65492  -0.64917
 Alpha  occ. eigenvalues --   -0.64677  -0.62088  -0.61331  -0.59808  -0.58049
 Alpha  occ. eigenvalues --   -0.55767  -0.55178  -0.53254  -0.53045  -0.52843
 Alpha  occ. eigenvalues --   -0.52604  -0.50399  -0.48734  -0.48730  -0.48362
 Alpha  occ. eigenvalues --   -0.47068  -0.46215  -0.46123  -0.44748  -0.44220
 Alpha  occ. eigenvalues --   -0.37257  -0.36244
 Alpha virt. eigenvalues --    0.05119   0.11379   0.16524   0.20896   0.22539
 Alpha virt. eigenvalues --    0.23933   0.25907   0.26193   0.26933   0.28100
 Alpha virt. eigenvalues --    0.28911   0.29899   0.31111   0.31578   0.32240

 Mulliken charges:
               1
     1  C   -0.170749
     2  C   -0.224850
     3  C   -0.176343
     4  C    0.157842
     5  C   -0.170385
     6  C   -0.219246
     7  H    0.225143
     8  H    0.225429
     9  H    0.289024
    10  H    0.275196
    11  H    0.222967
    12  N    0.487966
    13  O   -0.460718
    14  O   -0.461289
    15  C   -0.298764
    16  C   -0.299804
    17  C   -0.475960
    18  H    0.151277
    19  H    0.151356
    20  H    0.151022
    21  H    0.151733
    22  H    0.156173
    23  H    0.155997
    24  H    0.160709
    25  C   -0.299057
    26  C   -0.299134
    27  C   -0.492271
    28  H    0.146699
    29  H    0.148796
    30  H    0.156297
    31  H    0.156138
    32  H    0.154457
    33  H    0.151712
    34  H    0.172639
 Sum of Mulliken charges =  -0.00000

 Dipole moment (field-independent basis, Debye):
    X=             -1.9855    Y=              4.7495    Z=              0.4898  Tot=              5.1711
 Quadrupole moment (field-independent basis, Debye-Ang):
   XX=           -104.4809   YY=            -94.3060   ZZ=            -94.2545
   XY=             19.0287   XZ=             -0.4130   YZ=             -1.2876

 Normal termination of Gaussian 16 at Wed May  5 19:02:25 2021.
