 Gaussian 16, Revision A.03,
 Gaussian 16:  EM64L-G16RevA.03 25-Dec-2016

 -------------
 #p 6-31g* mp2
 -------------

 ------------------------------------------------------
 Input file generated by CHIRIPA (05-May-2021 14:51:12)
 ------------------------------------------------------
 Symbolic Z-matrix:
 Charge =  0 Multiplicity = 1

                         Standard orientation:
 ---------------------------------------------------------------------
 Center     Atomic      Atomic             Coordinates (Angstroms)
 Number     Number       Type             X           Y           Z
 ---------------------------------------------------------------------
      1          6           0       -3.943499   -0.184156    0.170699
      2          6           0       -4.342014    0.992328   -0.720960
      3          6           0       -5.846413    1.264811   -0.702794
      4          1           0       -4.484347   -1.083005   -0.155642
      5          1           0       -4.267847    0.019087    1.200692
      6          1           0       -4.015783    0.787541   -1.748701
      7          1           0       -3.800009    1.888438   -0.392579
      8          1           0       -6.184065    1.494567    0.312984
      9          1           0       -6.401065    0.387414   -1.050843
     10          1           0       -6.109178    2.109755   -1.346909
     11          6           0       -2.442638   -0.468912    0.163060
     12          6           0       -2.044123   -1.645396    1.054719
     13          6           0       -0.539723   -1.917879    1.036553
     14          1           0       -2.118290   -0.672155   -0.866933
     15          1           0       -1.901790    0.429937    0.489401
     16          1           0       -2.586128   -2.541506    0.726338
     17          1           0       -2.370353   -1.440609    2.082460
     18          1           0        0.014928   -1.040483    1.384602
     19          1           0       -0.202072   -2.147635    0.020775
     20          1           0       -0.276959   -2.762823    1.680668
     21          6           0        2.999996   -0.392531    0.003709
     22          6           0        3.502759   -1.413823   -1.017162
     23          6           0        3.108588   -2.847825   -0.662111
     24          1           0        3.397376   -0.648698    0.995381
     25          1           0        1.906063   -0.465652    0.076902
     26          1           0        4.595289   -1.337847   -1.089424
     27          1           0        3.104292   -1.155085   -2.006553
     28          1           0        2.019479   -2.946174   -0.609466
     29          1           0        3.518948   -3.129975    0.312875
     30          1           0        3.478147   -3.561429   -1.405116
     31          6           0        3.386140    1.045599   -0.337468
     32          6           0        2.883378    2.066892    0.683403
     33          6           0        3.277549    3.500893    0.328352
     34          1           0        4.480074    1.118720   -0.410662
     35          1           0        2.988761    1.301767   -1.329140
     36          1           0        3.281844    1.808153    1.672794
     37          1           0        1.790848    1.990914    0.755664
     38          1           0        2.867189    3.783043   -0.646634
     39          1           0        4.366658    3.599243    0.275707
     40          1           0        2.907990    4.214497    1.071357
 ---------------------------------------------------------------------

 SCF Done:  E(RHF) =  -470.732279139     A.U. after   11 cycles
 E2 =    -0.1583725869D+01 EUMP2 =    -0.47231600500755D+03

 The electronic state is 1-A.
 Alpha  occ. eigenvalues --  -11.21643 -11.21639 -11.21580 -11.21504 -11.21462
 Alpha  occ. eigenvalues --  -11.21399 -11.21308 -11.21188 -11.21107 -11.21099
 Alpha  occ. eigenvalues --  -11.21053 -11.20943  -1.08484  -1.08345  -1.03589
 Alpha  occ. eigenvalues --   -1.03454  -0.96037  -0.95904  -0.87062  -0.86923
 Alpha  occ. eigenvalues --   -0.79724  -0.79478  -0.78341  -0.78098  -0.65113
 Alpha  occ. eigenvalues --   -0.64993  -0.61029  -0.60837  -0.59398  -0.59281
 Alpha  occ. eigenvalues --   -0.57659  -0.57518  -0.55467  -0.55067  -0.52732
 Alpha  occ. eigenvalues --   -0.52629  -0.52508  -0.52309  -0.50115  -0.49696
 Alpha  occ. eigenvalues --   -0.48170  -0.47754  -0.46714  -0.46491  -0.46025
 Alpha  occ. eigenvalues --   -0.45753  -0.45672  -0.45238  -0.43827  -0.43703
 Alpha virt. eigenvalues --    0.21631   0.23035   0.23650   0.24257   0.25775
 Alpha virt. eigenvalues --    0.26406   0.27120   0.27461   0.27916   0.29657
 Alpha virt. eigenvalues --    0.30362   0.31554   0.31689   0.31997   0.32322

 Mulliken charges:
               1
     1  C   -0.298205
     2  C   -0.299705
     3  C   -0.475746
     4  H    0.149869
     5  H    0.149768
     6  H    0.151880
     7  H    0.151955
     8  H    0.155287
     9  H    0.155258
    10  H    0.160371
    11  C   -0.298557
    12  C   -0.299919
    13  C   -0.480945
    14  H    0.149198
    15  H    0.149064
    16  H    0.152083
    17  H    0.152164
    18  H    0.159648
    19  H    0.156703
    20  H    0.161477
    21  C   -0.306273
    22  C   -0.299115
    23  C   -0.480416
    24  H    0.148422
    25  H    0.160227
    26  H    0.151336
    27  H    0.150788
    28  H    0.160933
    29  H    0.154829
    30  H    0.159219
    31  C   -0.297528
    32  C   -0.299705
    33  C   -0.475570
    34  H    0.149072
    35  H    0.149181
    36  H    0.151775
    37  H    0.150757
    38  H    0.155209
    39  H    0.155308
    40  H    0.159905
 Sum of Mulliken charges =  -0.00000

 Dipole moment (field-independent basis, Debye):
    X=             -0.0623    Y=             -0.0211    Z=              0.0289  Tot=              0.0719
 Quadrupole moment (field-independent basis, Debye-Ang):
   XX=            -85.4176   YY=            -85.7051   ZZ=            -83.9007
   XY=              0.1386   XZ=              0.5549   YZ=              0.5506

 Normal termination of Gaussian 16 at Wed May  5 18:19:34 2021.
