 Gaussian 16, Revision A.03,
 Gaussian 16:  EM64L-G16RevA.03 25-Dec-2016

 -------------
 #p 6-31g* mp2
 -------------

 ------------------------------------------------------
 Input file generated by CHIRIPA (05-May-2021 14:55:20)
 ------------------------------------------------------
 Symbolic Z-matrix:
 Charge =  0 Multiplicity = 1

                         Standard orientation:
 ---------------------------------------------------------------------
 Center     Atomic      Atomic             Coordinates (Angstroms)
 Number     Number       Type             X           Y           Z
 ---------------------------------------------------------------------
      1          6           0       -5.145254    0.722552    0.451571
      2          6           0       -5.043894   -0.376185   -0.408094
      3          6           0       -3.804978   -0.977751   -0.648413
      4          6           0       -2.682892   -0.452381   -0.009508
      5          6           0       -2.751496    0.641135    0.852354
      6          6           0       -4.000749    1.226817    1.077947
      7          1           0       -6.111689    1.183693    0.632536
      8          1           0       -5.931048   -0.769927   -0.895918
      9          1           0       -3.697935   -1.829400   -1.309210
     10          1           0       -1.849388    1.011261    1.324187
     11          1           0       -4.076471    2.080001    1.746069
     12          7           0       -1.365835   -1.080824   -0.256128
     13          8           0       -0.392261   -0.599082    0.318950
     14          8           0       -1.332039   -2.043239   -1.019837
     15          6           0        4.219087    0.015935    0.335483
     16          6           0        4.130065   -1.469845   -0.014542
     17          6           0        5.150951   -2.318164    0.744367
     18          1           0        5.233233    0.377471    0.116977
     19          1           0        4.069126    0.140359    1.416884
     20          1           0        4.278775   -1.591296   -1.095167
     21          1           0        3.115958   -1.827839    0.204643
     22          1           0        5.000705   -2.226623    1.824944
     23          1           0        6.170128   -1.988736    0.517749
     24          1           0        5.069723   -3.376871    0.479034
     25          6           0        3.204807    0.877008   -0.415196
     26          6           0        3.293828    2.362788   -0.065170
     27          6           0        2.272944    3.211108   -0.824079
     28          1           0        3.354768    0.752584   -1.496595
     29          1           0        2.190661    0.515473   -0.196690
     30          1           0        4.307936    2.720783   -0.284355
     31          1           0        3.145120    2.484239    1.015455
     32          1           0        1.253766    2.881680   -0.597461
     33          1           0        2.423189    3.119567   -1.904657
     34          1           0        2.354171    4.269814   -0.558746
 ---------------------------------------------------------------------

 SCF Done:  E(RHF) =  -669.536467661     A.U. after   15 cycles
 E2 =    -0.2091165846D+01 EUMP2 =    -0.67162763350695D+03

 The electronic state is 1-A.
 Alpha  occ. eigenvalues --  -20.61039 -20.61034 -15.86067 -11.31349 -11.27908
 Alpha  occ. eigenvalues --  -11.27902 -11.27636 -11.26905 -11.26895 -11.20703
 Alpha  occ. eigenvalues --  -11.20391 -11.20310 -11.20214 -11.20062 -11.19982
 Alpha  occ. eigenvalues --   -1.60092  -1.39651  -1.19512  -1.08923  -1.07272
 Alpha  occ. eigenvalues --   -1.04903  -1.02509  -0.95772  -0.94972  -0.86305
 Alpha  occ. eigenvalues --   -0.86002  -0.82610  -0.78556  -0.77669  -0.77041
 Alpha  occ. eigenvalues --   -0.72292  -0.71400  -0.70621  -0.65171  -0.64906
 Alpha  occ. eigenvalues --   -0.63890  -0.62251  -0.59913  -0.58351  -0.56574
 Alpha  occ. eigenvalues --   -0.55409  -0.54264  -0.53236  -0.52995  -0.51724
 Alpha  occ. eigenvalues --   -0.51408  -0.49085  -0.49043  -0.48903  -0.46887
 Alpha  occ. eigenvalues --   -0.45589  -0.45111  -0.44620  -0.44344  -0.42714
 Alpha  occ. eigenvalues --   -0.37488  -0.36502
 Alpha virt. eigenvalues --    0.04841   0.11152   0.16329   0.21230   0.23957
 Alpha virt. eigenvalues --    0.25185   0.27128   0.27564   0.28125   0.28817
 Alpha virt. eigenvalues --    0.29111   0.30857   0.31954   0.32502   0.32848

 Mulliken charges:
               1
     1  C   -0.170461
     2  C   -0.218563
     3  C   -0.170432
     4  C    0.157735
     5  C   -0.170742
     6  C   -0.218445
     7  H    0.226247
     8  H    0.224033
     9  H    0.276008
    10  H    0.275392
    11  H    0.224125
    12  N    0.492395
    13  O   -0.464840
    14  O   -0.457935
    15  C   -0.296234
    16  C   -0.302807
    17  C   -0.475126
    18  H    0.143525
    19  H    0.146590
    20  H    0.149494
    21  H    0.167641
    22  H    0.152850
    23  H    0.150944
    24  H    0.158606
    25  C   -0.311885
    26  C   -0.297751
    27  C   -0.474682
    28  H    0.145353
    29  H    0.179303
    30  H    0.147915
    31  H    0.148401
    32  H    0.154270
    33  H    0.154333
    34  H    0.154744
 Sum of Mulliken charges =  -0.00000

 Dipole moment (field-independent basis, Debye):
    X=             -5.0277    Y=              2.0464    Z=              0.8569  Tot=              5.4954
 Quadrupole moment (field-independent basis, Debye-Ang):
   XX=            -70.7553   YY=            -96.1999   ZZ=            -93.2123
   XY=             -2.0251   XZ=             -1.6918   YZ=              2.4181

 Normal termination of Gaussian 16 at Thu May  6 17:27:45 2021.
