 Gaussian 16, Revision A.03,
 Gaussian 16:  EM64L-G16RevA.03 25-Dec-2016

 -------------
 #p 6-31g* mp2
 -------------

 ------------------------------------------------------
 Input file generated by CHIRIPA (05-May-2021 14:53:11)
 ------------------------------------------------------
 Symbolic Z-matrix:
 Charge =  0 Multiplicity = 1

                         Standard orientation:
 ---------------------------------------------------------------------
 Center     Atomic      Atomic             Coordinates (Angstroms)
 Number     Number       Type             X           Y           Z
 ---------------------------------------------------------------------
      1          6           0       -2.870806    0.459307    0.043428
      2          6           0       -3.519121   -0.325054   -1.097821
      3          6           0       -4.601482   -1.289594   -0.612074
      4          1           0       -2.437760   -0.246573    0.765335
      5          1           0       -3.647808    1.019597    0.581702
      6          1           0       -2.740934   -0.882610   -1.634639
      7          1           0       -3.950506    0.382779   -1.817192
      8          1           0       -5.398201   -0.745575   -0.094499
      9          1           0       -4.181756   -2.018154    0.089091
     10          1           0       -5.051619   -1.839919   -1.444167
     11          6           0       -1.786762    1.427764   -0.426325
     12          6           0       -1.138447    2.212125    0.714924
     13          6           0       -0.056086    3.176665    0.229177
     14          1           0       -1.009760    0.867474   -0.964599
     15          1           0       -2.219807    2.133644   -1.148232
     16          1           0       -0.707062    1.504291    1.434295
     17          1           0       -1.916634    2.769681    1.251742
     18          1           0       -0.475811    3.905225   -0.471988
     19          1           0        0.740633    2.632646   -0.288397
     20          1           0        0.394052    3.726990    1.061270
     21          6           0        0.061698   -1.853231    1.574657
     22          6           0        0.783008   -0.765204    2.077085
     23          6           0        1.759219   -0.139081    1.296361
     24          6           0        1.989287   -0.629237    0.011797
     25          6           0        1.287257   -1.711263   -0.517036
     26          6           0        0.315677   -2.321961    0.281480
     27          1           0       -0.694847   -2.333627    2.188053
     28          1           0        0.587890   -0.399042    3.081026
     29          1           0        2.332306    0.704998    1.660395
     30          1           0        1.504154   -2.053712   -1.521577
     31          1           0       -0.242963   -3.166750   -0.111326
     32          7           0        3.020306    0.025446   -0.824139
     33          8           0        3.204091   -0.425428   -1.952665
     34          8           0        3.625112    0.977066   -0.334989
 ---------------------------------------------------------------------

 SCF Done:  E(RHF) =  -669.534453949     A.U. after   15 cycles
 E2 =    -0.2096703490D+01 EUMP2 =    -0.67163115743865D+03

 The electronic state is 1-A.
 Alpha  occ. eigenvalues --  -20.60959 -20.60945 -15.85994 -11.31394 -11.27963
 Alpha  occ. eigenvalues --  -11.27940 -11.27701 -11.26986 -11.26950 -11.21933
 Alpha  occ. eigenvalues --  -11.21605 -11.21548 -11.21544 -11.21412 -11.20943
 Alpha  occ. eigenvalues --   -1.60020  -1.39571  -1.19583  -1.08974  -1.08584
 Alpha  occ. eigenvalues --   -1.04992  -1.03698  -0.96153  -0.95785  -0.87163
 Alpha  occ. eigenvalues --   -0.86367  -0.82622  -0.79774  -0.78411  -0.77655
 Alpha  occ. eigenvalues --   -0.72209  -0.71348  -0.70669  -0.65302  -0.65213
 Alpha  occ. eigenvalues --   -0.64960  -0.62331  -0.61140  -0.59536  -0.57763
 Alpha  occ. eigenvalues --   -0.55540  -0.55385  -0.53273  -0.53058  -0.52836
 Alpha  occ. eigenvalues --   -0.52570  -0.50090  -0.48974  -0.48965  -0.48098
 Alpha  occ. eigenvalues --   -0.46842  -0.45951  -0.45888  -0.44942  -0.43936
 Alpha  occ. eigenvalues --   -0.37476  -0.36443
 Alpha virt. eigenvalues --    0.04835   0.10947   0.16190   0.20551   0.22967
 Alpha virt. eigenvalues --    0.23605   0.26342   0.26555   0.27306   0.27781
 Alpha virt. eigenvalues --    0.28784   0.30285   0.31187   0.31569   0.31904

 Mulliken charges:
               1
     1  C   -0.298962
     2  C   -0.299788
     3  C   -0.474507
     4  H    0.145418
     5  H    0.148383
     6  H    0.149706
     7  H    0.154633
     8  H    0.156831
     9  H    0.147535
    10  H    0.161266
    11  C   -0.298230
    12  C   -0.304632
    13  C   -0.478456
    14  H    0.151547
    15  H    0.150672
    16  H    0.151429
    17  H    0.148930
    18  H    0.156987
    19  H    0.160101
    20  H    0.157797
    21  C   -0.169791
    22  C   -0.220731
    23  C   -0.167537
    24  C    0.159250
    25  C   -0.172171
    26  C   -0.217678
    27  H    0.227228
    28  H    0.225688
    29  H    0.277778
    30  H    0.276642
    31  H    0.225026
    32  N    0.487801
    33  O   -0.459071
    34  O   -0.459093
 Sum of Mulliken charges =  -0.00000

 Dipole moment (field-independent basis, Debye):
    X=             -3.4481    Y=             -2.3632    Z=              2.9201  Tot=              5.0991
 Quadrupole moment (field-independent basis, Debye-Ang):
   XX=           -110.0893   YY=            -90.2878   ZZ=            -92.1741
   XY=             -2.7419   XZ=              7.0670   YZ=              0.6838

 Normal termination of Gaussian 16 at Wed May  5 18:27:45 2021.
