 Gaussian 16, Revision A.03,
 Gaussian 16:  EM64L-G16RevA.03 25-Dec-2016

 -------------
 #p 6-31g* mp2
 -------------

 ------------------------------------------------------
 Input file generated by CHIRIPA (05-May-2021 14:53:17)
 ------------------------------------------------------
 Symbolic Z-matrix:
 Charge =  0 Multiplicity = 1

                         Standard orientation:
 ---------------------------------------------------------------------
 Center     Atomic      Atomic             Coordinates (Angstroms)
 Number     Number       Type             X           Y           Z
 ---------------------------------------------------------------------
      1          6           0       -2.341459   -0.333419    0.804772
      2          6           0       -1.870901   -1.763805    1.070397
      3          6           0       -0.534388   -1.818519    1.811026
      4          1           0       -1.575394    0.195432    0.221327
      5          1           0       -2.429251    0.199894    1.761467
      6          1           0       -1.785352   -2.294677    0.113594
      7          1           0       -2.638260   -2.289369    1.653114
      8          1           0       -0.609594   -1.313279    2.779363
      9          1           0        0.248159   -1.318617    1.231097
     10          1           0       -0.216818   -2.850407    1.990520
     11          6           0       -3.676192   -0.262273    0.065073
     12          6           0       -4.146749    1.168113   -0.200551
     13          6           0       -5.483263    1.222828   -0.941180
     14          1           0       -3.588399   -0.795586   -0.891621
     15          1           0       -4.442256   -0.791123    0.648519
     16          1           0       -3.379390    1.693677   -0.783268
     17          1           0       -4.232298    1.698985    0.756252
     18          1           0       -6.265810    0.722925   -0.361251
     19          1           0       -5.408056    0.717587   -1.909517
     20          1           0       -5.800832    2.254715   -1.120674
     21          6           0        1.847440   -2.037552   -1.318917
     22          6           0        3.049773   -1.819706   -0.638138
     23          6           0        3.339122   -0.565881   -0.091560
     24          6           0        2.399293    0.452171   -0.245124
     25          6           0        1.192612    0.266302   -0.917927
     26          6           0        0.924324   -0.995690   -1.456397
     27          1           0        1.630848   -3.014725   -1.740362
     28          1           0        3.768537   -2.626982   -0.529835
     29          1           0        4.262192   -0.369724    0.440306
     30          1           0        0.495708    1.090508   -1.009722
     31          1           0       -0.010234   -1.161988   -1.984592
     32          7           0        2.694464    1.783862    0.329220
     33          8           0        1.849931    2.664326    0.180281
     34          8           0        3.764765    1.921962    0.917456
 ---------------------------------------------------------------------

 SCF Done:  E(RHF) =  -669.533267129     A.U. after   15 cycles
 E2 =    -0.2095652481D+01 EUMP2 =    -0.67162891961037D+03

 The electronic state is 1-A.
 Alpha  occ. eigenvalues --  -20.60838 -20.60833 -15.85893 -11.31312 -11.27883
 Alpha  occ. eigenvalues --  -11.27841 -11.27594 -11.26897 -11.26853 -11.21947
 Alpha  occ. eigenvalues --  -11.21862 -11.21760 -11.21696 -11.21293 -11.21047
 Alpha  occ. eigenvalues --   -1.59912  -1.39464  -1.19505  -1.08878  -1.08746
 Alpha  occ. eigenvalues --   -1.04914  -1.03771  -0.96216  -0.95694  -0.87232
 Alpha  occ. eigenvalues --   -0.86282  -0.82525  -0.79853  -0.78584  -0.77568
 Alpha  occ. eigenvalues --   -0.72109  -0.71238  -0.70580  -0.65476  -0.65114
 Alpha  occ. eigenvalues --   -0.64877  -0.62246  -0.61239  -0.59593  -0.57847
 Alpha  occ. eigenvalues --   -0.55686  -0.55362  -0.53319  -0.52989  -0.52882
 Alpha  occ. eigenvalues --   -0.52475  -0.50069  -0.48873  -0.48861  -0.48119
 Alpha  occ. eigenvalues --   -0.46857  -0.46082  -0.46052  -0.44853  -0.44059
 Alpha  occ. eigenvalues --   -0.37462  -0.36404
 Alpha virt. eigenvalues --    0.04929   0.11042   0.16336   0.19811   0.23067
 Alpha virt. eigenvalues --    0.24198   0.25215   0.25972   0.27539   0.28382
 Alpha virt. eigenvalues --    0.30068   0.30635   0.31419   0.31656   0.31880

 Mulliken charges:
               1
     1  C   -0.301298
     2  C   -0.297643
     3  C   -0.482016
     4  H    0.144726
     5  H    0.155545
     6  H    0.141316
     7  H    0.153535
     8  H    0.156493
     9  H    0.167941
    10  H    0.155452
    11  C   -0.298039
    12  C   -0.299330
    13  C   -0.475808
    14  H    0.143303
    15  H    0.151724
    16  H    0.150109
    17  H    0.155874
    18  H    0.155902
    19  H    0.153314
    20  H    0.162490
    21  C   -0.169398
    22  C   -0.216900
    23  C   -0.171555
    24  C    0.161479
    25  C   -0.177045
    26  C   -0.216807
    27  H    0.226403
    28  H    0.224368
    29  H    0.276435
    30  H    0.276174
    31  H    0.224903
    32  N    0.488213
    33  O   -0.459886
    34  O   -0.459975
 Sum of Mulliken charges =  -0.00000

 Dipole moment (field-independent basis, Debye):
    X=             -0.9509    Y=             -4.6206    Z=             -1.9816  Tot=              5.1167
 Quadrupole moment (field-independent basis, Debye-Ang):
   XX=            -96.3451   YY=            -99.1752   ZZ=            -93.4196
   XY=            -13.7604   XZ=             -4.1033   YZ=             -0.1058

 Normal termination of Gaussian 16 at Wed May  5 23:39:23 2021.
