 Gaussian 16, Revision A.03,
 Gaussian 16:  EM64L-G16RevA.03 25-Dec-2016

 -------------
 #p 6-31g* mp2
 -------------

 ------------------------------------------------------
 Input file generated by CHIRIPA (05-May-2021 14:57:25)
 ------------------------------------------------------
 Symbolic Z-matrix:
 Charge =  0 Multiplicity = 1

                         Standard orientation:
 ---------------------------------------------------------------------
 Center     Atomic      Atomic             Coordinates (Angstroms)
 Number     Number       Type             X           Y           Z
 ---------------------------------------------------------------------
      1          6           0        1.387646    2.970407    0.283591
      2          6           0        1.616736    2.197323    1.426561
      3          6           0        2.061738    0.876848    1.313126
      4          6           0        2.268296    0.359055    0.035428
      5          6           0        2.049010    1.103998   -1.122270
      6          6           0        1.604132    2.422244   -0.984940
      7          1           0        1.042005    3.995318    0.380991
      8          1           0        1.449454    2.620412    2.412998
      9          1           0        2.247000    0.256028    2.181273
     10          1           0        2.224665    0.654607   -2.092122
     11          1           0        1.427046    3.020291   -1.874336
     12          7           0        2.739334   -1.037692   -0.097309
     13          8           0        2.913797   -1.470538   -1.234342
     14          8           0        2.925152   -1.673170    0.938199
     15          6           0       -3.995610    1.172795   -0.114445
     16          6           0       -3.732710    0.478204    1.070859
     17          6           0       -2.734973   -0.500161    1.114109
     18          6           0       -2.016168   -0.759605   -0.051780
     19          6           0       -2.254533   -0.084625   -1.247971
     20          6           0       -3.256984    0.889664   -1.268044
     21          1           0       -4.772507    1.931230   -0.139041
     22          1           0       -4.304755    0.695993    1.968288
     23          1           0       -2.510650   -1.052942    2.018283
     24          1           0       -1.667621   -0.323800   -2.126463
     25          1           0       -3.458975    1.427514   -2.189978
     26          7           0       -0.957413   -1.793198   -0.018261
     27          8           0       -0.338218   -2.003134   -1.059012
     28          8           0       -0.766804   -2.373821    1.048126
 ---------------------------------------------------------------------

 SCF Done:  E(RHF) =  -868.335646152     A.U. after   16 cycles
 E2 =    -0.2603740733D+01 EUMP2 =    -0.87093938688502D+03

 The electronic state is 1-A.
 Alpha  occ. eigenvalues --  -20.60600 -20.60591 -20.59572 -20.59566 -15.85637
 Alpha  occ. eigenvalues --  -15.84646 -11.31221 -11.30582 -11.27829 -11.27817
 Alpha  occ. eigenvalues --  -11.27616 -11.27225 -11.27213 -11.27105 -11.26896
 Alpha  occ. eigenvalues --  -11.26880 -11.26396 -11.26369  -1.59678  -1.58606
 Alpha  occ. eigenvalues --   -1.39220  -1.38156  -1.19419  -1.18823  -1.08777
 Alpha  occ. eigenvalues --   -1.08108  -1.04858  -1.04309  -0.95570  -0.94845
 Alpha  occ. eigenvalues --   -0.86247  -0.85673  -0.82400  -0.81690  -0.77419
 Alpha  occ. eigenvalues --   -0.76615  -0.71854  -0.71211  -0.70887  -0.70535
 Alpha  occ. eigenvalues --   -0.69920  -0.69710  -0.65068  -0.64867  -0.64458
 Alpha  occ. eigenvalues --   -0.64321  -0.62206  -0.61640  -0.55358  -0.54805
 Alpha  occ. eigenvalues --   -0.53203  -0.52959  -0.52584  -0.52406  -0.48597
 Alpha  occ. eigenvalues --   -0.48593  -0.47671  -0.47591  -0.44705  -0.43287
 Alpha  occ. eigenvalues --   -0.37414  -0.36836  -0.36508  -0.35904
 Alpha virt. eigenvalues --    0.05101   0.05952   0.11156   0.11719   0.16555
 Alpha virt. eigenvalues --    0.17329   0.21251   0.21773   0.27109   0.27630
 Alpha virt. eigenvalues --    0.28157   0.28772   0.30727   0.31317   0.32320

 Mulliken charges:
               1
     1  C   -0.172078
     2  C   -0.219133
     3  C   -0.172670
     4  C    0.156990
     5  C   -0.170446
     6  C   -0.220451
     7  H    0.221043
     8  H    0.220192
     9  H    0.278098
    10  H    0.276613
    11  H    0.218569
    12  N    0.493840
    13  O   -0.454315
    14  O   -0.456987
    15  C   -0.171951
    16  C   -0.219129
    17  C   -0.171525
    18  C    0.160083
    19  C   -0.169966
    20  C   -0.219260
    21  H    0.224201
    22  H    0.222488
    23  H    0.275972
    24  H    0.275085
    25  H    0.221425
    26  N    0.483268
    27  O   -0.455830
    28  O   -0.454127
 Sum of Mulliken charges =  -0.00000

 Dipole moment (field-independent basis, Debye):
    X=             -5.2908    Y=              8.1384    Z=              0.3330  Tot=              9.7127
 Quadrupole moment (field-independent basis, Debye-Ang):
   XX=            -98.8478   YY=           -108.2726   ZZ=            -95.1815
   XY=              5.7295   XZ=              0.2586   YZ=             -1.2057

 Normal termination of Gaussian 16 at Fri May  7 01:57:31 2021.
