 Gaussian 16, Revision A.03,
 Gaussian 16:  EM64L-G16RevA.03 25-Dec-2016

 -------------
 #p 6-31g* mp2
 -------------

 ------------------------------------------------------
 Input file generated by CHIRIPA (05-May-2021 14:55:23)
 ------------------------------------------------------
 Symbolic Z-matrix:
 Charge =  0 Multiplicity = 1

                         Standard orientation:
 ---------------------------------------------------------------------
 Center     Atomic      Atomic             Coordinates (Angstroms)
 Number     Number       Type             X           Y           Z
 ---------------------------------------------------------------------
      1          6           0       -4.801184    0.145452   -1.332831
      2          6           0       -4.656220    1.060237   -0.284653
      3          6           0       -3.558894    0.983324    0.578195
      4          6           0       -2.621321   -0.025567    0.362822
      5          6           0       -2.737835   -0.951761   -0.672494
      6          6           0       -3.843217   -0.855862   -1.523070
      7          1           0       -5.656743    0.212575   -1.998346
      8          1           0       -5.398629    1.838911   -0.134521
      9          1           0       -3.422035    1.678485    1.397608
     10          1           0       -1.981320   -1.717012   -0.796977
     11          1           0       -3.953216   -1.567661   -2.336266
     12          7           0       -1.455366   -0.117042    1.269785
     13          8           0       -0.643247   -1.015139    1.058787
     14          8           0       -1.375688    0.711090    2.174488
     15          6           0        3.901312   -0.681615   -0.171519
     16          6           0        2.858349   -1.799699   -0.181532
     17          6           0        3.474005   -3.184258    0.022820
     18          1           0        4.643555   -0.874172   -0.958248
     19          1           0        4.444628   -0.705035    0.783287
     20          1           0        2.316221   -1.773304   -1.135480
     21          1           0        2.118396   -1.604357    0.605187
     22          1           0        3.999023   -3.234625    0.982207
     23          1           0        4.197972   -3.404531   -0.768351
     24          1           0        2.710722   -3.968569    0.012198
     25          6           0        3.301209    0.708473   -0.374641
     26          6           0        4.344172    1.826558   -0.364628
     27          6           0        3.728515    3.211115   -0.568981
     28          1           0        2.757892    0.731893   -1.329447
     29          1           0        2.558966    0.901030    0.412088
     30          1           0        5.084125    1.631215   -1.151347
     31          1           0        4.886299    1.800162    0.589321
     32          1           0        3.004548    3.431389    0.222191
     33          1           0        3.203498    3.261483   -1.528367
     34          1           0        4.491799    3.995428   -0.558358
 ---------------------------------------------------------------------

 SCF Done:  E(RHF) =  -669.536213233     A.U. after   15 cycles
 E2 =    -0.2091041544D+01 EUMP2 =    -0.67162725477738D+03

 The electronic state is 1-A.
 Alpha  occ. eigenvalues --  -20.60956 -20.60938 -15.85982 -11.31288 -11.27851
 Alpha  occ. eigenvalues --  -11.27846 -11.27588 -11.26856 -11.26847 -11.20858
 Alpha  occ. eigenvalues --  -11.20450 -11.20440 -11.20376 -11.20277 -11.20113
 Alpha  occ. eigenvalues --   -1.60011  -1.39566  -1.19456  -1.08864  -1.07466
 Alpha  occ. eigenvalues --   -1.04851  -1.02607  -0.95708  -0.95103  -0.86252
 Alpha  occ. eigenvalues --   -0.86123  -0.82545  -0.78667  -0.77602  -0.77237
 Alpha  occ. eigenvalues --   -0.72206  -0.71321  -0.70566  -0.65113  -0.64855
 Alpha  occ. eigenvalues --   -0.64092  -0.62198  -0.60001  -0.58471  -0.56695
 Alpha  occ. eigenvalues --   -0.55357  -0.54401  -0.53183  -0.52943  -0.51818
 Alpha  occ. eigenvalues --   -0.51525  -0.49087  -0.48961  -0.48952  -0.46987
 Alpha  occ. eigenvalues --   -0.45681  -0.45095  -0.44793  -0.44532  -0.42861
 Alpha  occ. eigenvalues --   -0.37435  -0.36451
 Alpha virt. eigenvalues --    0.04923   0.11204   0.16413   0.21318   0.23802
 Alpha virt. eigenvalues --    0.25156   0.27216   0.27639   0.27960   0.28712
 Alpha virt. eigenvalues --    0.28878   0.30913   0.32164   0.32324   0.32777

 Mulliken charges:
               1
     1  C   -0.170552
     2  C   -0.218608
     3  C   -0.170508
     4  C    0.157848
     5  C   -0.170710
     6  C   -0.218598
     7  H    0.225979
     8  H    0.223795
     9  H    0.275788
    10  H    0.276131
    11  H    0.223832
    12  N    0.491794
    13  O   -0.462957
    14  O   -0.459848
    15  C   -0.297380
    16  C   -0.308782
    17  C   -0.474728
    18  H    0.143858
    19  H    0.148615
    20  H    0.143332
    21  H    0.182074
    22  H    0.154183
    23  H    0.149263
    24  H    0.157817
    25  C   -0.299705
    26  C   -0.298759
    27  C   -0.475604
    28  H    0.144297
    29  H    0.160393
    30  H    0.148757
    31  H    0.151885
    32  H    0.157559
    33  H    0.152060
    34  H    0.157480
 Sum of Mulliken charges =  -0.00000

 Dipole moment (field-independent basis, Debye):
    X=             -4.4012    Y=              0.3370    Z=             -3.0283  Tot=              5.3530
 Quadrupole moment (field-independent basis, Debye-Ang):
   XX=            -74.3403   YY=            -93.6716   ZZ=            -95.4235
   XY=             -1.9190   XZ=              6.5545   YZ=              2.7925

 Normal termination of Gaussian 16 at Wed May  5 17:32:22 2021.
