 Gaussian 16, Revision A.03,
 Gaussian 16:  EM64L-G16RevA.03 25-Dec-2016

 -------------
 #p 6-31g* mp2
 -------------

 ------------------------------------------------------
 Input file generated by CHIRIPA (05-May-2021 14:55:22)
 ------------------------------------------------------
 Symbolic Z-matrix:
 Charge =  0 Multiplicity = 1

                         Standard orientation:
 ---------------------------------------------------------------------
 Center     Atomic      Atomic             Coordinates (Angstroms)
 Number     Number       Type             X           Y           Z
 ---------------------------------------------------------------------
      1          6           0        0.324925   -0.993357    1.725152
      2          6           0        0.704270   -1.900447    0.730262
      3          6           0        1.801332   -1.632573   -0.093903
      4          6           0        2.499642   -0.442643    0.105396
      5          6           0        2.146354    0.480985    1.087938
      6          6           0        1.045907    0.192373    1.900506
      7          1           0       -0.528614   -1.209503    2.360879
      8          1           0        0.146197   -2.822092    0.591806
      9          1           0        2.116769   -2.317276   -0.871783
     10          1           0        2.722181    1.391388    1.201994
     11          1           0        0.753584    0.898669    2.672347
     12          7           0        3.662844   -0.148080   -0.760972
     13          8           0        4.261582    0.907290   -0.565157
     14          8           0        3.953798   -0.978149   -1.619440
     15          6           0       -2.329032    0.948579   -0.618255
     16          6           0       -1.695081    2.006726    0.285304
     17          6           0       -0.445441    2.637497   -0.329774
     18          1           0       -1.588211    0.165717   -0.830994
     19          1           0       -2.585611    1.406711   -1.583489
     20          1           0       -1.441038    1.547066    1.249042
     21          1           0       -2.437556    2.787061    0.496072
     22          1           0       -0.686926    3.121589   -1.281583
     23          1           0        0.315254    1.874549   -0.524336
     24          1           0       -0.008453    3.391047    0.332844
     25          6           0       -3.579274    0.308870   -0.017096
     26          6           0       -4.213225   -0.749277   -0.920654
     27          6           0       -5.462865   -1.380049   -0.305576
     28          1           0       -3.322695   -0.149263    0.948138
     29          1           0       -4.320096    1.091731    0.195643
     30          1           0       -3.470750   -1.529612   -1.131423
     31          1           0       -4.467268   -0.289617   -1.884393
     32          1           0       -6.223560   -0.617101   -0.111015
     33          1           0       -5.221380   -1.864141    0.646232
     34          1           0       -5.899854   -2.133599   -0.968194
 ---------------------------------------------------------------------

 SCF Done:  E(RHF) =  -669.533583797     A.U. after   15 cycles
 E2 =    -0.2095808072D+01 EUMP2 =    -0.67162939186923D+03

 The electronic state is 1-A.
 Alpha  occ. eigenvalues --  -20.60845 -20.60839 -15.85902 -11.31310 -11.27896
 Alpha  occ. eigenvalues --  -11.27852 -11.27645 -11.26926 -11.26869 -11.22119
 Alpha  occ. eigenvalues --  -11.21968 -11.21930 -11.21712 -11.21582 -11.21227
 Alpha  occ. eigenvalues --   -1.59921  -1.39472  -1.19515  -1.08957  -1.08811
 Alpha  occ. eigenvalues --   -1.04931  -1.03934  -0.96389  -0.95712  -0.87401
 Alpha  occ. eigenvalues --   -0.86308  -0.82536  -0.80024  -0.78695  -0.77576
 Alpha  occ. eigenvalues --   -0.72117  -0.71250  -0.70605  -0.65578  -0.65151
 Alpha  occ. eigenvalues --   -0.64886  -0.62276  -0.61407  -0.59759  -0.58006
 Alpha  occ. eigenvalues --   -0.55793  -0.55388  -0.53199  -0.53068  -0.52988
 Alpha  occ. eigenvalues --   -0.52734  -0.50328  -0.48882  -0.48869  -0.48313
 Alpha  occ. eigenvalues --   -0.47078  -0.46233  -0.46137  -0.44865  -0.44208
 Alpha  occ. eigenvalues --   -0.37435  -0.36403
 Alpha virt. eigenvalues --    0.04936   0.11020   0.16329   0.20075   0.22847
 Alpha virt. eigenvalues --    0.23913   0.25564   0.26258   0.26748   0.28305
 Alpha virt. eigenvalues --    0.29426   0.30184   0.30883   0.31350   0.31924

 Mulliken charges:
               1
     1  C   -0.169548
     2  C   -0.219448
     3  C   -0.171640
     4  C    0.159963
     5  C   -0.175252
     6  C   -0.212485
     7  H    0.226798
     8  H    0.224286
     9  H    0.276367
    10  H    0.276915
    11  H    0.225058
    12  N    0.488118
    13  O   -0.459757
    14  O   -0.460143
    15  C   -0.301215
    16  C   -0.297340
    17  C   -0.479827
    18  H    0.152993
    19  H    0.152040
    20  H    0.141656
    21  H    0.151876
    22  H    0.157901
    23  H    0.163368
    24  H    0.154674
    25  C   -0.296927
    26  C   -0.299446
    27  C   -0.475476
    28  H    0.140298
    29  H    0.151429
    30  H    0.149074
    31  H    0.155090
    32  H    0.156889
    33  H    0.151915
    34  H    0.161798
 Sum of Mulliken charges =  -0.00000

 Dipole moment (field-independent basis, Debye):
    X=             -4.0071    Y=             -1.0606    Z=              2.9937  Tot=              5.1131
 Quadrupole moment (field-independent basis, Debye-Ang):
   XX=           -116.3523   YY=            -90.2339   ZZ=            -93.3624
   XY=             -0.9596   XZ=              8.4777   YZ=              0.6907

 Normal termination of Gaussian 16 at Wed May  5 20:41:26 2021.
