 Gaussian 16, Revision A.03,
 Gaussian 16:  EM64L-G16RevA.03 25-Dec-2016

 -------------
 #p 6-31g* mp2
 -------------

 ------------------------------------------------------
 Input file generated by CHIRIPA (05-May-2021 14:55:23)
 ------------------------------------------------------
 Symbolic Z-matrix:
 Charge =  0 Multiplicity = 1

                         Standard orientation:
 ---------------------------------------------------------------------
 Center     Atomic      Atomic             Coordinates (Angstroms)
 Number     Number       Type             X           Y           Z
 ---------------------------------------------------------------------
      1          6           0       -5.163925   -0.893184   -1.102043
      2          6           0       -4.055046   -0.414235   -1.807391
      3          6           0       -2.918377    0.031082   -1.126051
      4          6           0       -2.924804   -0.016831    0.267130
      5          6           0       -4.013973   -0.488510    0.998239
      6          6           0       -5.139892   -0.928730    0.296056
      7          1           0       -6.042742   -1.237137   -1.639419
      8          1           0       -4.070901   -0.385474   -2.893193
      9          1           0       -2.046123    0.406729   -1.647090
     10          1           0       -3.968567   -0.505001    2.080405
     11          1           0       -5.999616   -1.300178    0.846461
     12          7           0       -1.727154    0.451908    0.999466
     13          8           0       -1.757807    0.399413    2.227042
     14          8           0       -0.780460    0.862926    0.332029
     15          6           0        4.643724   -0.272012   -0.085447
     16          6           0        4.443233   -1.787743   -0.104035
     17          6           0        5.747322   -2.559103    0.101274
     18          1           0        5.362911    0.005950   -0.868039
     19          1           0        5.096172    0.019274    0.872592
     20          1           0        3.990023   -2.075922   -1.061203
     21          1           0        3.724294   -2.062109    0.678567
     22          1           0        6.200488   -2.300404    1.063726
     23          1           0        6.467728   -2.314295   -0.685928
     24          1           0        5.580907   -3.640714    0.084443
     25          6           0        3.349087    0.512869   -0.289418
     26          6           0        3.549578    2.028602   -0.270831
     27          6           0        2.245489    2.799960   -0.476138
     28          1           0        2.896638    0.221583   -1.247457
     29          1           0        2.629900    0.234907    0.493174
     30          1           0        4.268517    2.302967   -1.053433
     31          1           0        4.002788    2.316780    0.686337
     32          1           0        1.525083    2.555153    0.311063
     33          1           0        1.792322    2.541262   -1.438592
     34          1           0        2.411905    3.881571   -0.459308
 ---------------------------------------------------------------------

 SCF Done:  E(RHF) =  -669.536129536     A.U. after   15 cycles
 E2 =    -0.2091056888D+01 EUMP2 =    -0.67162718642448D+03

 The electronic state is 1-A.
 Alpha  occ. eigenvalues --  -20.60962 -20.60942 -15.85981 -11.31293 -11.27857
 Alpha  occ. eigenvalues --  -11.27851 -11.27593 -11.26862 -11.26852 -11.20877
 Alpha  occ. eigenvalues --  -11.20496 -11.20488 -11.20407 -11.20159 -11.19514
 Alpha  occ. eigenvalues --   -1.60016  -1.39571  -1.19461  -1.08869  -1.07421
 Alpha  occ. eigenvalues --   -1.04856  -1.02513  -0.95713  -0.94944  -0.86257
 Alpha  occ. eigenvalues --   -0.85959  -0.82546  -0.78616  -0.77602  -0.77176
 Alpha  occ. eigenvalues --   -0.72204  -0.71326  -0.70570  -0.65117  -0.64860
 Alpha  occ. eigenvalues --   -0.64058  -0.62203  -0.59914  -0.58365  -0.56546
 Alpha  occ. eigenvalues --   -0.55363  -0.54223  -0.53189  -0.52948  -0.51681
 Alpha  occ. eigenvalues --   -0.51348  -0.49087  -0.48962  -0.48767  -0.46886
 Alpha  occ. eigenvalues --   -0.45649  -0.44977  -0.44733  -0.44593  -0.42773
 Alpha  occ. eigenvalues --   -0.37441  -0.36457
 Alpha virt. eigenvalues --    0.04924   0.11199   0.16419   0.21315   0.23811
 Alpha virt. eigenvalues --    0.25315   0.27220   0.27675   0.28050   0.28564
 Alpha virt. eigenvalues --    0.29123   0.30927   0.32277   0.32519   0.32706

 Mulliken charges:
               1
     1  C   -0.170551
     2  C   -0.218569
     3  C   -0.170716
     4  C    0.157743
     5  C   -0.170528
     6  C   -0.218621
     7  H    0.225992
     8  H    0.223858
     9  H    0.276141
    10  H    0.275778
    11  H    0.223782
    12  N    0.491179
    13  O   -0.459812
    14  O   -0.461913
    15  C   -0.297768
    16  C   -0.298835
    17  C   -0.475038
    18  H    0.145846
    19  H    0.148425
    20  H    0.149131
    21  H    0.153599
    22  H    0.154815
    23  H    0.153406
    24  H    0.157582
    25  C   -0.298789
    26  C   -0.299119
    27  C   -0.480396
    28  H    0.144876
    29  H    0.163317
    30  H    0.144894
    31  H    0.149304
    32  H    0.181949
    33  H    0.148199
    34  H    0.150841
 Sum of Mulliken charges =  -0.00000

 Dipole moment (field-independent basis, Debye):
    X=             -4.5762    Y=             -1.6740    Z=             -2.4489  Tot=              5.4535
 Quadrupole moment (field-independent basis, Debye-Ang):
   XX=            -71.6072   YY=            -96.4331   ZZ=            -91.5722
   XY=              6.1007   XZ=              4.4905   YZ=             -1.1056

 Normal termination of Gaussian 16 at Thu May  6 20:50:57 2021.
