 Gaussian 16, Revision A.03,
 Gaussian 16:  EM64L-G16RevA.03 25-Dec-2016

 -------------
 #p 6-31g* mp2
 -------------

 ------------------------------------------------------
 Input file generated by CHIRIPA (05-May-2021 14:53:15)
 ------------------------------------------------------
 Symbolic Z-matrix:
 Charge =  0 Multiplicity = 1

                         Standard orientation:
 ---------------------------------------------------------------------
 Center     Atomic      Atomic             Coordinates (Angstroms)
 Number     Number       Type             X           Y           Z
 ---------------------------------------------------------------------
      1          6           0       -3.137736   -0.941013    0.080300
      2          6           0       -1.704146   -0.480449   -0.185565
      3          6           0       -0.672678   -1.578993    0.073413
      4          1           0       -3.218844   -1.284198    1.120776
      5          1           0       -3.359671   -1.810512   -0.553823
      6          1           0       -1.485442    0.388775    0.447865
      7          1           0       -1.626488   -0.138142   -1.225474
      8          1           0       -0.862871   -2.445121   -0.568654
      9          1           0       -0.721024   -1.915210    1.114192
     10          1           0        0.345305   -1.228207   -0.122852
     11          6           0       -4.180348    0.146157   -0.174157
     12          6           0       -5.613939   -0.314407    0.091707
     13          6           0       -6.645406    0.784137   -0.167271
     14          1           0       -3.958413    1.015656    0.459966
     15          1           0       -4.099240    0.489341   -1.214634
     16          1           0       -5.691596   -0.656714    1.131616
     17          1           0       -5.832642   -1.183632   -0.541723
     18          1           0       -6.597060    1.120353   -1.208050
     19          1           0       -6.455213    1.650265    0.474796
     20          1           0       -7.663389    0.433351    0.028994
     21          6           0        2.105987    2.714517    0.178490
     22          6           0        2.571525    2.197180   -1.034836
     23          6           0        2.991095    0.866628   -1.125053
     24          6           0        2.931389    0.078079    0.022952
     25          6           0        2.472554    0.564395    1.246168
     26          6           0        2.058071    1.897913    1.313119
     27          1           0        1.782031    3.749274    0.239536
     28          1           0        2.609843    2.829049   -1.917626
     29          1           0        3.355904    0.440430   -2.051707
     30          1           0        2.446020   -0.089899    2.109077
     31          1           0        1.696990    2.296990    2.256730
     32          7           0        3.372877   -1.332088   -0.060242
     33          8           0        3.310429   -2.006187    0.965589
     34          8           0        3.773003   -1.736574   -1.149703
 ---------------------------------------------------------------------

 SCF Done:  E(RHF) =  -669.534959104     A.U. after   15 cycles
 E2 =    -0.2092759277D+01 EUMP2 =    -0.67162771838075D+03

 The electronic state is 1-A.
 Alpha  occ. eigenvalues --  -20.60792 -20.60779 -15.85833 -11.31200 -11.27797
 Alpha  occ. eigenvalues --  -11.27790 -11.27547 -11.26818 -11.26803 -11.21682
 Alpha  occ. eigenvalues --  -11.21576 -11.21479 -11.21372 -11.21184 -11.20840
 Alpha  occ. eigenvalues --   -1.59862  -1.39413  -1.19408  -1.08799  -1.08464
 Alpha  occ. eigenvalues --   -1.04805  -1.03533  -0.95974  -0.95623  -0.86990
 Alpha  occ. eigenvalues --   -0.86201  -0.82452  -0.79599  -0.78280  -0.77495
 Alpha  occ. eigenvalues --   -0.72055  -0.71214  -0.70504  -0.65099  -0.65053
 Alpha  occ. eigenvalues --   -0.64805  -0.62149  -0.60931  -0.59381  -0.57622
 Alpha  occ. eigenvalues --   -0.55308  -0.55254  -0.53333  -0.52894  -0.52538
 Alpha  occ. eigenvalues --   -0.52286  -0.49907  -0.48817  -0.48809  -0.47916
 Alpha  occ. eigenvalues --   -0.46640  -0.45817  -0.45753  -0.44812  -0.43799
 Alpha  occ. eigenvalues --   -0.37335  -0.36397
 Alpha virt. eigenvalues --    0.05021   0.11231   0.16507   0.21372   0.22796
 Alpha virt. eigenvalues --    0.24213   0.26580   0.27281   0.27419   0.27783
 Alpha virt. eigenvalues --    0.28363   0.30739   0.31418   0.31602   0.31842

 Mulliken charges:
               1
     1  C   -0.298524
     2  C   -0.298660
     3  C   -0.475776
     4  H    0.149527
     5  H    0.151218
     6  H    0.147190
     7  H    0.150510
     8  H    0.158852
     9  H    0.155888
    10  H    0.158921
    11  C   -0.297597
    12  C   -0.299640
    13  C   -0.475575
    14  H    0.146790
    15  H    0.149009
    16  H    0.152091
    17  H    0.153006
    18  H    0.154913
    19  H    0.153954
    20  H    0.160730
    21  C   -0.170454
    22  C   -0.217806
    23  C   -0.172068
    24  C    0.153288
    25  C   -0.170047
    26  C   -0.217490
    27  H    0.225883
    28  H    0.223661
    29  H    0.275962
    30  H    0.275856
    31  H    0.223577
    32  N    0.492541
    33  O   -0.459411
    34  O   -0.460318
 Sum of Mulliken charges =  -0.00000

 Dipole moment (field-independent basis, Debye):
    X=             -1.4998    Y=              4.9373    Z=              0.2931  Tot=              5.1684
 Quadrupole moment (field-independent basis, Debye-Ang):
   XX=           -105.3621   YY=            -94.7547   ZZ=            -89.1123
   XY=             15.4657   XZ=             -0.3717   YZ=             -0.1543

 Normal termination of Gaussian 16 at Wed May  5 17:07:54 2021.
