 Gaussian 16, Revision A.03,
 Gaussian 16:  EM64L-G16RevA.03 25-Dec-2016

 -------------
 #p 6-31g* mp2
 -------------

 ------------------------------------------------------
 Input file generated by CHIRIPA (05-May-2021 14:57:24)
 ------------------------------------------------------
 Symbolic Z-matrix:
 Charge =  0 Multiplicity = 1

                         Standard orientation:
 ---------------------------------------------------------------------
 Center     Atomic      Atomic             Coordinates (Angstroms)
 Number     Number       Type             X           Y           Z
 ---------------------------------------------------------------------
      1          6           0       -2.290074   -1.848838   -0.135529
      2          6           0       -3.587989   -2.336266    0.049816
      3          6           0       -4.676905   -1.460221    0.086615
      4          6           0       -4.430483   -0.096667   -0.065984
      5          6           0       -3.149053    0.419614   -0.252213
      6          6           0       -2.075128   -0.474876   -0.285687
      7          1           0       -1.450001   -2.536535   -0.162825
      8          1           0       -3.757903   -3.402808    0.166707
      9          1           0       -5.692044   -1.810532    0.228723
     10          1           0       -3.011119    1.488017   -0.365819
     11          1           0       -1.068234   -0.093499   -0.429774
     12          7           0       -5.575335    0.840526   -0.028786
     13          8           0       -5.331689    2.037410   -0.165689
     14          8           0       -6.694638    0.360468    0.136568
     15          6           0        2.354186    1.900794    0.357506
     16          6           0        3.624871    2.349088   -0.017880
     17          6           0        4.678170    1.444010   -0.178945
     18          6           0        4.424285    0.091645    0.044524
     19          6           0        3.169391   -0.385896    0.419339
     20          6           0        2.130896    0.537137    0.574534
     21          1           0        1.541708    2.610854    0.480346
     22          1           0        3.801187    3.407542   -0.187096
     23          1           0        5.671704    1.763805   -0.468843
     24          1           0        3.024246   -1.447135    0.580967
     25          1           0        1.145094    0.186128    0.866139
     26          7           0        5.531530   -0.876025   -0.122882
     27          8           0        5.282009   -2.062295    0.079952
     28          8           0        6.627944   -0.429892   -0.453759
 ---------------------------------------------------------------------

 SCF Done:  E(RHF) =  -868.337074756     A.U. after   16 cycles
 E2 =    -0.2599453283D+01 EUMP2 =    -0.87093652803858D+03

 The electronic state is 1-A.
 Alpha  occ. eigenvalues --  -20.61337 -20.61324 -20.61289 -20.61277 -15.86393
 Alpha  occ. eigenvalues --  -15.86345 -11.31864 -11.31805 -11.28522 -11.28453
 Alpha  occ. eigenvalues --  -11.28421 -11.28360 -11.28240 -11.28174 -11.27592
 Alpha  occ. eigenvalues --  -11.27520 -11.27426 -11.27368  -1.60406  -1.60359
 Alpha  occ. eigenvalues --   -1.39957  -1.39911  -1.20062  -1.19998  -1.09436
 Alpha  occ. eigenvalues --   -1.09375  -1.05496  -1.05423  -0.96248  -0.96191
 Alpha  occ. eigenvalues --   -0.86917  -0.86794  -0.83090  -0.83023  -0.78141
 Alpha  occ. eigenvalues --   -0.78035  -0.72608  -0.72561  -0.71731  -0.71684
 Alpha  occ. eigenvalues --   -0.71165  -0.71104  -0.65739  -0.65706  -0.65651
 Alpha  occ. eigenvalues --   -0.65273  -0.62938  -0.62668  -0.55991  -0.55911
 Alpha  occ. eigenvalues --   -0.53821  -0.53757  -0.53689  -0.53377  -0.49379
 Alpha  occ. eigenvalues --   -0.49357  -0.49323  -0.49309  -0.45339  -0.45295
 Alpha  occ. eigenvalues --   -0.38042  -0.37979  -0.37095  -0.37029
 Alpha virt. eigenvalues --    0.04444   0.04498   0.10434   0.10547   0.15864
 Alpha virt. eigenvalues --    0.15940   0.18785   0.21882   0.25069   0.26975
 Alpha virt. eigenvalues --    0.27990   0.28561   0.29736   0.30951   0.31733

 Mulliken charges:
               1
     1  C   -0.170996
     2  C   -0.218161
     3  C   -0.169667
     4  C    0.159126
     5  C   -0.170488
     6  C   -0.224316
     7  H    0.226355
     8  H    0.226518
     9  H    0.277954
    10  H    0.274186
    11  H    0.219504
    12  N    0.488106
    13  O   -0.460579
    14  O   -0.458152
    15  C   -0.171022
    16  C   -0.218146
    17  C   -0.169393
    18  C    0.159097
    19  C   -0.170366
    20  C   -0.224652
    21  H    0.226735
    22  H    0.226772
    23  H    0.278208
    24  H    0.274233
    25  H    0.219460
    26  N    0.488117
    27  O   -0.460496
    28  O   -0.457938
 Sum of Mulliken charges =  -0.00000

 Dipole moment (field-independent basis, Debye):
    X=              0.1589    Y=              0.1105    Z=              0.4395  Tot=              0.4802
 Quadrupole moment (field-independent basis, Debye-Ang):
   XX=           -170.1282   YY=            -97.7848   ZZ=           -106.0897
   XY=             35.1891   XZ=              1.3169   YZ=             -1.2404

 Normal termination of Gaussian 16 at Wed May  5 16:21:53 2021.
