 Gaussian 16, Revision A.03,
 Gaussian 16:  EM64L-G16RevA.03 25-Dec-2016

 -------------
 #p 6-31g* mp2
 -------------

 ------------------------------------------------------
 Input file generated by CHIRIPA (05-May-2021 14:53:17)
 ------------------------------------------------------
 Symbolic Z-matrix:
 Charge =  0 Multiplicity = 1

                         Standard orientation:
 ---------------------------------------------------------------------
 Center     Atomic      Atomic             Coordinates (Angstroms)
 Number     Number       Type             X           Y           Z
 ---------------------------------------------------------------------
      1          6           0        3.940721   -0.280301   -0.010251
      2          6           0        3.838139   -0.272870   -1.535835
      3          6           0        5.082197   -0.846590   -2.214775
      4          1           0        4.825072    0.296028    0.294238
      5          1           0        4.105312   -1.310668    0.334202
      6          1           0        3.672408    0.756989   -1.877216
      7          1           0        2.953822   -0.849123   -1.836720
      8          1           0        5.248144   -1.882762   -1.902671
      9          1           0        5.970814   -0.267525   -1.943397
     10          1           0        4.987472   -0.831698   -3.305035
     11          6           0        2.704643    0.290205    0.682830
     12          6           0        2.807225    0.282775    2.208414
     13          6           0        1.563167    0.856494    2.887354
     14          1           0        2.540052    1.320572    0.338377
     15          1           0        1.820292   -0.286123    0.378341
     16          1           0        3.691542    0.859027    2.509299
     17          1           0        2.972956   -0.747084    2.549795
     18          1           0        0.674550    0.277430    2.615976
     19          1           0        1.397220    1.892667    2.575250
     20          1           0        1.657892    0.841603    3.977614
     21          6           0       -2.020900    2.377533   -0.866289
     22          6           0       -1.011300    1.490332   -0.478860
     23          6           0       -1.318283    0.168588   -0.142255
     24          6           0       -2.651429   -0.234094   -0.204376
     25          6           0       -3.679679    0.626093   -0.586568
     26          6           0       -3.349525    1.943347   -0.918814
     27          1           0       -1.773428    3.402551   -1.126078
     28          1           0        0.021398    1.824759   -0.437162
     29          1           0       -0.556413   -0.539214    0.161042
     30          1           0       -4.699958    0.263570   -0.618595
     31          1           0       -4.135663    2.630162   -1.219344
     32          7           0       -2.988683   -1.630989    0.149665
     33          8           0       -4.170924   -1.961144    0.086882
     34          8           0       -2.064396   -2.369269    0.483240
 ---------------------------------------------------------------------

 SCF Done:  E(RHF) =  -669.535309219     A.U. after   15 cycles
 E2 =    -0.2092774941D+01 EUMP2 =    -0.67162808416003D+03

 The electronic state is 1-A.
 Alpha  occ. eigenvalues --  -20.60739 -20.60733 -15.85787 -11.31116 -11.27680
 Alpha  occ. eigenvalues --  -11.27649 -11.27406 -11.26702 -11.26631 -11.22299
 Alpha  occ. eigenvalues --  -11.22154 -11.22105 -11.21939 -11.21589 -11.21422
 Alpha  occ. eigenvalues --   -1.59812  -1.39367  -1.19281  -1.09071  -1.08684
 Alpha  occ. eigenvalues --   -1.04678  -1.04053  -0.96519  -0.95528  -0.87530
 Alpha  occ. eigenvalues --   -0.86079  -0.82368  -0.80131  -0.78961  -0.77380
 Alpha  occ. eigenvalues --   -0.72008  -0.71134  -0.70409  -0.65728  -0.64929
 Alpha  occ. eigenvalues --   -0.64656  -0.62070  -0.61414  -0.59873  -0.58140
 Alpha  occ. eigenvalues --   -0.55812  -0.55191  -0.53158  -0.53079  -0.52892
 Alpha  occ. eigenvalues --   -0.52767  -0.50456  -0.48770  -0.48764  -0.48427
 Alpha  occ. eigenvalues --   -0.47147  -0.46418  -0.46352  -0.44780  -0.44352
 Alpha  occ. eigenvalues --   -0.37264  -0.36262
 Alpha virt. eigenvalues --    0.05090   0.11334   0.16567   0.19548   0.22845
 Alpha virt. eigenvalues --    0.23774   0.24126   0.25513   0.27485   0.28428
 Alpha virt. eigenvalues --    0.29752   0.30339   0.31195   0.31543   0.31839

 Mulliken charges:
               1
     1  C   -0.297618
     2  C   -0.300928
     3  C   -0.476139
     4  H    0.151763
     5  H    0.154904
     6  H    0.148569
     7  H    0.153590
     8  H    0.158042
     9  H    0.155608
    10  H    0.161739
    11  C   -0.306759
    12  C   -0.299715
    13  C   -0.479332
    14  H    0.143626
    15  H    0.147867
    16  H    0.153975
    17  H    0.158147
    18  H    0.158127
    19  H    0.150877
    20  H    0.165344
    21  C   -0.171765
    22  C   -0.221990
    23  C   -0.181092
    24  C    0.160888
    25  C   -0.170938
    26  C   -0.218391
    27  H    0.225352
    28  H    0.229860
    29  H    0.281590
    30  H    0.275239
    31  H    0.223104
    32  N    0.488194
    33  O   -0.460417
    34  O   -0.461322
 Sum of Mulliken charges =  -0.00000

 Dipole moment (field-independent basis, Debye):
    X=              1.3837    Y=              4.8442    Z=             -1.1784  Tot=              5.1739
 Quadrupole moment (field-independent basis, Debye-Ang):
   XX=            -96.2245   YY=            -96.8373   ZZ=            -94.9101
   XY=            -14.1258   XZ=              4.7738   YZ=             -1.2421

 Normal termination of Gaussian 16 at Thu May  6 15:37:16 2021.
