 Gaussian 16, Revision A.03,
 Gaussian 16:  EM64L-G16RevA.03 25-Dec-2016

 -------------
 #p 6-31g* mp2
 -------------

 ------------------------------------------------------
 Input file generated by CHIRIPA (05-May-2021 14:53:14)
 ------------------------------------------------------
 Symbolic Z-matrix:
 Charge =  0 Multiplicity = 1

                         Standard orientation:
 ---------------------------------------------------------------------
 Center     Atomic      Atomic             Coordinates (Angstroms)
 Number     Number       Type             X           Y           Z
 ---------------------------------------------------------------------
      1          6           0        3.281534    0.910213   -0.006642
      2          6           0        4.102873    2.139838    0.382471
      3          6           0        3.257310    3.410345    0.475363
      4          1           0        2.789314    1.096113   -0.971062
      5          1           0        2.479806    0.765107    0.730632
      6          1           0        4.903661    2.281772   -0.354556
      7          1           0        4.593348    1.950915    1.345984
      8          1           0        2.467489    3.293534    1.224455
      9          1           0        2.779565    3.626271   -0.485748
     10          1           0        3.864390    4.277088    0.754776
     11          6           0        4.112882   -0.367751   -0.103579
     12          6           0        3.291543   -1.597376   -0.492692
     13          6           0        4.137105   -2.867883   -0.585585
     14          1           0        4.914609   -0.222645   -0.840853
     15          1           0        4.605102   -0.553651    0.860841
     16          1           0        2.801067   -1.408453   -1.456206
     17          1           0        2.490755   -1.739310    0.244335
     18          1           0        4.614851   -3.083809    0.375527
     19          1           0        4.926927   -2.751072   -1.334676
     20          1           0        3.530025   -3.734626   -0.864997
     21          6           0       -0.728074   -1.346910    0.683741
     22          6           0       -1.828459   -1.398743    1.545709
     23          6           0       -3.030452   -0.773485    1.201017
     24          6           0       -3.097300   -0.102171   -0.018884
     25          6           0       -2.018495   -0.032758   -0.899026
     26          6           0       -0.826431   -0.665285   -0.533729
     27          1           0        0.201806   -1.835449    0.959509
     28          1           0       -1.754954   -1.927380    2.491851
     29          1           0       -3.897804   -0.797932    1.849492
     30          1           0       -2.122122    0.501821   -1.835458
     31          1           0        0.026521   -0.623387   -1.205119
     32          7           0       -4.364540    0.563610   -0.394701
     33          8           0       -4.397808    1.148615   -1.475116
     34          8           0       -5.300542    0.487837    0.398267
 ---------------------------------------------------------------------

 SCF Done:  E(RHF) =  -669.535524987     A.U. after   15 cycles
 E2 =    -0.2091992984D+01 EUMP2 =    -0.67162751797041D+03

 The electronic state is 1-A.
 Alpha  occ. eigenvalues --  -20.60710 -20.60704 -15.85762 -11.31114 -11.27680
 Alpha  occ. eigenvalues --  -11.27665 -11.27389 -11.26696 -11.26649 -11.22925
 Alpha  occ. eigenvalues --  -11.22360 -11.22280 -11.22222 -11.22086 -11.21560
 Alpha  occ. eigenvalues --   -1.59785  -1.39339  -1.19279  -1.09375  -1.08674
 Alpha  occ. eigenvalues --   -1.04679  -1.04412  -0.96813  -0.95517  -0.87834
 Alpha  occ. eigenvalues --   -0.86075  -0.82350  -0.80535  -0.79179  -0.77393
 Alpha  occ. eigenvalues --   -0.71980  -0.71108  -0.70409  -0.66001  -0.64928
 Alpha  occ. eigenvalues --   -0.64678  -0.62029  -0.61813  -0.60211  -0.58438
 Alpha  occ. eigenvalues --   -0.56085  -0.55202  -0.53518  -0.53230  -0.53005
 Alpha  occ. eigenvalues --   -0.52768  -0.50757  -0.48812  -0.48741  -0.48733
 Alpha  occ. eigenvalues --   -0.47566  -0.46688  -0.46604  -0.44748  -0.44664
 Alpha  occ. eigenvalues --   -0.37253  -0.36280
 Alpha virt. eigenvalues --    0.05124   0.11332   0.16599   0.19260   0.22613
 Alpha virt. eigenvalues --    0.23495   0.23877   0.25250   0.27141   0.28122
 Alpha virt. eigenvalues --    0.29197   0.30136   0.31081   0.31337   0.31698

 Mulliken charges:
               1
     1  C   -0.300501
     2  C   -0.300341
     3  C   -0.476397
     4  H    0.147365
     5  H    0.148905
     6  H    0.153743
     7  H    0.153261
     8  H    0.156727
     9  H    0.156131
    10  H    0.162803
    11  C   -0.297793
    12  C   -0.306525
    13  C   -0.475785
    14  H    0.153777
    15  H    0.152322
    16  H    0.150457
    17  H    0.144403
    18  H    0.157801
    19  H    0.159992
    20  H    0.161246
    21  C   -0.176387
    22  C   -0.219127
    23  C   -0.171112
    24  C    0.158556
    25  C   -0.171639
    26  C   -0.222063
    27  H    0.231557
    28  H    0.223216
    29  H    0.275189
    30  H    0.275346
    31  H    0.228128
    32  N    0.488039
    33  O   -0.460618
    34  O   -0.460678
 Sum of Mulliken charges =  -0.00000

 Dipole moment (field-independent basis, Debye):
    X=              4.7254    Y=             -2.2906    Z=              1.3174  Tot=              5.4141
 Quadrupole moment (field-independent basis, Debye-Ang):
   XX=           -121.4253   YY=            -95.1648   ZZ=            -90.3341
   XY=              8.0578   XZ=             -6.4387   YZ=             -1.8422

 Normal termination of Gaussian 16 at Wed May  5 21:50:46 2021.
