 Gaussian 16, Revision A.03,
 Gaussian 16:  EM64L-G16RevA.03 25-Dec-2016

 -------------
 #p 6-31g* mp2
 -------------

 ------------------------------------------------------
 Input file generated by CHIRIPA (05-May-2021 14:55:24)
 ------------------------------------------------------
 Symbolic Z-matrix:
 Charge =  0 Multiplicity = 1

                         Standard orientation:
 ---------------------------------------------------------------------
 Center     Atomic      Atomic             Coordinates (Angstroms)
 Number     Number       Type             X           Y           Z
 ---------------------------------------------------------------------
      1          6           0        5.661545    1.838152    0.265002
      2          6           0        4.359708    2.140052   -0.148034
      3          6           0        3.421022    1.121612   -0.338293
      4          6           0        3.820041   -0.193603   -0.105305
      5          6           0        5.109530   -0.526351    0.306747
      6          6           0        6.031648    0.508259    0.490676
      7          1           0        6.384303    2.635580    0.410341
      8          1           0        4.069481    3.171959   -0.324049
      9          1           0        2.406511    1.327136   -0.657580
     10          1           0        5.369337   -1.564548    0.474272
     11          1           0        7.041972    0.270843    0.811495
     12          7           0        2.835066   -1.280338   -0.303373
     13          8           0        3.211512   -2.430989   -0.091410
     14          8           0        1.705247   -0.960893   -0.666830
     15          6           0       -5.659554    0.453343   -0.187031
     16          6           0       -7.037788    0.095661    0.370211
     17          6           0       -8.151966    0.974211   -0.199485
     18          1           0       -5.444944    1.508256    0.032166
     19          1           0       -5.678588    0.359144   -1.281636
     20          1           0       -7.015768    0.189171    1.463549
     21          1           0       -7.249061   -0.958574    0.149830
     22          1           0       -8.202846    0.873957   -1.288503
     23          1           0       -7.968228    2.028222    0.032681
     24          1           0       -9.128606    0.701363    0.212326
     25          6           0       -4.535330   -0.416235    0.373043
     26          6           0       -3.157095   -0.058553   -0.184199
     27          6           0       -2.042917   -0.937102    0.385496
     28          1           0       -4.516296   -0.322035    1.467648
     29          1           0       -4.749939   -1.471146    0.153845
     30          1           0       -2.945823    0.995683    0.036182
     31          1           0       -3.179116   -0.152062   -1.277537
     32          1           0       -2.226657   -1.991113    0.153331
     33          1           0       -1.992037   -0.836848    1.474515
     34          1           0       -1.066278   -0.664254   -0.026314
 ---------------------------------------------------------------------

 SCF Done:  E(RHF) =  -669.536021204     A.U. after   15 cycles
 E2 =    -0.2090608013D+01 EUMP2 =    -0.67162662921678D+03

 The electronic state is 1-A.
 Alpha  occ. eigenvalues --  -20.60905 -20.60896 -15.85946 -11.31273 -11.27839
 Alpha  occ. eigenvalues --  -11.27834 -11.27577 -11.26848 -11.26838 -11.21185
 Alpha  occ. eigenvalues --  -11.20871 -11.20745 -11.20739 -11.20677 -11.19727
 Alpha  occ. eigenvalues --   -1.59965  -1.39522  -1.19442  -1.08845  -1.07807
 Alpha  occ. eigenvalues --   -1.04841  -1.02828  -0.95688  -0.95247  -0.86262
 Alpha  occ. eigenvalues --   -0.86236  -0.82522  -0.78914  -0.77612  -0.77569
 Alpha  occ. eigenvalues --   -0.72173  -0.71280  -0.70553  -0.65100  -0.64844
 Alpha  occ. eigenvalues --   -0.64449  -0.62189  -0.60239  -0.58643  -0.56845
 Alpha  occ. eigenvalues --   -0.55345  -0.54554  -0.53172  -0.52934  -0.51879
 Alpha  occ. eigenvalues --   -0.51674  -0.49216  -0.48924  -0.48909  -0.47212
 Alpha  occ. eigenvalues --   -0.45982  -0.45144  -0.45078  -0.44933  -0.43035
 Alpha  occ. eigenvalues --   -0.37422  -0.36443
 Alpha virt. eigenvalues --    0.04944   0.11212   0.16424   0.21310   0.23440
 Alpha virt. eigenvalues --    0.25043   0.27224   0.27236   0.27952   0.28117
 Alpha virt. eigenvalues --    0.28912   0.30793   0.32064   0.32106   0.32368

 Mulliken charges:
               1
     1  C   -0.170658
     2  C   -0.218527
     3  C   -0.170529
     4  C    0.157760
     5  C   -0.170679
     6  C   -0.218564
     7  H    0.225912
     8  H    0.223774
     9  H    0.275426
    10  H    0.275868
    11  H    0.223749
    12  N    0.493339
    13  O   -0.458783
    14  O   -0.464890
    15  C   -0.297489
    16  C   -0.299141
    17  C   -0.475311
    18  H    0.147462
    19  H    0.148866
    20  H    0.151074
    21  H    0.151967
    22  H    0.154769
    23  H    0.154017
    24  H    0.159074
    25  C   -0.297320
    26  C   -0.299524
    27  C   -0.483805
    28  H    0.147663
    29  H    0.149732
    30  H    0.145993
    31  H    0.151086
    32  H    0.155404
    33  H    0.148192
    34  H    0.184095
 Sum of Mulliken charges =  -0.00000

 Dipole moment (field-independent basis, Debye):
    X=              3.7758    Y=              3.7721    Z=              0.6587  Tot=              5.3776
 Quadrupole moment (field-independent basis, Debye-Ang):
   XX=            -67.9445   YY=            -94.1211   ZZ=            -95.0452
   XY=             12.2740   XZ=              3.3933   YZ=             -0.8324

 Normal termination of Gaussian 16 at Thu May  6 03:10:02 2021.
