 Gaussian 16, Revision A.03,
 Gaussian 16:  EM64L-G16RevA.03 25-Dec-2016

 -------------
 #p 6-31g* mp2
 -------------

 ------------------------------------------------------
 Input file generated by CHIRIPA (05-May-2021 14:55:19)
 ------------------------------------------------------
 Symbolic Z-matrix:
 Charge =  0 Multiplicity = 1

                         Standard orientation:
 ---------------------------------------------------------------------
 Center     Atomic      Atomic             Coordinates (Angstroms)
 Number     Number       Type             X           Y           Z
 ---------------------------------------------------------------------
      1          6           0        5.805751   -1.324523   -0.177170
      2          6           0        4.811394   -1.440571   -1.154056
      3          6           0        3.603418   -0.749025   -1.023259
      4          6           0        3.422537    0.053337    0.102258
      5          6           0        4.394073    0.189426    1.092655
      6          6           0        5.594290   -0.511328    0.941096
      7          1           0        6.741122   -1.865309   -0.286841
      8          1           0        4.972861   -2.071383   -2.023567
      9          1           0        2.816708   -0.820806   -1.764441
     10          1           0        4.204070    0.825896    1.948356
     11          1           0        6.364749   -0.419310    1.701341
     12          7           0        2.147814    0.790320    0.251717
     13          8           0        2.012978    1.490748    1.252645
     14          8           0        1.307659    0.653585   -0.634895
     15          6           0       -5.294090   -0.099734    0.265780
     16          6           0       -5.742125   -1.538580    0.006987
     17          6           0       -7.032575   -1.897581    0.744313
     18          1           0       -5.153510    0.045177    1.345680
     19          1           0       -6.095438    0.587074   -0.040047
     20          1           0       -4.939624   -2.222407    0.311926
     21          1           0       -5.881470   -1.680136   -1.072440
     22          1           0       -7.849965   -1.239009    0.433254
     23          1           0       -6.902767   -1.784362    1.825484
     24          1           0       -7.334647   -2.930524    0.545211
     25          6           0       -4.005433    0.274139   -0.464501
     26          6           0       -3.557398    1.712984   -0.205707
     27          6           0       -2.266948    2.071986   -0.943033
     28          1           0       -3.204085   -0.412670   -0.158673
     29          1           0       -4.146014    0.129229   -1.544400
     30          1           0       -3.418053    1.854541    0.873719
     31          1           0       -4.359899    2.396812   -0.510647
     32          1           0       -2.396756    1.958767   -2.024205
     33          1           0       -1.449558    1.413414   -0.631974
     34          1           0       -1.964876    3.104928   -0.743931
 ---------------------------------------------------------------------

 SCF Done:  E(RHF) =  -669.536249467     A.U. after   15 cycles
 E2 =    -0.2090834139D+01 EUMP2 =    -0.67162708360559D+03

 The electronic state is 1-A.
 Alpha  occ. eigenvalues --  -20.60988 -20.60969 -15.86005 -11.31315 -11.27875
 Alpha  occ. eigenvalues --  -11.27871 -11.27611 -11.26879 -11.26869 -11.20970
 Alpha  occ. eigenvalues --  -11.20579 -11.20557 -11.20353 -11.20282 -11.19233
 Alpha  occ. eigenvalues --   -1.60036  -1.39593  -1.19481  -1.08888  -1.07488
 Alpha  occ. eigenvalues --   -1.04874  -1.02497  -0.95732  -0.94919  -0.86276
 Alpha  occ. eigenvalues --   -0.85931  -0.82564  -0.78604  -0.77619  -0.77254
 Alpha  occ. eigenvalues --   -0.72223  -0.71349  -0.70589  -0.65136  -0.64877
 Alpha  occ. eigenvalues --   -0.64126  -0.62221  -0.59891  -0.58378  -0.56528
 Alpha  occ. eigenvalues --   -0.55382  -0.54200  -0.53207  -0.52966  -0.51611
 Alpha  occ. eigenvalues --   -0.51351  -0.49204  -0.48977  -0.48632  -0.46870
 Alpha  occ. eigenvalues --   -0.45634  -0.45010  -0.44791  -0.44662  -0.42765
 Alpha  occ. eigenvalues --   -0.37460  -0.36475
 Alpha virt. eigenvalues --    0.04909   0.11180   0.16410   0.21318   0.23745
 Alpha virt. eigenvalues --    0.25423   0.27236   0.27567   0.28185   0.28395
 Alpha virt. eigenvalues --    0.29181   0.30885   0.32362   0.32520   0.32648

 Mulliken charges:
               1
     1  C   -0.170541
     2  C   -0.218560
     3  C   -0.170836
     4  C    0.157608
     5  C   -0.170577
     6  C   -0.218610
     7  H    0.226065
     8  H    0.223939
     9  H    0.276054
    10  H    0.275893
    11  H    0.223874
    12  N    0.489703
    13  O   -0.458837
    14  O   -0.460081
    15  C   -0.297513
    16  C   -0.298829
    17  C   -0.475139
    18  H    0.148960
    19  H    0.147586
    20  H    0.151049
    21  H    0.150485
    22  H    0.154306
    23  H    0.154572
    24  H    0.157892
    25  C   -0.297537
    26  C   -0.299410
    27  C   -0.483988
    28  H    0.151371
    29  H    0.146659
    30  H    0.151237
    31  H    0.145548
    32  H    0.146247
    33  H    0.184380
    34  H    0.157028
 Sum of Mulliken charges =  -0.00000

 Dipole moment (field-independent basis, Debye):
    X=              4.9006    Y=             -2.6183    Z=             -0.4862  Tot=              5.5774
 Quadrupole moment (field-independent basis, Debye-Ang):
   XX=            -65.9659   YY=            -95.4072   ZZ=            -91.0325
   XY=             -8.6373   XZ=              1.0167   YZ=              1.7932

 Normal termination of Gaussian 16 at Thu May  6 09:14:59 2021.
