 Gaussian 16, Revision A.03,
 Gaussian 16:  EM64L-G16RevA.03 25-Dec-2016

 -------------
 #p 6-31g* mp2
 -------------

 ------------------------------------------------------
 Input file generated by CHIRIPA (05-May-2021 14:55:24)
 ------------------------------------------------------
 Symbolic Z-matrix:
 Charge =  0 Multiplicity = 1

                         Standard orientation:
 ---------------------------------------------------------------------
 Center     Atomic      Atomic             Coordinates (Angstroms)
 Number     Number       Type             X           Y           Z
 ---------------------------------------------------------------------
      1          6           0        4.374029   -1.466592   -1.239595
      2          6           0        3.006824   -1.401714   -1.527799
      3          6           0        2.147455   -0.644158   -0.726462
      4          6           0        2.691585    0.039005    0.360047
      5          6           0        4.049272   -0.005873    0.673039
      6          6           0        4.889980   -0.769693   -0.142030
      7          1           0        5.034359   -2.057512   -1.867426
      8          1           0        2.603348   -1.941902   -2.379533
      9          1           0        1.085045   -0.576495   -0.926774
     10          1           0        4.422166    0.543503    1.528932
     11          1           0        5.951353   -0.818249    0.084184
     12          7           0        1.791688    0.844311    1.215656
     13          8           0        2.295814    1.436983    2.167094
     14          8           0        0.599263    0.867590    0.918643
     15          6           0       -4.244628   -0.174959    0.073042
     16          6           0       -4.148832   -1.685782    0.288037
     17          6           0       -5.375756   -2.261088    0.996187
     18          1           0       -4.374188    0.319859    1.045314
     19          1           0       -5.146256    0.048401   -0.513962
     20          1           0       -3.246914   -1.906346    0.873281
     21          1           0       -4.019295   -2.177046   -0.684843
     22          1           0       -6.282190   -2.070082    0.412670
     23          1           0       -5.505421   -1.797843    1.979647
     24          1           0       -5.286214   -3.342410    1.139665
     25          6           0       -3.025514    0.414881   -0.633764
     26          6           0       -3.121310    1.925703   -0.848759
     27          6           0       -1.894387    2.501009   -1.556910
     28          1           0       -2.123886    0.191521   -0.046761
     29          1           0       -2.895954   -0.079937   -1.606036
     30          1           0       -3.250848    2.416968    0.124120
     31          1           0       -4.023229    2.146267   -1.434003
     32          1           0       -1.764721    2.037764   -2.540368
     33          1           0       -0.987952    2.310003   -0.973391
     34          1           0       -1.983928    3.582331   -1.700387
 ---------------------------------------------------------------------

 SCF Done:  E(RHF) =  -669.536576373     A.U. after   15 cycles
 E2 =    -0.2091676031D+01 EUMP2 =    -0.67162825240435D+03

 The electronic state is 1-A.
 Alpha  occ. eigenvalues --  -20.61055 -20.61026 -15.86068 -11.31318 -11.27879
 Alpha  occ. eigenvalues --  -11.27865 -11.27608 -11.26874 -11.26860 -11.21095
 Alpha  occ. eigenvalues --  -11.20700 -11.20689 -11.20649 -11.20473 -11.20052
 Alpha  occ. eigenvalues --   -1.60097  -1.39657  -1.19484  -1.08902  -1.07679
 Alpha  occ. eigenvalues --   -1.04870  -1.02797  -0.95755  -0.95248  -0.86275
 Alpha  occ. eigenvalues --   -0.86272  -0.82596  -0.78896  -0.77703  -0.77436
 Alpha  occ. eigenvalues --   -0.72303  -0.71402  -0.70594  -0.65149  -0.64873
 Alpha  occ. eigenvalues --   -0.64278  -0.62217  -0.60170  -0.58642  -0.56868
 Alpha  occ. eigenvalues --   -0.55380  -0.54515  -0.53206  -0.52961  -0.51973
 Alpha  occ. eigenvalues --   -0.51687  -0.49186  -0.49069  -0.49038  -0.47211
 Alpha  occ. eigenvalues --   -0.45931  -0.45079  -0.45022  -0.44829  -0.43051
 Alpha  occ. eigenvalues --   -0.37461  -0.36468
 Alpha virt. eigenvalues --    0.04832   0.11185   0.16312   0.21022   0.23522
 Alpha virt. eigenvalues --    0.24678   0.26549   0.27402   0.27720   0.28731
 Alpha virt. eigenvalues --    0.29068   0.30892   0.31786   0.32293   0.32643

 Mulliken charges:
               1
     1  C   -0.170355
     2  C   -0.218814
     3  C   -0.170864
     4  C    0.157402
     5  C   -0.170738
     6  C   -0.218662
     7  H    0.226145
     8  H    0.224319
     9  H    0.277720
    10  H    0.275758
    11  H    0.223885
    12  N    0.495058
    13  O   -0.457787
    14  O   -0.467730
    15  C   -0.297361
    16  C   -0.299524
    17  C   -0.475228
    18  H    0.152171
    19  H    0.146330
    20  H    0.153467
    21  H    0.147502
    22  H    0.153889
    23  H    0.156241
    24  H    0.157664
    25  C   -0.308454
    26  C   -0.295647
    27  C   -0.486342
    28  H    0.170620
    29  H    0.139755
    30  H    0.155793
    31  H    0.146159
    32  H    0.144745
    33  H    0.176479
    34  H    0.156402
 Sum of Mulliken charges =  -0.00000

 Dipole moment (field-independent basis, Debye):
    X=              3.4767    Y=             -2.8104    Z=             -2.8132  Tot=              5.2821
 Quadrupole moment (field-independent basis, Debye-Ang):
   XX=            -76.0241   YY=            -95.9611   ZZ=            -95.5771
   XY=             -7.0328   XZ=             -4.2813   YZ=              0.6332

 Normal termination of Gaussian 16 at Thu May  6 09:29:43 2021.
