 Gaussian 16, Revision A.03,
 Gaussian 16:  EM64L-G16RevA.03 25-Dec-2016

 -------------
 #p 6-31g* mp2
 -------------

 ------------------------------------------------------
 Input file generated by CHIRIPA (05-May-2021 14:51:09)
 ------------------------------------------------------
 Symbolic Z-matrix:
 Charge =  0 Multiplicity = 1

                         Standard orientation:
 ---------------------------------------------------------------------
 Center     Atomic      Atomic             Coordinates (Angstroms)
 Number     Number       Type             X           Y           Z
 ---------------------------------------------------------------------
      1          6           0        2.660248    1.023441    0.040741
      2          6           0        3.421971    2.336027    0.227504
      3          6           0        2.509423    3.498423    0.619786
      4          1           0        1.888226    1.161185   -0.728644
      5          1           0        2.132449    0.778079    0.972740
      6          1           0        3.949294    2.578128   -0.704126
      7          1           0        4.192396    2.195089    0.996398
      8          1           0        1.993358    3.282421    1.560860
      9          1           0        1.748875    3.667636   -0.149327
     10          1           0        3.074570    4.426862    0.748122
     11          6           0        3.558914   -0.147971   -0.351587
     12          6           0        2.797190   -1.460557   -0.538350
     13          6           0        3.709738   -2.622953   -0.930632
     14          1           0        4.086712    0.097391   -1.283586
     15          1           0        4.330936   -0.285714    0.417798
     16          1           0        2.026766   -1.319618   -1.307244
     17          1           0        2.269868   -1.702657    0.393280
     18          1           0        4.470287   -2.792165   -0.161519
     19          1           0        4.225804   -2.406950   -1.871706
     20          1           0        3.144591   -3.551392   -1.058968
     21          6           0       -2.848521   -0.997467    0.604845
     22          6           0       -1.359540   -1.286140    0.410966
     23          6           0       -0.852071   -2.408343    1.317018
     24          1           0       -3.030463   -0.732971    1.655505
     25          1           0       -3.421163   -1.914758    0.409770
     26          1           0       -0.789986   -0.368222    0.605003
     27          1           0       -1.181093   -1.549793   -0.639395
     28          1           0       -1.394560   -3.338442    1.118969
     29          1           0       -1.001230   -2.150157    2.370437
     30          1           0        0.214607   -2.598143    1.161985
     31          6           0       -3.370640    0.121996   -0.293999
     32          6           0       -4.859621    0.410669   -0.100121
     33          6           0       -5.367091    1.532873   -1.006171
     34          1           0       -2.797999    1.039287   -0.098924
     35          1           0       -3.188700   -0.142500   -1.344659
     36          1           0       -5.038069    0.674322    0.950241
     37          1           0       -5.429175   -0.507249   -0.294157
     38          1           0       -5.217931    1.274686   -2.059591
     39          1           0       -4.824602    2.462971   -0.808123
     40          1           0       -6.433768    1.722673   -0.851139
 ---------------------------------------------------------------------

 SCF Done:  E(RHF) =  -470.733252683     A.U. after   11 cycles
 E2 =    -0.1583191506D+01 EUMP2 =    -0.47231644418958D+03

 The electronic state is 1-A.
 Alpha  occ. eigenvalues --  -11.21619 -11.21595 -11.21583 -11.21534 -11.21419
 Alpha  occ. eigenvalues --  -11.21374 -11.21360 -11.21313 -11.21094 -11.21082
 Alpha  occ. eigenvalues --  -11.21058 -11.21003  -1.08451  -1.08389  -1.03559
 Alpha  occ. eigenvalues --   -1.03479  -0.95998  -0.95944  -0.87019  -0.86956
 Alpha  occ. eigenvalues --   -0.79614  -0.79552  -0.78311  -0.78156  -0.65090
 Alpha  occ. eigenvalues --   -0.65017  -0.60969  -0.60884  -0.59506  -0.59196
 Alpha  occ. eigenvalues --   -0.57674  -0.57483  -0.55282  -0.55234  -0.52722
 Alpha  occ. eigenvalues --   -0.52633  -0.52447  -0.52343  -0.49934  -0.49887
 Alpha  occ. eigenvalues --   -0.47991  -0.47811  -0.46627  -0.46589  -0.45897
 Alpha  occ. eigenvalues --   -0.45763  -0.45649  -0.45584  -0.43806  -0.43719
 Alpha virt. eigenvalues --    0.21255   0.23194   0.23497   0.24480   0.26003
 Alpha virt. eigenvalues --    0.26153   0.26735   0.27485   0.28196   0.29259
 Alpha virt. eigenvalues --    0.30185   0.30849   0.31599   0.31776   0.32223

 Mulliken charges:
               1
     1  C   -0.299675
     2  C   -0.299674
     3  C   -0.475767
     4  H    0.150664
     5  H    0.150108
     6  H    0.152091
     7  H    0.151987
     8  H    0.154880
     9  H    0.155214
    10  H    0.160400
    11  C   -0.297833
    12  C   -0.306178
    13  C   -0.475879
    14  H    0.149580
    15  H    0.149519
    16  H    0.153374
    17  H    0.157479
    18  H    0.155129
    19  H    0.155325
    20  H    0.160332
    21  C   -0.298400
    22  C   -0.300733
    23  C   -0.481556
    24  H    0.149420
    25  H    0.149338
    26  H    0.154447
    27  H    0.151800
    28  H    0.154868
    29  H    0.154346
    30  H    0.165696
    31  C   -0.298253
    32  C   -0.299592
    33  C   -0.475701
    34  H    0.149663
    35  H    0.149334
    36  H    0.151930
    37  H    0.151867
    38  H    0.155048
    39  H    0.155200
    40  H    0.160200
 Sum of Mulliken charges =  -0.00000

 Dipole moment (field-independent basis, Debye):
    X=              0.0304    Y=              0.0078    Z=             -0.0112  Tot=              0.0333
 Quadrupole moment (field-independent basis, Debye-Ang):
   XX=            -85.3250   YY=            -85.8083   ZZ=            -83.7095
   XY=              1.0065   XZ=              0.1680   YZ=              0.5014

 Normal termination of Gaussian 16 at Wed May  5 21:22:00 2021.
