 Gaussian 16, Revision A.03,
 Gaussian 16:  EM64L-G16RevA.03 25-Dec-2016

 -------------
 #p 6-31g* mp2
 -------------

 ------------------------------------------------------
 Input file generated by CHIRIPA (05-May-2021 14:53:12)
 ------------------------------------------------------
 Symbolic Z-matrix:
 Charge =  0 Multiplicity = 1

                         Standard orientation:
 ---------------------------------------------------------------------
 Center     Atomic      Atomic             Coordinates (Angstroms)
 Number     Number       Type             X           Y           Z
 ---------------------------------------------------------------------
      1          6           0       -1.679609    1.199073    0.019266
      2          6           0       -1.250083    2.137264    1.147668
      3          6           0        0.149426    2.715287    0.935399
      4          1           0       -0.952068    0.380228   -0.065125
      5          1           0       -1.647974    1.744779   -0.933939
      6          1           0       -1.283849    1.590340    2.098641
      7          1           0       -1.978835    2.953866    1.229507
      8          1           0        0.193460    3.284686    0.001351
      9          1           0        0.892394    1.913413    0.875423
     10          1           0        0.436324    3.383101    1.753675
     11          6           0       -3.076514    0.613228    0.217180
     12          6           0       -3.506041   -0.324963   -0.911222
     13          6           0       -4.905550   -0.902987   -0.698954
     14          1           0       -3.108150    0.067521    1.170385
     15          1           0       -3.804056    1.432072    0.301570
     16          1           0       -2.777289   -1.141565   -0.993062
     17          1           0       -3.472275    0.221960   -1.862195
     18          1           0       -5.648518   -0.101113   -0.638977
     19          1           0       -4.949583   -1.472385    0.235095
     20          1           0       -5.192448   -1.570800   -1.517229
     21          6           0        0.564524   -2.392936    1.269239
     22          6           0        0.354498   -2.298435   -0.110427
     23          6           0        1.065480   -1.368494   -0.874798
     24          6           0        1.982896   -0.545030   -0.223996
     25          6           0        2.214450   -0.615132    1.148869
     26          6           0        1.492194   -1.552465    1.893383
     27          1           0        0.007837   -3.118208    1.855308
     28          1           0       -0.365311   -2.949869   -0.597824
     29          1           0        0.922561   -1.274112   -1.944417
     30          1           0        2.938660    0.047814    1.606515
     31          1           0        1.657366   -1.623631    2.964691
     32          7           0        2.741548    0.443370   -1.022691
     33          8           0        3.544161    1.157391   -0.425513
     34          8           0        2.519201    0.485341   -2.230763
 ---------------------------------------------------------------------

 SCF Done:  E(RHF) =  -669.533536180     A.U. after   15 cycles
 E2 =    -0.2096968061D+01 EUMP2 =    -0.67163050424087D+03

 The electronic state is 1-A.
 Alpha  occ. eigenvalues --  -20.60880 -20.60867 -15.85906 -11.31302 -11.27915
 Alpha  occ. eigenvalues --  -11.27890 -11.27683 -11.26949 -11.26928 -11.21927
 Alpha  occ. eigenvalues --  -11.21519 -11.21473 -11.21416 -11.21180 -11.20737
 Alpha  occ. eigenvalues --   -1.59936  -1.39490  -1.19550  -1.08913  -1.08486
 Alpha  occ. eigenvalues --   -1.04952  -1.03593  -0.96016  -0.95734  -0.87045
 Alpha  occ. eigenvalues --   -0.86323  -0.82561  -0.79682  -0.78306  -0.77594
 Alpha  occ. eigenvalues --   -0.72135  -0.71276  -0.70626  -0.65206  -0.65138
 Alpha  occ. eigenvalues --   -0.64923  -0.62288  -0.61019  -0.59418  -0.57641
 Alpha  occ. eigenvalues --   -0.55466  -0.55300  -0.53404  -0.53019  -0.52707
 Alpha  occ. eigenvalues --   -0.52444  -0.50001  -0.48900  -0.48890  -0.47984
 Alpha  occ. eigenvalues --   -0.46750  -0.45787  -0.45639  -0.44833  -0.43814
 Alpha  occ. eigenvalues --   -0.37466  -0.36443
 Alpha virt. eigenvalues --    0.04899   0.10948   0.16308   0.20761   0.22983
 Alpha virt. eigenvalues --    0.24051   0.25992   0.26835   0.27645   0.28285
 Alpha virt. eigenvalues --    0.28575   0.30022   0.31581   0.31622   0.32170

 Mulliken charges:
               1
     1  C   -0.309175
     2  C   -0.297911
     3  C   -0.479916
     4  H    0.160162
     5  H    0.151331
     6  H    0.146674
     7  H    0.151165
     8  H    0.161197
     9  H    0.154805
    10  H    0.159506
    11  C   -0.296209
    12  C   -0.299357
    13  C   -0.475493
    14  H    0.145446
    15  H    0.150619
    16  H    0.142679
    17  H    0.154842
    18  H    0.157726
    19  H    0.152612
    20  H    0.159418
    21  C   -0.171180
    22  C   -0.216484
    23  C   -0.177192
    24  C    0.162914
    25  C   -0.175249
    26  C   -0.216662
    27  H    0.226700
    28  H    0.225265
    29  H    0.277044
    30  H    0.276908
    31  H    0.224642
    32  N    0.491367
    33  O   -0.459089
    34  O   -0.459105
 Sum of Mulliken charges =  -0.00000

 Dipole moment (field-independent basis, Debye):
    X=             -2.5064    Y=             -3.4978    Z=              2.7607  Tot=              5.1125
 Quadrupole moment (field-independent basis, Debye-Ang):
   XX=           -105.8667   YY=            -90.6486   ZZ=            -92.5443
   XY=             -5.5355   XZ=              8.7722   YZ=              0.0355

 Normal termination of Gaussian 16 at Wed May  5 23:21:29 2021.
