 Gaussian 16, Revision A.03,
 Gaussian 16:  EM64L-G16RevA.03 25-Dec-2016

 -------------
 #p 6-31g* mp2
 -------------

 ------------------------------------------------------
 Input file generated by CHIRIPA (05-May-2021 14:57:22)
 ------------------------------------------------------
 Symbolic Z-matrix:
 Charge =  0 Multiplicity = 1

                         Standard orientation:
 ---------------------------------------------------------------------
 Center     Atomic      Atomic             Coordinates (Angstroms)
 Number     Number       Type             X           Y           Z
 ---------------------------------------------------------------------
      1          6           0        2.015142   -0.676618   -0.075828
      2          6           0        2.453139    0.564892    0.396752
      3          6           0        3.818349    0.859802    0.458203
      4          6           0        4.722084   -0.114476    0.037090
      5          6           0        4.316860   -1.360581   -0.438625
      6          6           0        2.946758   -1.633705   -0.491276
      7          1           0        0.952714   -0.897250   -0.120146
      8          1           0        1.731895    1.310093    0.720060
      9          1           0        4.184929    1.812857    0.819760
     10          1           0        5.059667   -2.083253   -0.753906
     11          1           0        2.609486   -2.598725   -0.858739
     12          7           0        6.169960    0.186201    0.097486
     13          8           0        6.946028   -0.689178   -0.279432
     14          8           0        6.501322    1.291556    0.520600
     15          6           0       -2.743828    1.951558   -0.407088
     16          6           0       -2.352333    0.620921   -0.226376
     17          6           0       -3.307572   -0.377792   -0.015104
     18          6           0       -4.651637   -0.008781    0.009597
     19          6           0       -5.073169    1.308165   -0.167193
     20          6           0       -4.100605    2.290336   -0.376972
     21          1           0       -1.995047    2.720958   -0.570629
     22          1           0       -1.299356    0.354911   -0.249273
     23          1           0       -3.032261   -1.415692    0.127672
     24          1           0       -6.130358    1.542659   -0.139198
     25          1           0       -4.407558    3.322912   -0.517014
     26          7           0       -5.672077   -1.057317    0.232471
     27          8           0       -6.849843   -0.706318    0.249869
     28          8           0       -5.274809   -2.210307    0.385542
 ---------------------------------------------------------------------

 SCF Done:  E(RHF) =  -868.336287645     A.U. after   16 cycles
 E2 =    -0.2599646757D+01 EUMP2 =    -0.87093593440285D+03

 The electronic state is 1-A.
 Alpha  occ. eigenvalues --  -20.61389 -20.61378 -20.61260 -20.61252 -15.86448
 Alpha  occ. eigenvalues --  -15.86317 -11.31944 -11.31823 -11.28609 -11.28499
 Alpha  occ. eigenvalues --  -11.28424 -11.28373 -11.28343 -11.28306 -11.27738
 Alpha  occ. eigenvalues --  -11.27553 -11.27522 -11.27447  -1.60459  -1.60330
 Alpha  occ. eigenvalues --   -1.40009  -1.39880  -1.20147  -1.20022  -1.09520
 Alpha  occ. eigenvalues --   -1.09418  -1.05589  -1.05440  -0.96325  -0.96225
 Alpha  occ. eigenvalues --   -0.86987  -0.86846  -0.83177  -0.83040  -0.78195
 Alpha  occ. eigenvalues --   -0.78042  -0.72663  -0.72534  -0.71784  -0.71654
 Alpha  occ. eigenvalues --   -0.71265  -0.71211  -0.65810  -0.65727  -0.65642
 Alpha  occ. eigenvalues --   -0.65417  -0.62951  -0.62773  -0.56163  -0.55975
 Alpha  occ. eigenvalues --   -0.53886  -0.53769  -0.53681  -0.53546  -0.49433
 Alpha  occ. eigenvalues --   -0.49409  -0.49305  -0.49278  -0.45386  -0.45253
 Alpha  occ. eigenvalues --   -0.38128  -0.38044  -0.37186  -0.37029
 Alpha virt. eigenvalues --    0.04376   0.04484   0.10461   0.10607   0.15827
 Alpha virt. eigenvalues --    0.15906   0.17183   0.22050   0.24478   0.26035
 Alpha virt. eigenvalues --    0.27716   0.28794   0.29795   0.31335   0.31931

 Mulliken charges:
               1
     1  C   -0.173575
     2  C   -0.218893
     3  C   -0.169966
     4  C    0.159292
     5  C   -0.169795
     6  C   -0.217746
     7  H    0.220696
     8  H    0.217834
     9  H    0.276974
    10  H    0.278229
    11  H    0.226775
    12  N    0.487914
    13  O   -0.458192
    14  O   -0.459274
    15  C   -0.171301
    16  C   -0.221203
    17  C   -0.171026
    18  C    0.159164
    19  C   -0.169466
    20  C   -0.218058
    21  H    0.226092
    22  H    0.216313
    23  H    0.274131
    24  H    0.278350
    25  H    0.226455
    26  N    0.488147
    27  O   -0.457901
    28  O   -0.459969
 Sum of Mulliken charges =  -0.00000

 Dipole moment (field-independent basis, Debye):
    X=             -1.5213    Y=              2.6486    Z=             -1.0181  Tot=              3.2196
 Quadrupole moment (field-independent basis, Debye-Ang):
   XX=           -182.1840   YY=            -98.1932   ZZ=           -105.8179
   XY=            -26.1596   XZ=              2.3148   YZ=              1.7319

 Normal termination of Gaussian 16 at Wed May  5 20:58:18 2021.
