 Gaussian 16, Revision A.03,
 Gaussian 16:  EM64L-G16RevA.03 25-Dec-2016

 -------------
 #p 6-31g* mp2
 -------------

 ------------------------------------------------------
 Input file generated by CHIRIPA (05-May-2021 14:53:13)
 ------------------------------------------------------
 Symbolic Z-matrix:
 Charge =  0 Multiplicity = 1

                         Standard orientation:
 ---------------------------------------------------------------------
 Center     Atomic      Atomic             Coordinates (Angstroms)
 Number     Number       Type             X           Y           Z
 ---------------------------------------------------------------------
      1          6           0        3.421433    0.773459    0.145163
      2          6           0        3.159944    2.056684   -0.644105
      3          6           0        2.192584    3.002279    0.068537
      4          1           0        2.467199    0.258759    0.322550
      5          1           0        3.824064    1.034816    1.133584
      6          1           0        2.759224    1.792930   -1.631260
      7          1           0        4.114933    2.568291   -0.819800
      8          1           0        2.589324    3.294187    1.046283
      9          1           0        1.225912    2.514420    0.230213
     10          1           0        2.019841    3.913117   -0.513179
     11          6           0        4.386578   -0.181990   -0.554365
     12          6           0        4.648068   -1.465214    0.234903
     13          6           0        5.615427   -2.410810   -0.477739
     14          1           0        3.983948   -0.443347   -1.542786
     15          1           0        5.340812    0.332710   -0.731752
     16          1           0        3.693078   -1.976822    0.410598
     17          1           0        5.048788   -1.201460    1.222057
     18          1           0        6.582099   -1.922951   -0.639416
     19          1           0        5.218687   -2.702717   -1.455486
     20          1           0        5.788170   -3.321648    0.103977
     21          6           0       -0.750259   -0.097543    1.189056
     22          6           0       -1.437746    1.074521    0.857168
     23          6           0       -2.712490    1.012532    0.286438
     24          6           0       -3.272335   -0.243949    0.060344
     25          6           0       -2.612616   -1.429635    0.380046
     26          6           0       -1.338852   -1.343683    0.949857
     27          1           0        0.239612   -0.040082    1.632057
     28          1           0       -0.983096    2.043670    1.041802
     29          1           0       -3.266988    1.904085    0.019825
     30          1           0       -3.091739   -2.381189    0.184079
     31          1           0       -0.807275   -2.255583    1.206592
     32          7           0       -4.621331   -0.322258   -0.543376
     33          8           0       -5.092684   -1.441496   -0.732506
     34          8           0       -5.181778    0.737084   -0.816010
 ---------------------------------------------------------------------

 SCF Done:  E(RHF) =  -669.535316222     A.U. after   15 cycles
 E2 =    -0.2092158663D+01 EUMP2 =    -0.67162747488559D+03

 The electronic state is 1-A.
 Alpha  occ. eigenvalues --  -20.60773 -20.60768 -15.85827 -11.31205 -11.27773
 Alpha  occ. eigenvalues --  -11.27764 -11.27493 -11.26787 -11.26759 -11.22470
 Alpha  occ. eigenvalues --  -11.22359 -11.22352 -11.22137 -11.22099 -11.21669
 Alpha  occ. eigenvalues --   -1.59848  -1.39401  -1.19376  -1.09278  -1.08767
 Alpha  occ. eigenvalues --   -1.04780  -1.04348  -0.96814  -0.95601  -0.87835
 Alpha  occ. eigenvalues --   -0.86177  -0.82431  -0.80425  -0.79107  -0.77479
 Alpha  occ. eigenvalues --   -0.72045  -0.71171  -0.70485  -0.65916  -0.65026
 Alpha  occ. eigenvalues --   -0.64798  -0.62183  -0.61689  -0.60173  -0.58422
 Alpha  occ. eigenvalues --   -0.56148  -0.55256  -0.53481  -0.53296  -0.53101
 Alpha  occ. eigenvalues --   -0.52820  -0.50733  -0.48815  -0.48799  -0.48716
 Alpha  occ. eigenvalues --   -0.47441  -0.46642  -0.46540  -0.44804  -0.44608
 Alpha  occ. eigenvalues --   -0.37338  -0.36375
 Alpha virt. eigenvalues --    0.05024   0.11144   0.16409   0.19797   0.22477
 Alpha virt. eigenvalues --    0.23675   0.25185   0.25658   0.26369   0.28102
 Alpha virt. eigenvalues --    0.29457   0.29893   0.30969   0.31226   0.31547

 Mulliken charges:
               1
     1  C   -0.302433
     2  C   -0.299159
     3  C   -0.482027
     4  H    0.144002
     5  H    0.149696
     6  H    0.156242
     7  H    0.155894
     8  H    0.156122
     9  H    0.148648
    10  H    0.165465
    11  C   -0.298668
    12  C   -0.299431
    13  C   -0.476200
    14  H    0.152432
    15  H    0.152674
    16  H    0.147359
    17  H    0.152325
    18  H    0.157101
    19  H    0.156831
    20  H    0.161460
    21  C   -0.173845
    22  C   -0.222007
    23  C   -0.171437
    24  C    0.158670
    25  C   -0.170805
    26  C   -0.219561
    27  H    0.230404
    28  H    0.227737
    29  H    0.275960
    30  H    0.275667
    31  H    0.223489
    32  N    0.488021
    33  O   -0.460382
    34  O   -0.460244
 Sum of Mulliken charges =  -0.00000

 Dipole moment (field-independent basis, Debye):
    X=              4.9222    Y=              0.2922    Z=              2.0375  Tot=              5.3353
 Quadrupole moment (field-independent basis, Debye-Ang):
   XX=           -125.5503   YY=            -90.0798   ZZ=            -95.2181
   XY=             -1.3596   XZ=             -6.3739   YZ=             -0.9206

 Normal termination of Gaussian 16 at Thu May  6 04:09:05 2021.
