 Gaussian 16, Revision A.03,
 Gaussian 16:  EM64L-G16RevA.03 25-Dec-2016

 -------------
 #p 6-31g* mp2
 -------------

 ------------------------------------------------------
 Input file generated by CHIRIPA (05-May-2021 14:57:24)
 ------------------------------------------------------
 Symbolic Z-matrix:
 Charge =  0 Multiplicity = 1

                         Standard orientation:
 ---------------------------------------------------------------------
 Center     Atomic      Atomic             Coordinates (Angstroms)
 Number     Number       Type             X           Y           Z
 ---------------------------------------------------------------------
      1          6           0       -0.328519    2.533123    0.370401
      2          6           0       -1.002947    2.304995   -0.833603
      3          6           0       -1.968799    1.298514   -0.926732
      4          6           0       -2.236428    0.535603    0.208888
      5          6           0       -1.581475    0.738605    1.422608
      6          6           0       -0.619423    1.750580    1.492686
      7          1           0        0.420302    3.317116    0.433793
      8          1           0       -0.779081    2.911178   -1.706798
      9          1           0       -2.505915    1.100474   -1.846354
     10          1           0       -1.826278    0.118001    2.276037
     11          1           0       -0.097226    1.925501    2.429039
     12          7           0       -3.256921   -0.532822    0.122498
     13          8           0       -3.474431   -1.191160    1.137346
     14          8           0       -3.819950   -0.691683   -0.958426
     15          6           0        3.932570    0.959953    0.086380
     16          6           0        2.949913    1.179126   -0.884634
     17          6           0        1.912302    0.259660   -1.064898
     18          6           0        1.888001   -0.873301   -0.253047
     19          6           0        2.852364   -1.119780    0.722934
     20          6           0        3.880751   -0.186779    0.885656
     21          1           0        4.735028    1.679472    0.219599
     22          1           0        2.987628    2.068808   -1.506798
     23          1           0        1.138606    0.404531   -1.809091
     24          1           0        2.788135   -2.015974    1.328021
     25          1           0        4.642539   -0.359593    1.640547
     26          7           0        0.794412   -1.853862   -0.434599
     27          8           0        0.795488   -2.844138    0.293404
     28          8           0       -0.043113   -1.613583   -1.301464
 ---------------------------------------------------------------------

 SCF Done:  E(RHF) =  -868.335011698     A.U. after   16 cycles
 E2 =    -0.2606704738D+01 EUMP2 =    -0.87094171643627D+03

 The electronic state is 1-A.
 Alpha  occ. eigenvalues --  -20.60960 -20.60932 -20.59979 -20.59965 -15.85988
 Alpha  occ. eigenvalues --  -15.85049 -11.31448 -11.30767 -11.28102 -11.28076
 Alpha  occ. eigenvalues --  -11.27925 -11.27445 -11.27440 -11.27342 -11.27159
 Alpha  occ. eigenvalues --  -11.27112 -11.26595 -11.26546  -1.60012  -1.59020
 Alpha  occ. eigenvalues --   -1.39567  -1.38575  -1.19700  -1.19042  -1.09071
 Alpha  occ. eigenvalues --   -1.08374  -1.05132  -1.04529  -0.95879  -0.95136
 Alpha  occ. eigenvalues --   -0.86524  -0.85902  -0.82718  -0.81990  -0.77742
 Alpha  occ. eigenvalues --   -0.76937  -0.72229  -0.71405  -0.71291  -0.70830
 Alpha  occ. eigenvalues --   -0.70242  -0.70182  -0.65355  -0.65156  -0.64703
 Alpha  occ. eigenvalues --   -0.64561  -0.62495  -0.61861  -0.55657  -0.55066
 Alpha  occ. eigenvalues --   -0.53816  -0.53262  -0.52631  -0.52447  -0.48971
 Alpha  occ. eigenvalues --   -0.48959  -0.48067  -0.48002  -0.44948  -0.43907
 Alpha  occ. eigenvalues --   -0.37839  -0.37593  -0.36133  -0.35938
 Alpha virt. eigenvalues --    0.04613   0.05834   0.10830   0.11454   0.16198
 Alpha virt. eigenvalues --    0.17037   0.20563   0.21817   0.26399   0.27417
 Alpha virt. eigenvalues --    0.28292   0.28527   0.30583   0.30977   0.32328

 Mulliken charges:
               1
     1  C   -0.166776
     2  C   -0.233033
     3  C   -0.160317
     4  C    0.170121
     5  C   -0.176417
     6  C   -0.218843
     7  H    0.218974
     8  H    0.217371
     9  H    0.277762
    10  H    0.277650
    11  H    0.220848
    12  N    0.492144
    13  O   -0.460311
    14  O   -0.457616
    15  C   -0.172188
    16  C   -0.225084
    17  C   -0.159322
    18  C    0.158007
    19  C   -0.171586
    20  C   -0.220841
    21  H    0.224624
    22  H    0.217982
    23  H    0.274981
    24  H    0.277071
    25  H    0.223657
    26  N    0.487479
    27  O   -0.455845
    28  O   -0.460492
 Sum of Mulliken charges =  -0.00000

 Dipole moment (field-independent basis, Debye):
    X=              7.1883    Y=              6.8367    Z=              0.9218  Tot=              9.9630
 Quadrupole moment (field-independent basis, Debye-Ang):
   XX=           -106.7812   YY=           -106.6570   ZZ=            -98.2709
   XY=             -4.7075   XZ=              3.0674   YZ=             -4.0842

 Normal termination of Gaussian 16 at Thu May  6 00:20:20 2021.
