 Gaussian 16, Revision A.03,
 Gaussian 16:  EM64L-G16RevA.03 25-Dec-2016

 -------------
 #p 6-31g* mp2
 -------------

 ------------------------------------------------------
 Input file generated by CHIRIPA (05-May-2021 14:51:09)
 ------------------------------------------------------
 Symbolic Z-matrix:
 Charge =  0 Multiplicity = 1

                         Standard orientation:
 ---------------------------------------------------------------------
 Center     Atomic      Atomic             Coordinates (Angstroms)
 Number     Number       Type             X           Y           Z
 ---------------------------------------------------------------------
      1          6           0       -5.302641   -0.055055    0.263341
      2          6           0       -6.118379   -1.094254   -0.506478
      3          6           0       -7.618860   -0.989651   -0.231874
      4          1           0       -5.489209   -0.175461    1.339277
      5          1           0       -5.656171    0.950237   -0.004616
      6          1           0       -5.762488   -2.097240   -0.238193
      7          1           0       -5.929700   -0.971484   -1.580696
      8          1           0       -7.994676   -0.001626   -0.516778
      9          1           0       -7.826514   -1.133778    0.833353
     10          1           0       -8.182941   -1.741731   -0.792273
     11          6           0       -3.800798   -0.146935   -0.000764
     12          6           0       -2.985060    0.892265    0.769055
     13          6           0       -1.484579    0.787661    0.494451
     14          1           0       -3.447268   -1.152226    0.267193
     15          1           0       -3.614230   -0.026528   -1.076701
     16          1           0       -3.173739    0.769495    1.843273
     17          1           0       -3.340951    1.895251    0.500770
     18          1           0       -1.276925    0.931788   -0.570776
     19          1           0       -1.108763   -0.200364    0.779354
     20          1           0       -0.920498    1.539742    1.054850
     21          6           0        3.862668    0.274378   -0.411607
     22          6           0        3.401818    1.688401   -0.056443
     23          6           0        2.021583    2.020440   -0.624329
     24          1           0        3.878123    0.164300   -1.504580
     25          1           0        3.126438   -0.449156   -0.034966
     26          1           0        4.139396    2.408975   -0.432433
     27          1           0        3.387643    1.795186    1.035808
     28          1           0        1.269134    1.324389   -0.239709
     29          1           0        2.025158    1.941664   -1.716292
     30          1           0        1.711749    3.035908   -0.358457
     31          6           0        5.240770   -0.072389    0.149030
     32          6           0        5.701621   -1.486411   -0.206134
     33          6           0        7.081856   -1.818450    0.361753
     34          1           0        5.977001    0.651145   -0.227610
     35          1           0        5.225316    0.037689    1.242003
     36          1           0        5.715796   -1.593197   -1.298385
     37          1           0        4.964043   -2.206986    0.169856
     38          1           0        7.078280   -1.739675    1.453716
     39          1           0        7.834305   -1.122398   -0.022867
     40          1           0        7.391690   -2.833918    0.095881
 ---------------------------------------------------------------------

 SCF Done:  E(RHF) =  -470.732927938     A.U. after   11 cycles
 E2 =    -0.1582425418D+01 EUMP2 =    -0.47231535335585D+03

 The electronic state is 1-A.
 Alpha  occ. eigenvalues --  -11.21599 -11.21592 -11.21569 -11.21512 -11.21402
 Alpha  occ. eigenvalues --  -11.21353 -11.21342 -11.21291 -11.21069 -11.21060
 Alpha  occ. eigenvalues --  -11.21047 -11.20887  -1.08429  -1.08370  -1.03541
 Alpha  occ. eigenvalues --   -1.03451  -0.96027  -0.95871  -0.87091  -0.86848
 Alpha  occ. eigenvalues --   -0.79675  -0.79456  -0.78247  -0.78177  -0.65059
 Alpha  occ. eigenvalues --   -0.65003  -0.60947  -0.60858  -0.59361  -0.59274
 Alpha  occ. eigenvalues --   -0.57605  -0.57511  -0.55331  -0.55168  -0.52822
 Alpha  occ. eigenvalues --   -0.52570  -0.52442  -0.52205  -0.49975  -0.49762
 Alpha  occ. eigenvalues --   -0.47972  -0.47779  -0.46651  -0.46530  -0.45809
 Alpha  occ. eigenvalues --   -0.45717  -0.45694  -0.45628  -0.43776  -0.43687
 Alpha virt. eigenvalues --    0.22631   0.22939   0.23763   0.24684   0.26340
 Alpha virt. eigenvalues --    0.26601   0.27032   0.27517   0.27672   0.29015
 Alpha virt. eigenvalues --    0.30772   0.31210   0.31565   0.31994   0.32071

 Mulliken charges:
               1
     1  C   -0.298309
     2  C   -0.299615
     3  C   -0.475702
     4  H    0.149598
     5  H    0.149570
     6  H    0.151881
     7  H    0.151978
     8  H    0.155199
     9  H    0.155152
    10  H    0.160249
    11  C   -0.298499
    12  C   -0.300554
    13  C   -0.478105
    14  H    0.149348
    15  H    0.149821
    16  H    0.151675
    17  H    0.152212
    18  H    0.157532
    19  H    0.154041
    20  H    0.162042
    21  C   -0.298265
    22  C   -0.299278
    23  C   -0.484034
    24  H    0.149432
    25  H    0.149544
    26  H    0.151214
    27  H    0.151288
    28  H    0.168664
    29  H    0.153679
    30  H    0.158747
    31  C   -0.298213
    32  C   -0.299593
    33  C   -0.475665
    34  H    0.149425
    35  H    0.149496
    36  H    0.151869
    37  H    0.151814
    38  H    0.155104
    39  H    0.155138
    40  H    0.160119
 Sum of Mulliken charges =  -0.00000

 Dipole moment (field-independent basis, Debye):
    X=             -0.0405    Y=             -0.0048    Z=              0.0015  Tot=              0.0408
 Quadrupole moment (field-independent basis, Debye-Ang):
   XX=            -87.0416   YY=            -84.4683   ZZ=            -83.5754
   XY=              0.3364   XZ=             -0.4960   YZ=             -0.6767

 Normal termination of Gaussian 16 at Wed May  5 16:38:44 2021.
