 Gaussian 16, Revision A.03,
 Gaussian 16:  EM64L-G16RevA.03 25-Dec-2016

 -------------
 #p 6-31g* mp2
 -------------

 ------------------------------------------------------
 Input file generated by CHIRIPA (05-May-2021 14:53:16)
 ------------------------------------------------------
 Symbolic Z-matrix:
 Charge =  0 Multiplicity = 1

                         Standard orientation:
 ---------------------------------------------------------------------
 Center     Atomic      Atomic             Coordinates (Angstroms)
 Number     Number       Type             X           Y           Z
 ---------------------------------------------------------------------
      1          6           0        2.576679   -0.875330   -0.904840
      2          6           0        1.051766   -0.958634   -0.829438
      3          6           0        0.467332   -1.987460   -1.797812
      4          1           0        2.873445   -0.623871   -1.932285
      5          1           0        3.002085   -1.865430   -0.690068
      6          1           0        0.629415    0.031647   -1.042929
      7          1           0        0.758589   -1.209737    0.197991
      8          1           0        0.860982   -2.986129   -1.582633
      9          1           0        0.731074   -1.737692   -2.830603
     10          1           0       -0.624012   -2.030526   -1.727290
     11          6           0        3.175762    0.148863    0.057374
     12          6           0        4.700675    0.232167   -0.018028
     13          6           0        5.285109    1.260993    0.950346
     14          1           0        2.750357    1.138963   -0.157398
     15          1           0        2.878997   -0.102597    1.084819
     16          1           0        4.993853    0.483269   -1.045457
     17          1           0        5.123027   -0.758115    0.195463
     18          1           0        5.021368    1.011224    1.983137
     19          1           0        4.891460    2.259661    0.735167
     20          1           0        6.376453    1.304058    0.879824
     21          6           0       -2.445926    2.478680   -0.897278
     22          6           0       -2.964845    1.309871   -1.463960
     23          6           0       -2.860339    0.088160   -0.792359
     24          6           0       -2.227821    0.071581    0.449790
     25          6           0       -1.700769    1.218970    1.040557
     26          6           0       -1.816654    2.429586    0.350971
     27          1           0       -2.531528    3.423425   -1.425980
     28          1           0       -3.454060    1.345007   -2.433228
     29          1           0       -3.253209   -0.831803   -1.207977
     30          1           0       -1.218512    1.152431    2.008245
     31          1           0       -1.412725    3.335715    0.793485
     32          7           0       -2.111161   -1.215916    1.170304
     33          8           0       -1.549340   -1.203917    2.263396
     34          8           0       -2.583755   -2.212677    0.628309
 ---------------------------------------------------------------------

 SCF Done:  E(RHF) =  -669.535578716     A.U. after   15 cycles
 E2 =    -0.2094491377D+01 EUMP2 =    -0.67163007009316D+03

 The electronic state is 1-A.
 Alpha  occ. eigenvalues --  -20.60910 -20.60897 -15.85910 -11.31202 -11.27793
 Alpha  occ. eigenvalues --  -11.27774 -11.27546 -11.26815 -11.26805 -11.21516
 Alpha  occ. eigenvalues --  -11.21288 -11.21261 -11.21150 -11.21047 -11.20678
 Alpha  occ. eigenvalues --   -1.59956  -1.39514  -1.19403  -1.08813  -1.08252
 Alpha  occ. eigenvalues --   -1.04801  -1.03346  -0.95797  -0.95651  -0.86809
 Alpha  occ. eigenvalues --   -0.86199  -0.82490  -0.79430  -0.78095  -0.77544
 Alpha  occ. eigenvalues --   -0.72148  -0.71277  -0.70521  -0.65061  -0.64877
 Alpha  occ. eigenvalues --   -0.64809  -0.62156  -0.60733  -0.59177  -0.57436
 Alpha  occ. eigenvalues --   -0.55311  -0.55077  -0.53132  -0.52902  -0.52441
 Alpha  occ. eigenvalues --   -0.52227  -0.49728  -0.48918  -0.48903  -0.47752
 Alpha  occ. eigenvalues --   -0.46451  -0.45659  -0.45533  -0.44821  -0.43573
 Alpha  occ. eigenvalues --   -0.37342  -0.36382
 Alpha virt. eigenvalues --    0.04954   0.11168   0.16466   0.21259   0.23058
 Alpha virt. eigenvalues --    0.24326   0.26733   0.26929   0.27336   0.28125
 Alpha virt. eigenvalues --    0.28439   0.30431   0.31378   0.31646   0.31970

 Mulliken charges:
               1
     1  C   -0.297089
     2  C   -0.311269
     3  C   -0.477579
     4  H    0.147328
     5  H    0.151995
     6  H    0.150965
     7  H    0.159136
     8  H    0.159775
     9  H    0.149802
    10  H    0.162602
    11  C   -0.298701
    12  C   -0.299444
    13  C   -0.475588
    14  H    0.144713
    15  H    0.153002
    16  H    0.150779
    17  H    0.153622
    18  H    0.156138
    19  H    0.152433
    20  H    0.160201
    21  C   -0.171126
    22  C   -0.218768
    23  C   -0.172155
    24  C    0.163161
    25  C   -0.170360
    26  C   -0.218919
    27  H    0.225765
    28  H    0.223757
    29  H    0.275351
    30  H    0.275676
    31  H    0.223725
    32  N    0.489824
    33  O   -0.459656
    34  O   -0.459094
 Sum of Mulliken charges =  -0.00000

 Dipole moment (field-independent basis, Debye):
    X=             -0.4969    Y=              4.4782    Z=             -2.4513  Tot=              5.1293
 Quadrupole moment (field-independent basis, Debye-Ang):
   XX=            -92.8624   YY=            -93.3588   ZZ=            -94.6122
   XY=             -9.6376   XZ=              7.4260   YZ=              2.7619

 Normal termination of Gaussian 16 at Thu May  6 10:37:58 2021.
