 Gaussian 16, Revision A.03,
 Gaussian 16:  EM64L-G16RevA.03 25-Dec-2016

 -------------
 #p 6-31g* mp2
 -------------

 ------------------------------------------------------
 Input file generated by CHIRIPA (05-May-2021 14:57:22)
 ------------------------------------------------------
 Symbolic Z-matrix:
 Charge =  0 Multiplicity = 1

                         Standard orientation:
 ---------------------------------------------------------------------
 Center     Atomic      Atomic             Coordinates (Angstroms)
 Number     Number       Type             X           Y           Z
 ---------------------------------------------------------------------
      1          6           0        1.964438    2.349014   -0.089668
      2          6           0        3.259260    2.293253   -0.615831
      3          6           0        3.966274    1.087315   -0.635653
      4          6           0        3.345256   -0.048648   -0.118726
      5          6           0        2.056535   -0.025207    0.412253
      6          6           0        1.368259    1.191647    0.421793
      7          1           0        1.422491    3.290056   -0.078263
      8          1           0        3.724761    3.190493   -1.013717
      9          1           0        4.969866    1.015809   -1.037035
     10          1           0        1.618843   -0.936335    0.801726
     11          1           0        0.362807    1.231982    0.831042
     12          7           0        4.083821   -1.331099   -0.134268
     13          8           0        3.514463   -2.317773    0.327190
     14          8           0        5.218082   -1.325327   -0.607614
     15          6           0       -4.178374   -0.397103   -2.207467
     16          6           0       -4.078238    0.866483   -1.615991
     17          6           0       -3.550807    1.008231   -0.329028
     18          6           0       -3.131221   -0.140055    0.340804
     19          6           0       -3.217992   -1.412638   -0.221595
     20          6           0       -3.748689   -1.530632   -1.509612
     21          1           0       -4.589365   -0.497988   -3.207619
     22          1           0       -4.411150    1.748548   -2.155600
     23          1           0       -3.461817    1.974421    0.152611
     24          1           0       -2.877826   -2.273482    0.341124
     25          1           0       -3.825254   -2.513212   -1.966472
     26          7           0       -2.571124   -0.002568    1.703811
     27          8           0       -2.208479   -1.029778    2.272988
     28          8           0       -2.505372    1.129804    2.177151
 ---------------------------------------------------------------------

 SCF Done:  E(RHF) =  -868.339109361     A.U. after   16 cycles
 E2 =    -0.2599189596D+01 EUMP2 =    -0.87093829895613D+03

 The electronic state is 1-A.
 Alpha  occ. eigenvalues --  -20.61731 -20.61706 -20.60432 -20.60422 -15.86735
 Alpha  occ. eigenvalues --  -15.85479 -11.31882 -11.30774 -11.28450 -11.28379
 Alpha  occ. eigenvalues --  -11.28091 -11.27387 -11.27365 -11.27330 -11.27266
 Alpha  occ. eigenvalues --  -11.27066 -11.26383 -11.26239  -1.60799  -1.59508
 Alpha  occ. eigenvalues --   -1.40350  -1.39062  -1.20029  -1.18937  -1.09464
 Alpha  occ. eigenvalues --   -1.08349  -1.05388  -1.04319  -0.96331  -0.95195
 Alpha  occ. eigenvalues --   -0.86797  -0.85721  -0.83160  -0.82023  -0.78246
 Alpha  occ. eigenvalues --   -0.77078  -0.72938  -0.72140  -0.71699  -0.71117
 Alpha  occ. eigenvalues --   -0.70830  -0.70049  -0.65674  -0.65376  -0.64586
 Alpha  occ. eigenvalues --   -0.64302  -0.62735  -0.61651  -0.55881  -0.54836
 Alpha  occ. eigenvalues --   -0.53737  -0.53468  -0.52669  -0.52399  -0.49727
 Alpha  occ. eigenvalues --   -0.49683  -0.48458  -0.48452  -0.45779  -0.44483
 Alpha  occ. eigenvalues --   -0.37994  -0.36982  -0.36928  -0.35922
 Alpha virt. eigenvalues --    0.04241   0.05439   0.10658   0.11730   0.15771
 Alpha virt. eigenvalues --    0.16947   0.20840   0.21807   0.26781   0.27168
 Alpha virt. eigenvalues --    0.27972   0.28734   0.30428   0.31225   0.31969

 Mulliken charges:
               1
     1  C   -0.172117
     2  C   -0.218849
     3  C   -0.172091
     4  C    0.158108
     5  C   -0.172465
     6  C   -0.222700
     7  H    0.224724
     8  H    0.221251
     9  H    0.273852
    10  H    0.279404
    11  H    0.231608
    12  N    0.487976
    13  O   -0.460151
    14  O   -0.462354
    15  C   -0.169600
    16  C   -0.218082
    17  C   -0.173469
    18  C    0.154547
    19  C   -0.170674
    20  C   -0.217884
    21  H    0.228496
    22  H    0.224727
    23  H    0.273649
    24  H    0.278501
    25  H    0.227457
    26  N    0.484917
    27  O   -0.455162
    28  O   -0.463620
 Sum of Mulliken charges =  -0.00000

 Dipole moment (field-independent basis, Debye):
    X=             -4.8776    Y=              3.8881    Z=             -4.7909  Tot=              7.8652
 Quadrupole moment (field-independent basis, Debye-Ang):
   XX=           -107.6896   YY=            -99.6053   ZZ=           -108.2848
   XY=             18.7139   XZ=             13.7493   YZ=             -1.3809

 Normal termination of Gaussian 16 at Fri May  7 01:44:41 2021.
