 Gaussian 16, Revision A.03,
 Gaussian 16:  EM64L-G16RevA.03 25-Dec-2016

 -------------
 #p 6-31g* mp2
 -------------

 ------------------------------------------------------
 Input file generated by CHIRIPA (05-May-2021 14:55:24)
 ------------------------------------------------------
 Symbolic Z-matrix:
 Charge =  0 Multiplicity = 1

                         Standard orientation:
 ---------------------------------------------------------------------
 Center     Atomic      Atomic             Coordinates (Angstroms)
 Number     Number       Type             X           Y           Z
 ---------------------------------------------------------------------
      1          6           0       -4.194048    2.348642    0.585598
      2          6           0       -4.611391    1.720969   -0.592695
      3          6           0       -4.091971    0.474780   -0.955685
      4          6           0       -3.152630   -0.117814   -0.113212
      5          6           0       -2.716874    0.482263    1.067176
      6          6           0       -3.249786    1.728379    1.410318
      7          1           0       -4.602787    3.316683    0.859869
      8          1           0       -5.344583    2.200326   -1.235106
      9          1           0       -4.397463   -0.033458   -1.862210
     10          1           0       -1.984577   -0.020328    1.687307
     11          1           0       -2.923827    2.213499    2.325990
     12          7           0       -2.595602   -1.437060   -0.486988
     13          8           0       -1.769235   -1.938245    0.272334
     14          8           0       -2.995917   -1.944920   -1.532197
     15          6           0        3.505731   -0.510028   -0.069257
     16          6           0        3.192910   -1.566605    0.990824
     17          6           0        1.895202   -2.323416    0.706241
     18          1           0        2.670124    0.200865   -0.127028
     19          1           0        3.571518   -0.995662   -1.052733
     20          1           0        3.129100   -1.079329    1.972204
     21          1           0        4.029444   -2.274955    1.046213
     22          1           0        1.951741   -2.835385   -0.259829
     23          1           0        1.046281   -1.632966    0.671423
     24          1           0        1.690881   -3.073741    1.476388
     25          6           0        4.800023    0.255015    0.201376
     26          6           0        5.112845    1.311593   -0.858705
     27          6           0        6.410552    2.068404   -0.574122
     28          1           0        4.734236    0.740651    1.184853
     29          1           0        5.635631   -0.455877    0.259147
     30          1           0        4.276311    2.019943   -0.914094
     31          1           0        5.176654    0.824317   -1.840085
     32          1           0        7.259473    1.377954   -0.539304
     33          1           0        6.354014    2.580373    0.391948
     34          1           0        6.614874    2.818729   -1.344269
 ---------------------------------------------------------------------

 SCF Done:  E(RHF) =  -669.535746847     A.U. after   15 cycles
 E2 =    -0.2090861836D+01 EUMP2 =    -0.67162660868278D+03

 The electronic state is 1-A.
 Alpha  occ. eigenvalues --  -20.60873 -20.60867 -15.85904 -11.31263 -11.27833
 Alpha  occ. eigenvalues --  -11.27826 -11.27572 -11.26846 -11.26836 -11.21340
 Alpha  occ. eigenvalues --  -11.21023 -11.20891 -11.20881 -11.20831 -11.19859
 Alpha  occ. eigenvalues --   -1.59935  -1.39490  -1.19435  -1.08832  -1.07959
 Alpha  occ. eigenvalues --   -1.04837  -1.02975  -0.95672  -0.95387  -0.86394
 Alpha  occ. eigenvalues --   -0.86235  -0.82501  -0.79051  -0.77757  -0.77543
 Alpha  occ. eigenvalues --   -0.72127  -0.71251  -0.70544  -0.65091  -0.64840
 Alpha  occ. eigenvalues --   -0.64601  -0.62185  -0.60379  -0.58816  -0.57003
 Alpha  occ. eigenvalues --   -0.55339  -0.54677  -0.53167  -0.52929  -0.52064
 Alpha  occ. eigenvalues --   -0.51800  -0.49349  -0.48886  -0.48870  -0.47352
 Alpha  occ. eigenvalues --   -0.46123  -0.45322  -0.45233  -0.44776  -0.43237
 Alpha  occ. eigenvalues --   -0.37415  -0.36440
 Alpha virt. eigenvalues --    0.04952   0.11210   0.16421   0.21259   0.23270
 Alpha virt. eigenvalues --    0.24784   0.26861   0.27265   0.27752   0.28028
 Alpha virt. eigenvalues --    0.28931   0.30668   0.31752   0.32176   0.32476

 Mulliken charges:
               1
     1  C   -0.170717
     2  C   -0.218510
     3  C   -0.170870
     4  C    0.158308
     5  C   -0.171421
     6  C   -0.218519
     7  H    0.225872
     8  H    0.223740
     9  H    0.275851
    10  H    0.275744
    11  H    0.223688
    12  N    0.489694
    13  O   -0.460218
    14  O   -0.459322
    15  C   -0.296894
    16  C   -0.301025
    17  C   -0.475198
    18  H    0.146593
    19  H    0.150662
    20  H    0.146278
    21  H    0.149244
    22  H    0.156545
    23  H    0.166132
    24  H    0.158866
    25  C   -0.297516
    26  C   -0.299053
    27  C   -0.475329
    28  H    0.147127
    29  H    0.149484
    30  H    0.150073
    31  H    0.152440
    32  H    0.155299
    33  H    0.153884
    34  H    0.159069
 Sum of Mulliken charges =  -0.00000

 Dipole moment (field-independent basis, Debye):
    X=             -2.1930    Y=              4.5809    Z=              1.2690  Tot=              5.2349
 Quadrupole moment (field-independent basis, Debye-Ang):
   XX=            -82.6115   YY=            -96.3697   ZZ=            -91.7096
   XY=            -15.7503   XZ=             -1.7480   YZ=             -0.1680

 Normal termination of Gaussian 16 at Thu May  6 06:21:32 2021.
