 Gaussian 16, Revision A.03,
 Gaussian 16:  EM64L-G16RevA.03 25-Dec-2016

 -------------
 #p 6-31g* mp2
 -------------

 ------------------------------------------------------
 Input file generated by CHIRIPA (05-May-2021 14:53:16)
 ------------------------------------------------------
 Symbolic Z-matrix:
 Charge =  0 Multiplicity = 1

                         Standard orientation:
 ---------------------------------------------------------------------
 Center     Atomic      Atomic             Coordinates (Angstroms)
 Number     Number       Type             X           Y           Z
 ---------------------------------------------------------------------
      1          6           0        4.867160   -0.116231    0.391155
      2          6           0        5.820363   -0.860491   -0.544508
      3          6           0        6.764540   -1.803712    0.201589
      4          1           0        5.453988    0.454240    1.124055
      5          1           0        4.279684   -0.848099    0.962675
      6          1           0        6.404890   -0.127430   -1.115091
      7          1           0        5.231199   -1.429104   -1.275384
      8          1           0        6.196750   -2.556818    0.757507
      9          1           0        7.377109   -1.247748    0.918711
     10          1           0        7.437113   -2.325436   -0.486386
     11          6           0        3.916981    0.830553   -0.339932
     12          6           0        2.963779    1.574814    0.595731
     13          6           0        2.019602    2.518035   -0.150365
     14          1           0        4.504458    1.562422   -0.911451
     15          1           0        3.330154    0.260083   -1.072831
     16          1           0        3.552943    2.143427    1.326608
     17          1           0        2.379252    0.841753    1.166315
     18          1           0        1.407033    1.962071   -0.867487
     19          1           0        2.587392    3.271141   -0.706284
     20          1           0        1.347029    3.039759    0.537610
     21          6           0       -0.922530   -0.532374   -0.108254
     22          6           0       -1.738668   -1.666359   -0.041041
     23          6           0       -3.129934   -1.537919    0.008278
     24          6           0       -3.673845   -0.254540   -0.011478
     25          6           0       -2.887340    0.894490   -0.078030
     26          6           0       -1.498455    0.742184   -0.126502
     27          1           0        0.157314   -0.641420   -0.146236
     28          1           0       -1.294164   -2.657446   -0.026723
     29          1           0       -3.785263   -2.398858    0.060677
     30          1           0       -3.359582    1.869294   -0.090768
     31          1           0       -0.867094    1.624628   -0.178663
     32          7           0       -5.145455   -0.105934    0.040285
     33          8           0       -5.600041    1.035836    0.021584
     34          8           0       -5.816452   -1.134040    0.098577
 ---------------------------------------------------------------------

 SCF Done:  E(RHF) =  -669.535266030     A.U. after   15 cycles
 E2 =    -0.2091744099D+01 EUMP2 =    -0.67162701012934D+03

 The electronic state is 1-A.
 Alpha  occ. eigenvalues --  -20.60719 -20.60714 -15.85770 -11.31128 -11.27696
 Alpha  occ. eigenvalues --  -11.27671 -11.27430 -11.26721 -11.26622 -11.22804
 Alpha  occ. eigenvalues --  -11.22446 -11.22435 -11.22337 -11.22240 -11.21686
 Alpha  occ. eigenvalues --   -1.59794  -1.39348  -1.19294  -1.09417  -1.08693
 Alpha  occ. eigenvalues --   -1.04699  -1.04510  -0.96978  -0.95531  -0.88003
 Alpha  occ. eigenvalues --   -0.86089  -0.82362  -0.80587  -0.79179  -0.77410
 Alpha  occ. eigenvalues --   -0.71990  -0.71117  -0.70425  -0.66088  -0.64945
 Alpha  occ. eigenvalues --   -0.64724  -0.62198  -0.61755  -0.60351  -0.58552
 Alpha  occ. eigenvalues --   -0.56268  -0.55209  -0.53697  -0.53384  -0.53024
 Alpha  occ. eigenvalues --   -0.52755  -0.50882  -0.48885  -0.48746  -0.48744
 Alpha  occ. eigenvalues --   -0.47615  -0.46724  -0.46640  -0.44757  -0.44755
 Alpha  occ. eigenvalues --   -0.37280  -0.36293
 Alpha virt. eigenvalues --    0.05113   0.11308   0.16596   0.18434   0.22538
 Alpha virt. eigenvalues --    0.23879   0.25064   0.25849   0.26564   0.28258
 Alpha virt. eigenvalues --    0.29149   0.30006   0.30956   0.31215   0.32032

 Mulliken charges:
               1
     1  C   -0.298515
     2  C   -0.300181
     3  C   -0.476138
     4  H    0.152713
     5  H    0.147651
     6  H    0.153969
     7  H    0.151279
     8  H    0.155101
     9  H    0.156757
    10  H    0.162456
    11  C   -0.299833
    12  C   -0.302099
    13  C   -0.483809
    14  H    0.153938
    15  H    0.146030
    16  H    0.158690
    17  H    0.148504
    18  H    0.149858
    19  H    0.163927
    20  H    0.161727
    21  C   -0.175783
    22  C   -0.218517
    23  C   -0.171333
    24  C    0.158903
    25  C   -0.172016
    26  C   -0.224718
    27  H    0.227314
    28  H    0.222977
    29  H    0.275299
    30  H    0.275669
    31  H    0.233312
    32  N    0.487977
    33  O   -0.460468
    34  O   -0.460641
 Sum of Mulliken charges =  -0.00000

 Dipole moment (field-independent basis, Debye):
    X=              5.4849    Y=             -0.4369    Z=             -0.1638  Tot=              5.5048
 Quadrupole moment (field-independent basis, Debye-Ang):
   XX=           -132.3890   YY=            -89.1343   ZZ=            -95.8133
   XY=              2.4892   XZ=              0.4080   YZ=              0.2256

 Normal termination of Gaussian 16 at Thu May  6 05:56:53 2021.
