 Gaussian 16, Revision A.03,
 Gaussian 16:  EM64L-G16RevA.03 25-Dec-2016

 -------------
 #p 6-31g* mp2
 -------------

 ------------------------------------------------------
 Input file generated by CHIRIPA (05-May-2021 14:55:23)
 ------------------------------------------------------
 Symbolic Z-matrix:
 Charge =  0 Multiplicity = 1

                         Standard orientation:
 ---------------------------------------------------------------------
 Center     Atomic      Atomic             Coordinates (Angstroms)
 Number     Number       Type             X           Y           Z
 ---------------------------------------------------------------------
      1          6           0       -2.524525   -2.623066    0.815258
      2          6           0       -3.754905   -1.990937    0.607654
      3          6           0       -3.807553   -0.687220    0.105562
      4          6           0       -2.604998   -0.042268   -0.179374
      5          6           0       -1.363530   -0.645277    0.016651
      6          6           0       -1.334862   -1.949406    0.519615
      7          1           0       -2.492940   -3.635985    1.205634
      8          1           0       -4.680409   -2.511684    0.836365
      9          1           0       -4.746298   -0.174202   -0.064702
     10          1           0       -0.457766   -0.100605   -0.220715
     11          1           0       -0.377889   -2.437847    0.679843
     12          7           0       -2.648042    1.338138   -0.711378
     13          8           0       -1.574384    1.884757   -0.954491
     14          8           0       -3.754621    1.847341   -0.875176
     15          6           0        3.806260   -0.236644    0.233351
     16          6           0        3.953027   -1.153355   -0.981592
     17          6           0        4.918458   -2.312866   -0.734066
     18          1           0        4.793815    0.158810    0.507754
     19          1           0        3.457428   -0.828784    1.090721
     20          1           0        4.300154   -0.559398   -1.836774
     21          1           0        2.964980   -1.546521   -1.253252
     22          1           0        4.573320   -2.929755    0.101955
     23          1           0        5.916081   -1.937023   -0.484883
     24          1           0        5.008399   -2.955515   -1.615414
     25          6           0        2.844375    0.927269    0.001383
     26          6           0        2.697608    1.843979    1.216326
     27          6           0        1.732177    3.003491    0.968800
     28          1           0        3.193207    1.519408   -0.855986
     29          1           0        1.856821    0.531815   -0.273019
     30          1           0        3.685655    2.237146    1.487985
     31          1           0        2.350481    1.250023    2.071507
     32          1           0        0.734555    2.627648    0.719617
     33          1           0        2.077316    3.620380    0.132780
     34          1           0        1.642236    3.646140    1.850147
 ---------------------------------------------------------------------

 SCF Done:  E(RHF) =  -669.535668078     A.U. after   15 cycles
 E2 =    -0.2092412883D+01 EUMP2 =    -0.67162808096034D+03

 The electronic state is 1-A.
 Alpha  occ. eigenvalues --  -20.60900 -20.60890 -15.85926 -11.31254 -11.27820
 Alpha  occ. eigenvalues --  -11.27813 -11.27562 -11.26834 -11.26824 -11.21921
 Alpha  occ. eigenvalues --  -11.21642 -11.21534 -11.21444 -11.21389 -11.20413
 Alpha  occ. eigenvalues --   -1.59957  -1.39513  -1.19427  -1.08830  -1.08572
 Alpha  occ. eigenvalues --   -1.04828  -1.03545  -0.95968  -0.95671  -0.86975
 Alpha  occ. eigenvalues --   -0.86229  -0.82504  -0.79625  -0.78379  -0.77544
 Alpha  occ. eigenvalues --   -0.72150  -0.71269  -0.70548  -0.65274  -0.65083
 Alpha  occ. eigenvalues --   -0.64808  -0.62188  -0.60938  -0.59380  -0.57569
 Alpha  occ. eigenvalues --   -0.55363  -0.55230  -0.53156  -0.52941  -0.52635
 Alpha  occ. eigenvalues --   -0.52354  -0.49920  -0.48910  -0.48902  -0.47901
 Alpha  occ. eigenvalues --   -0.46687  -0.45881  -0.45828  -0.44874  -0.43833
 Alpha  occ. eigenvalues --   -0.37406  -0.36427
 Alpha virt. eigenvalues --    0.04937   0.11212   0.16420   0.19288   0.23015
 Alpha virt. eigenvalues --    0.23794   0.25280   0.27009   0.27555   0.28215
 Alpha virt. eigenvalues --    0.30057   0.30423   0.31585   0.31729   0.32019

 Mulliken charges:
               1
     1  C   -0.170305
     2  C   -0.219139
     3  C   -0.169535
     4  C    0.157566
     5  C   -0.182190
     6  C   -0.223570
     7  H    0.225976
     8  H    0.223778
     9  H    0.275847
    10  H    0.293216
    11  H    0.223829
    12  N    0.487707
    13  O   -0.461614
    14  O   -0.458802
    15  C   -0.298043
    16  C   -0.298605
    17  C   -0.475458
    18  H    0.152436
    19  H    0.144432
    20  H    0.155798
    21  H    0.145524
    22  H    0.152211
    23  H    0.157252
    24  H    0.160974
    25  C   -0.302204
    26  C   -0.300409
    27  C   -0.483231
    28  H    0.155567
    29  H    0.144360
    30  H    0.151568
    31  H    0.146880
    32  H    0.173144
    33  H    0.157271
    34  H    0.157765
 Sum of Mulliken charges =  -0.00000

 Dipole moment (field-independent basis, Debye):
    X=              0.0983    Y=             -4.7438    Z=              1.8030  Tot=              5.0758
 Quadrupole moment (field-independent basis, Debye-Ang):
   XX=            -89.9590   YY=            -95.2112   ZZ=            -96.2962
   XY=             14.1287   XZ=             -5.7404   YZ=              0.4000

 Normal termination of Gaussian 16 at Thu May  6 09:26:38 2021.
