 Gaussian 16, Revision A.03,
 Gaussian 16:  EM64L-G16RevA.03 25-Dec-2016

 -------------
 #p 6-31g* mp2
 -------------

 ------------------------------------------------------
 Input file generated by CHIRIPA (05-May-2021 14:55:24)
 ------------------------------------------------------
 Symbolic Z-matrix:
 Charge =  0 Multiplicity = 1

                         Standard orientation:
 ---------------------------------------------------------------------
 Center     Atomic      Atomic             Coordinates (Angstroms)
 Number     Number       Type             X           Y           Z
 ---------------------------------------------------------------------
      1          6           0       -0.797425    0.685479    1.292824
      2          6           0       -1.273744    1.387891    0.180952
      3          6           0       -2.454253    0.993440   -0.455722
      4          6           0       -3.136218   -0.112978    0.048315
      5          6           0       -2.687246   -0.833297    1.154142
      6          6           0       -1.504450   -0.420923    1.775020
      7          1           0        0.120511    0.998859    1.781273
      8          1           0       -0.726737    2.247514   -0.195712
      9          1           0       -2.845587    1.519145   -1.318224
     10          1           0       -3.254419   -1.686234    1.506607
     11          1           0       -1.136902   -0.968320    2.638334
     12          7           0       -4.387181   -0.540053   -0.617343
     13          8           0       -4.969512   -1.518168   -0.153857
     14          8           0       -4.761667    0.111407   -1.589967
     15          6           0        4.278200   -0.460542   -0.401352
     16          6           0        3.891782   -1.895240   -0.040372
     17          6           0        4.957596   -2.914130   -0.444965
     18          1           0        4.456382   -0.396794   -1.483541
     19          1           0        5.230050   -0.210557    0.087406
     20          1           0        2.940246   -2.141974   -0.528550
     21          1           0        3.714312   -1.955535    1.041056
     22          1           0        5.907949   -2.695755    0.052772
     23          1           0        5.129485   -2.883253   -1.525752
     24          1           0        4.660889   -3.933122   -0.177605
     25          6           0        3.222713    0.569575   -0.003187
     26          6           0        3.609133    2.004273   -0.364167
     27          6           0        2.543317    3.023163    0.040425
     28          1           0        2.270864    0.319590   -0.491945
     29          1           0        3.044532    0.505827    1.079002
     30          1           0        3.786601    2.064569   -1.445594
     31          1           0        4.560667    2.251007    0.124012
     32          1           0        2.371429    2.992285    1.121213
     33          1           0        1.592964    2.804788   -0.457310
     34          1           0        2.840024    4.042154   -0.226935
 ---------------------------------------------------------------------

 SCF Done:  E(RHF) =  -669.535575407     A.U. after   15 cycles
 E2 =    -0.2091935032D+01 EUMP2 =    -0.67162751043847D+03

 The electronic state is 1-A.
 Alpha  occ. eigenvalues --  -20.60724 -20.60719 -15.85777 -11.31127 -11.27702
 Alpha  occ. eigenvalues --  -11.27696 -11.27406 -11.26698 -11.26674 -11.22566
 Alpha  occ. eigenvalues --  -11.22344 -11.22312 -11.22202 -11.22071 -11.21542
 Alpha  occ. eigenvalues --   -1.59800  -1.39354  -1.19299  -1.09254  -1.08688
 Alpha  occ. eigenvalues --   -1.04704  -1.04350  -0.96824  -0.95526  -0.87845
 Alpha  occ. eigenvalues --   -0.86098  -0.82362  -0.80432  -0.79049  -0.77418
 Alpha  occ. eigenvalues --   -0.71995  -0.71123  -0.70386  -0.65885  -0.64947
 Alpha  occ. eigenvalues --   -0.64728  -0.62111  -0.61701  -0.60192  -0.58415
 Alpha  occ. eigenvalues --   -0.56139  -0.55175  -0.53497  -0.53310  -0.53030
 Alpha  occ. eigenvalues --   -0.52745  -0.50756  -0.48783  -0.48751  -0.48701
 Alpha  occ. eigenvalues --   -0.47444  -0.46590  -0.46478  -0.44763  -0.44590
 Alpha  occ. eigenvalues --   -0.37254  -0.36308
 Alpha virt. eigenvalues --    0.05111   0.11265   0.16585   0.19444   0.22467
 Alpha virt. eigenvalues --    0.23818   0.24240   0.25812   0.26771   0.27745
 Alpha virt. eigenvalues --    0.29274   0.29956   0.30944   0.31595   0.31826

 Mulliken charges:
               1
     1  C   -0.172294
     2  C   -0.224568
     3  C   -0.171656
     4  C    0.158505
     5  C   -0.170989
     6  C   -0.219370
     7  H    0.229713
     8  H    0.229351
     9  H    0.275536
    10  H    0.275328
    11  H    0.223225
    12  N    0.488015
    13  O   -0.460649
    14  O   -0.460649
    15  C   -0.298705
    16  C   -0.300427
    17  C   -0.476173
    18  H    0.152517
    19  H    0.150999
    20  H    0.154222
    21  H    0.149608
    22  H    0.155747
    23  H    0.156930
    24  H    0.161970
    25  C   -0.302050
    26  C   -0.299229
    27  C   -0.481884
    28  H    0.152720
    29  H    0.143397
    30  H    0.156257
    31  H    0.155612
    32  H    0.151780
    33  H    0.150167
    34  H    0.167044
 Sum of Mulliken charges =  -0.00000

 Dipole moment (field-independent basis, Debye):
    X=              4.6297    Y=              1.4809    Z=              2.2761  Tot=              5.3673
 Quadrupole moment (field-independent basis, Debye-Ang):
   XX=           -122.7152   YY=            -93.1341   ZZ=            -92.0103
   XY=             -4.1452   XZ=             -7.2650   YZ=             -3.1998

 Normal termination of Gaussian 16 at Thu May  6 15:59:35 2021.
