 Gaussian 16, Revision A.03,
 Gaussian 16:  EM64L-G16RevA.03 25-Dec-2016

 -------------
 #p 6-31g* mp2
 -------------

 ------------------------------------------------------
 Input file generated by CHIRIPA (05-May-2021 14:57:24)
 ------------------------------------------------------
 Symbolic Z-matrix:
 Charge =  0 Multiplicity = 1

                         Standard orientation:
 ---------------------------------------------------------------------
 Center     Atomic      Atomic             Coordinates (Angstroms)
 Number     Number       Type             X           Y           Z
 ---------------------------------------------------------------------
      1          6           0        2.847698   -1.947849    0.320044
      2          6           0        3.069953   -0.953767    1.278650
      3          6           0        2.726588    0.375692    1.015618
      4          6           0        2.160320    0.677019   -0.222055
      5          6           0        1.926438   -0.290926   -1.197592
      6          6           0        2.277655   -1.613844   -0.912844
      7          1           0        3.117482   -2.978064    0.532809
      8          1           0        3.512501   -1.210251    2.236989
      9          1           0        2.887671    1.165116    1.739690
     10          1           0        1.483647   -0.004600   -2.143833
     11          1           0        2.103898   -2.383782   -1.659201
     12          7           0        1.792659    2.080996   -0.512010
     13          8           0        1.295159    2.320587   -1.610066
     14          8           0        2.008947    2.915256    0.364269
     15          6           0       -3.462864    1.730257    0.472627
     16          6           0       -3.688357    0.945593   -0.663144
     17          6           0       -3.005860   -0.261825   -0.838896
     18          6           0       -2.100848   -0.655983    0.145422
     19          6           0       -1.854447    0.103741    1.287962
     20          6           0       -2.548241    1.307572    1.442845
     21          1           0       -3.997432    2.666815    0.601049
     22          1           0       -4.398087    1.271361   -1.418262
     23          1           0       -3.161250   -0.888748   -1.708516
     24          1           0       -1.140862   -0.247290    2.023484
     25          1           0       -2.371109    1.914912    2.325912
     26          7           0       -1.372339   -1.932323   -0.029592
     27          8           0       -0.580164   -2.257383    0.852129
     28          8           0       -1.607305   -2.583493   -1.045174
 ---------------------------------------------------------------------

 SCF Done:  E(RHF) =  -868.339615456     A.U. after   16 cycles
 E2 =    -0.2601903524D+01 EUMP2 =    -0.87094151897994D+03

 The electronic state is 1-A.
 Alpha  occ. eigenvalues --  -20.61025 -20.60981 -20.60494 -20.60475 -15.86012
 Alpha  occ. eigenvalues --  -15.85530 -11.31108 -11.30588 -11.27641 -11.27635
 Alpha  occ. eigenvalues --  -11.27292 -11.27142 -11.27034 -11.26657 -11.26579
 Alpha  occ. eigenvalues --  -11.26563 -11.26056 -11.25898  -1.60072  -1.59571
 Alpha  occ. eigenvalues --   -1.39635  -1.39134  -1.19241  -1.18687  -1.08685
 Alpha  occ. eigenvalues --   -1.08109  -1.04603  -1.04051  -0.95576  -0.95018
 Alpha  occ. eigenvalues --   -0.86014  -0.85451  -0.82425  -0.81877  -0.77510
 Alpha  occ. eigenvalues --   -0.76986  -0.72278  -0.71757  -0.71408  -0.70883
 Alpha  occ. eigenvalues --   -0.70344  -0.69766  -0.64899  -0.64604  -0.64334
 Alpha  occ. eigenvalues --   -0.64034  -0.61967  -0.61420  -0.55102  -0.54498
 Alpha  occ. eigenvalues --   -0.52935  -0.52699  -0.52377  -0.52133  -0.49043
 Alpha  occ. eigenvalues --   -0.49007  -0.48528  -0.48481  -0.45083  -0.44612
 Alpha  occ. eigenvalues --   -0.37272  -0.36482  -0.36123  -0.35626
 Alpha virt. eigenvalues --    0.04892   0.05612   0.11462   0.12048   0.16540
 Alpha virt. eigenvalues --    0.17189   0.21617   0.22194   0.27510   0.28065
 Alpha virt. eigenvalues --    0.28463   0.29036   0.31185   0.31774   0.32572

 Mulliken charges:
               1
     1  C   -0.154558
     2  C   -0.217222
     3  C   -0.176585
     4  C    0.157970
     5  C   -0.182313
     6  C   -0.208426
     7  H    0.227812
     8  H    0.220556
     9  H    0.269988
    10  H    0.273014
    11  H    0.229773
    12  N    0.488413
    13  O   -0.462856
    14  O   -0.465992
    15  C   -0.167248
    16  C   -0.216257
    17  C   -0.170630
    18  C    0.157552
    19  C   -0.172591
    20  C   -0.215706
    21  H    0.227913
    22  H    0.224263
    23  H    0.273600
    24  H    0.273182
    25  H    0.225716
    26  N    0.488840
    27  O   -0.461857
    28  O   -0.466352
 Sum of Mulliken charges =  -0.00000

 Dipole moment (field-independent basis, Debye):
    X=             -1.3632    Y=             -0.6600    Z=              1.6516  Tot=              2.2409
 Quadrupole moment (field-independent basis, Debye-Ang):
   XX=            -87.7610   YY=           -117.9747   ZZ=            -97.6572
   XY=            -18.3548   XZ=              4.2463   YZ=              4.2818

 Normal termination of Gaussian 16 at Thu May  6 13:01:36 2021.
