 Gaussian 16, Revision A.03,
 Gaussian 16:  EM64L-G16RevA.03 25-Dec-2016

 -------------
 #p 6-31g* mp2
 -------------

 ------------------------------------------------------
 Input file generated by CHIRIPA (05-May-2021 14:57:25)
 ------------------------------------------------------
 Symbolic Z-matrix:
 Charge =  0 Multiplicity = 1

                         Standard orientation:
 ---------------------------------------------------------------------
 Center     Atomic      Atomic             Coordinates (Angstroms)
 Number     Number       Type             X           Y           Z
 ---------------------------------------------------------------------
      1          6           0       -3.677296    2.427424    0.743969
      2          6           0       -4.717120    1.980900   -0.078164
      3          6           0       -4.744014    0.659721   -0.534573
      4          6           0       -3.710295   -0.191766   -0.147682
      5          6           0       -2.660619    0.223273    0.670373
      6          6           0       -2.654168    1.548735    1.114959
      7          1           0       -3.664344    3.455412    1.093926
      8          1           0       -5.513022    2.661085   -0.367877
      9          1           0       -5.536946    0.287703   -1.171973
     10          1           0       -1.881210   -0.478133    0.942348
     11          1           0       -1.845362    1.892751    1.753341
     12          7           0       -3.727945   -1.592706   -0.624604
     13          8           0       -2.805430   -2.323142   -0.269547
     14          8           0       -4.663961   -1.933801   -1.344441
     15          6           0        5.738824    0.790816   -1.176063
     16          6           0        5.857176   -0.269082   -0.271005
     17          6           0        4.738344   -0.737161    0.424456
     18          6           0        3.510994   -0.119361    0.189455
     19          6           0        3.360925    0.938560   -0.705850
     20          6           0        4.493271    1.390197   -1.390220
     21          1           0        6.613209    1.148044   -1.712006
     22          1           0        6.823228   -0.736477   -0.102688
     23          1           0        4.801598   -1.556005    1.130793
     24          1           0        2.384638    1.384386   -0.852556
     25          1           0        4.398384    2.213506   -2.092506
     26          7           0        2.319383   -0.606193    0.919837
     27          8           0        1.249296   -0.044944    0.695004
     28          8           0        2.478049   -1.539802    1.703314
 ---------------------------------------------------------------------

 SCF Done:  E(RHF) =  -868.339434477     A.U. after   16 cycles
 E2 =    -0.2598636369D+01 EUMP2 =    -0.87093807084583D+03

 The electronic state is 1-A.
 Alpha  occ. eigenvalues --  -20.61221 -20.61186 -20.59860 -20.59822 -15.86239
 Alpha  occ. eigenvalues --  -15.84892 -11.31457 -11.30177 -11.28022 -11.27992
 Alpha  occ. eigenvalues --  -11.27727 -11.27000 -11.26979 -11.26860 -11.26595
 Alpha  occ. eigenvalues --  -11.26565 -11.25886 -11.25687  -1.60258  -1.58925
 Alpha  occ. eigenvalues --   -1.39820  -1.38475  -1.19614  -1.18378  -1.09037
 Alpha  occ. eigenvalues --   -1.07814  -1.04998  -1.03745  -0.95898  -0.94640
 Alpha  occ. eigenvalues --   -0.86403  -0.85165  -0.82740  -0.81454  -0.77800
 Alpha  occ. eigenvalues --   -0.76486  -0.72479  -0.71558  -0.71113  -0.70725
 Alpha  occ. eigenvalues --   -0.70251  -0.69498  -0.65274  -0.65001  -0.64028
 Alpha  occ. eigenvalues --   -0.63754  -0.62348  -0.61052  -0.55505  -0.54325
 Alpha  occ. eigenvalues --   -0.53331  -0.53090  -0.52128  -0.51825  -0.49235
 Alpha  occ. eigenvalues --   -0.49194  -0.47885  -0.47852  -0.45254  -0.43896
 Alpha  occ. eigenvalues --   -0.37585  -0.36593  -0.36425  -0.35351
 Alpha virt. eigenvalues --    0.04731   0.06008   0.11064   0.12283   0.16250
 Alpha virt. eigenvalues --    0.17480   0.21196   0.22398   0.27123   0.27969
 Alpha virt. eigenvalues --    0.28425   0.29327   0.30793   0.31906   0.32317

 Mulliken charges:
               1
     1  C   -0.172168
     2  C   -0.220055
     3  C   -0.172259
     4  C    0.155812
     5  C   -0.172256
     6  C   -0.221957
     7  H    0.221080
     8  H    0.218880
     9  H    0.272090
    10  H    0.295313
    11  H    0.227667
    12  N    0.487442
    13  O   -0.455907
    14  O   -0.466002
    15  C   -0.170200
    16  C   -0.218510
    17  C   -0.170108
    18  C    0.158538
    19  C   -0.170534
    20  C   -0.218444
    21  H    0.226601
    22  H    0.224693
    23  H    0.276833
    24  H    0.274145
    25  H    0.223833
    26  N    0.491171
    27  O   -0.470414
    28  O   -0.455285
 Sum of Mulliken charges =  -0.00000

 Dipole moment (field-independent basis, Debye):
    X=              4.7618    Y=              6.4967    Z=             -0.7887  Tot=              8.0934
 Quadrupole moment (field-independent basis, Debye-Ang):
   XX=            -72.1370   YY=           -105.9503   ZZ=           -105.2385
   XY=            -15.7211   XZ=            -11.1231   YZ=             -2.9936

 Normal termination of Gaussian 16 at Thu May  6 22:52:36 2021.
