 Gaussian 16, Revision A.03,
 Gaussian 16:  EM64L-G16RevA.03 25-Dec-2016

 -------------
 #p 6-31g* mp2
 -------------

 ------------------------------------------------------
 Input file generated by CHIRIPA (05-May-2021 14:53:15)
 ------------------------------------------------------
 Symbolic Z-matrix:
 Charge =  0 Multiplicity = 1

                         Standard orientation:
 ---------------------------------------------------------------------
 Center     Atomic      Atomic             Coordinates (Angstroms)
 Number     Number       Type             X           Y           Z
 ---------------------------------------------------------------------
      1          6           0        4.857203    0.347409   -0.167439
      2          6           0        6.367229    0.112552   -0.115968
      3          6           0        7.168995    1.303642   -0.641582
      4          1           0        4.561042    0.562138   -1.203357
      5          1           0        4.612269    1.243281    0.419770
      6          1           0        6.609078   -0.783404   -0.701960
      7          1           0        6.659800   -0.101831    0.919917
      8          1           0        6.956807    2.201264   -0.051791
      9          1           0        6.905797    1.515818   -1.682884
     10          1           0        8.245981    1.114290   -0.595691
     11          6           0        4.042146   -0.834443    0.354709
     12          6           0        2.532120   -0.599587    0.303238
     13          6           0        1.730354   -1.790677    0.828852
     14          1           0        4.287080   -1.730316   -0.232501
     15          1           0        4.338307   -1.049172    1.390626
     16          1           0        2.239549   -0.385203   -0.732647
     17          1           0        2.290271    0.296370    0.889230
     18          1           0        1.993553   -2.002853    1.870153
     19          1           0        1.942542   -2.688298    0.239061
     20          1           0        0.653368   -1.601324    0.782960
     21          6           0       -3.582073   -2.308107   -0.409246
     22          6           0       -2.348317   -1.680457   -0.208191
     23          6           0       -2.277780   -0.296804   -0.020898
     24          6           0       -3.466084    0.431779   -0.040660
     25          6           0       -4.710474   -0.164525   -0.238654
     26          6           0       -4.757142   -1.549476   -0.423810
     27          1           0       -3.627598   -3.383466   -0.553910
     28          1           0       -1.434120   -2.267099   -0.196395
     29          1           0       -1.336033    0.214724    0.136800
     30          1           0       -5.604686    0.446834   -0.245295
     31          1           0       -5.716696   -2.034232   -0.579737
     32          7           0       -3.404044    1.897278    0.156487
     33          8           0       -4.465382    2.516732    0.134757
     34          8           0       -2.295252    2.398730    0.329010
 ---------------------------------------------------------------------

 SCF Done:  E(RHF) =  -669.535387534     A.U. after   15 cycles
 E2 =    -0.2091237122D+01 EUMP2 =    -0.67162662465682D+03

 The electronic state is 1-A.
 Alpha  occ. eigenvalues --  -20.60736 -20.60731 -15.85789 -11.31151 -11.27722
 Alpha  occ. eigenvalues --  -11.27707 -11.27457 -11.26737 -11.26693 -11.22121
 Alpha  occ. eigenvalues --  -11.21941 -11.21748 -11.21739 -11.21560 -11.21142
 Alpha  occ. eigenvalues --   -1.59812  -1.39365  -1.19322  -1.08752  -1.08716
 Alpha  occ. eigenvalues --   -1.04729  -1.03907  -0.96380  -0.95553  -0.87402
 Alpha  occ. eigenvalues --   -0.86121  -0.82391  -0.79971  -0.78519  -0.77440
 Alpha  occ. eigenvalues --   -0.72008  -0.71135  -0.70434  -0.65373  -0.64979
 Alpha  occ. eigenvalues --   -0.64739  -0.62170  -0.61289  -0.59742  -0.57962
 Alpha  occ. eigenvalues --   -0.55647  -0.55226  -0.53206  -0.53042  -0.52825
 Alpha  occ. eigenvalues --   -0.52687  -0.50293  -0.48766  -0.48762  -0.48284
 Alpha  occ. eigenvalues --   -0.46976  -0.46073  -0.45967  -0.44772  -0.44152
 Alpha  occ. eigenvalues --   -0.37302  -0.36325
 Alpha virt. eigenvalues --    0.05091   0.11326   0.16555   0.19834   0.22762
 Alpha virt. eigenvalues --    0.23782   0.26121   0.26368   0.26960   0.28048
 Alpha virt. eigenvalues --    0.29138   0.29900   0.31053   0.31480   0.32279

 Mulliken charges:
               1
     1  C   -0.299118
     2  C   -0.300000
     3  C   -0.476010
     4  H    0.150690
     5  H    0.152513
     6  H    0.151409
     7  H    0.152240
     8  H    0.156617
     9  H    0.155723
    10  H    0.160585
    11  C   -0.298943
    12  C   -0.301659
    13  C   -0.481698
    14  H    0.149137
    15  H    0.150957
    16  H    0.152483
    17  H    0.158181
    18  H    0.161213
    19  H    0.155145
    20  H    0.151674
    21  C   -0.170845
    22  C   -0.222876
    23  C   -0.173968
    24  C    0.158795
    25  C   -0.170981
    26  C   -0.218612
    27  H    0.225722
    28  H    0.228593
    29  H    0.277163
    30  H    0.275464
    31  H    0.223290
    32  N    0.488273
    33  O   -0.460615
    34  O   -0.460543
 Sum of Mulliken charges =  -0.00000

 Dipole moment (field-independent basis, Debye):
    X=             -0.0439    Y=             -5.1236    Z=             -0.6749  Tot=              5.1680
 Quadrupole moment (field-independent basis, Debye-Ang):
   XX=            -88.1123   YY=           -100.3454   ZZ=            -94.7329
   XY=             17.2918   XZ=              3.3609   YZ=              0.5520

 Normal termination of Gaussian 16 at Thu May  6 13:48:26 2021.
