 Gaussian 16, Revision A.03,
 Gaussian 16:  EM64L-G16RevA.03 25-Dec-2016

 -------------
 #p 6-31g* mp2
 -------------

 ------------------------------------------------------
 Input file generated by CHIRIPA (05-May-2021 14:57:25)
 ------------------------------------------------------
 Symbolic Z-matrix:
 Charge =  0 Multiplicity = 1

                         Standard orientation:
 ---------------------------------------------------------------------
 Center     Atomic      Atomic             Coordinates (Angstroms)
 Number     Number       Type             X           Y           Z
 ---------------------------------------------------------------------
      1          6           0        2.679002   -2.370516   -0.165116
      2          6           0        2.351668   -1.681935    1.007586
      3          6           0        2.269246   -0.286322    1.011987
      4          6           0        2.521506    0.391961   -0.179477
      5          6           0        2.849925   -0.265569   -1.363997
      6          6           0        2.926649   -1.661385   -1.345084
      7          1           0        2.740816   -3.454741   -0.159479
      8          1           0        2.158831   -2.230043    1.925430
      9          1           0        2.017853    0.271920    1.905623
     10          1           0        3.036771    0.308336   -2.263519
     11          1           0        3.181072   -2.193508   -2.257311
     12          7           0        2.437266    1.869542   -0.187159
     13          8           0        2.664052    2.443873   -1.249867
     14          8           0        2.146047    2.425360    0.869673
     15          6           0       -3.716601    0.049462   -2.042486
     16          6           0       -3.976886    0.974706   -1.026269
     17          6           0       -3.328222    0.874764    0.208151
     18          6           0       -2.421195   -0.167570    0.392900
     19          6           0       -2.140571   -1.104958   -0.599996
     20          6           0       -2.800888   -0.985591   -1.826488
     21          1           0       -4.225025    0.134644   -2.998334
     22          1           0       -4.687548    1.779567   -1.191200
     23          1           0       -3.510934    1.577341    1.012154
     24          1           0       -1.426961   -1.896480   -0.405905
     25          1           0       -2.596778   -1.705585   -2.613884
     26          7           0       -1.728315   -0.283655    1.695528
     27          8           0       -0.933602   -1.211074    1.833234
     28          8           0       -1.993068    0.554974    2.554158
 ---------------------------------------------------------------------

 SCF Done:  E(RHF) =  -868.339046613     A.U. after   16 cycles
 E2 =    -0.2600783175D+01 EUMP2 =    -0.87093982978887D+03

 The electronic state is 1-A.
 Alpha  occ. eigenvalues --  -20.61087 -20.61048 -20.60297 -20.60269 -15.86087
 Alpha  occ. eigenvalues --  -15.85330 -11.31278 -11.30566 -11.27864 -11.27801
 Alpha  occ. eigenvalues --  -11.27559 -11.27188 -11.26958 -11.26866 -11.26844
 Alpha  occ. eigenvalues --  -11.26784 -11.26242 -11.25961  -1.60131  -1.59368
 Alpha  occ. eigenvalues --   -1.39691  -1.38921  -1.19440  -1.18732  -1.08873
 Alpha  occ. eigenvalues --   -1.08171  -1.04821  -1.04075  -0.95740  -0.95016
 Alpha  occ. eigenvalues --   -0.86229  -0.85504  -0.82591  -0.81818  -0.77649
 Alpha  occ. eigenvalues --   -0.76878  -0.72346  -0.71557  -0.71432  -0.70693
 Alpha  occ. eigenvalues --   -0.70556  -0.69850  -0.65106  -0.64833  -0.64370
 Alpha  occ. eigenvalues --   -0.64075  -0.62174  -0.61405  -0.55339  -0.54646
 Alpha  occ. eigenvalues --   -0.53152  -0.52923  -0.52469  -0.52156  -0.49116
 Alpha  occ. eigenvalues --   -0.49060  -0.48315  -0.48295  -0.45140  -0.44349
 Alpha  occ. eigenvalues --   -0.37416  -0.36776  -0.36410  -0.35576
 Alpha virt. eigenvalues --    0.04795   0.05695   0.11245   0.11959   0.16326
 Alpha virt. eigenvalues --    0.17213   0.21343   0.22086   0.27253   0.27980
 Alpha virt. eigenvalues --    0.28317   0.28934   0.30882   0.31584   0.32408

 Mulliken charges:
               1
     1  C   -0.178055
     2  C   -0.206420
     3  C   -0.166553
     4  C    0.153319
     5  C   -0.174540
     6  C   -0.221366
     7  H    0.222423
     8  H    0.232047
     9  H    0.283231
    10  H    0.271506
    11  H    0.218385
    12  N    0.487530
    13  O   -0.465032
    14  O   -0.457783
    15  C   -0.169621
    16  C   -0.218030
    17  C   -0.168430
    18  C    0.157979
    19  C   -0.169853
    20  C   -0.218469
    21  H    0.226226
    22  H    0.225167
    23  H    0.277798
    24  H    0.272679
    25  H    0.221774
    26  N    0.489672
    27  O   -0.470405
    28  O   -0.455180
 Sum of Mulliken charges =  -0.00000

 Dipole moment (field-independent basis, Debye):
    X=             -2.3912    Y=             -4.7110    Z=             -4.2463  Tot=              6.7781
 Quadrupole moment (field-independent basis, Debye-Ang):
   XX=            -91.4870   YY=           -106.9426   ZZ=           -103.6799
   XY=            -16.3597   XZ=              8.9248   YZ=              3.2494

 Normal termination of Gaussian 16 at Thu May  6 03:33:47 2021.
