 Gaussian 16, Revision A.03,
 Gaussian 16:  EM64L-G16RevA.03 25-Dec-2016

 -------------
 #p 6-31g* mp2
 -------------

 ------------------------------------------------------
 Input file generated by CHIRIPA (05-May-2021 14:57:21)
 ------------------------------------------------------
 Symbolic Z-matrix:
 Charge =  0 Multiplicity = 1

                         Standard orientation:
 ---------------------------------------------------------------------
 Center     Atomic      Atomic             Coordinates (Angstroms)
 Number     Number       Type             X           Y           Z
 ---------------------------------------------------------------------
      1          6           0        3.902703   -2.380247   -0.498186
      2          6           0        2.678916   -1.816964   -0.121917
      3          6           0        2.571453   -0.442557    0.110472
      4          6           0        3.713068    0.342518   -0.043350
      5          6           0        4.946382   -0.189016   -0.417112
      6          6           0        5.030542   -1.565911   -0.644325
      7          1           0        3.977131   -3.448886   -0.676702
      8          1           0        1.801364   -2.446959   -0.007664
      9          1           0        1.636413    0.019705    0.402759
     10          1           0        5.803705    0.464593   -0.522993
     11          1           0        5.982248   -2.000619   -0.936436
     12          7           0        3.611638    1.798859    0.199930
     13          8           0        4.632147    2.468898    0.057648
     14          8           0        2.513547    2.242722    0.528289
     15          6           0       -1.565006   -1.094784    0.917122
     16          6           0       -1.638907    0.268561    0.613236
     17          6           0       -2.833160    0.829155    0.150589
     18          6           0       -3.939069   -0.006565    0.002849
     19          6           0       -3.896984   -1.368502    0.297211
     20          6           0       -2.692293   -1.907532    0.758420
     21          1           0       -0.633227   -1.521893    1.275958
     22          1           0       -0.765034    0.902153    0.735526
     23          1           0       -2.918206    1.881436   -0.092088
     24          1           0       -4.784901   -1.974796    0.165191
     25          1           0       -2.637819   -2.966657    0.993644
     26          7           0       -5.208896    0.575497   -0.486173
     27          8           0       -6.169021   -0.182135   -0.607792
     28          8           0       -5.220016    1.778327   -0.738590
 ---------------------------------------------------------------------

 SCF Done:  E(RHF) =  -868.337105719     A.U. after   16 cycles
 E2 =    -0.2600499695D+01 EUMP2 =    -0.87093760541364D+03

 The electronic state is 1-A.
 Alpha  occ. eigenvalues --  -20.61622 -20.61590 -20.60889 -20.60877 -15.86660
 Alpha  occ. eigenvalues --  -15.85940 -11.32051 -11.31419 -11.28740 -11.28554
 Alpha  occ. eigenvalues --  -11.28326 -11.28004 -11.27931 -11.27896 -11.27711
 Alpha  occ. eigenvalues --  -11.27559 -11.27117 -11.27014  -1.60670  -1.59958
 Alpha  occ. eigenvalues --   -1.40229  -1.39507  -1.20218  -1.19608  -1.09594
 Alpha  occ. eigenvalues --   -1.09023  -1.05645  -1.05006  -0.96435  -0.95832
 Alpha  occ. eigenvalues --   -0.87039  -0.86427  -0.83286  -0.82634  -0.78350
 Alpha  occ. eigenvalues --   -0.77633  -0.72881  -0.72160  -0.71986  -0.71357
 Alpha  occ. eigenvalues --   -0.71280  -0.70788  -0.65878  -0.65689  -0.65270
 Alpha  occ. eigenvalues --   -0.65021  -0.63019  -0.62298  -0.56112  -0.55634
 Alpha  occ. eigenvalues --   -0.53937  -0.53761  -0.53349  -0.53076  -0.49647
 Alpha  occ. eigenvalues --   -0.49616  -0.48928  -0.48903  -0.45627  -0.44886
 Alpha  occ. eigenvalues --   -0.38164  -0.37661  -0.37233  -0.36589
 Alpha virt. eigenvalues --    0.04226   0.04855   0.10417   0.10991   0.15701
 Alpha virt. eigenvalues --    0.16214   0.17826   0.22227   0.24759   0.25014
 Alpha virt. eigenvalues --    0.27721   0.29066   0.30549   0.31355   0.32717

 Mulliken charges:
               1
     1  C   -0.169553
     2  C   -0.221239
     3  C   -0.172675
     4  C    0.158550
     5  C   -0.168646
     6  C   -0.218251
     7  H    0.228232
     8  H    0.219271
     9  H    0.271873
    10  H    0.278440
    11  H    0.226846
    12  N    0.488719
    13  O   -0.455108
    14  O   -0.467032
    15  C   -0.176320
    16  C   -0.227630
    17  C   -0.169881
    18  C    0.159477
    19  C   -0.170922
    20  C   -0.217982
    21  H    0.217218
    22  H    0.237868
    23  H    0.280845
    24  H    0.276268
    25  H    0.221815
    26  N    0.487759
    27  O   -0.460301
    28  O   -0.457640
 Sum of Mulliken charges =  -0.00000

 Dipole moment (field-independent basis, Debye):
    X=              4.9805    Y=             -7.0509    Z=              0.7539  Tot=              8.6654
 Quadrupole moment (field-independent basis, Debye-Ang):
   XX=           -130.1124   YY=           -104.7247   ZZ=           -106.2235
   XY=             -8.5776   XZ=            -11.6273   YZ=             -0.3879

 Normal termination of Gaussian 16 at Thu May  6 17:48:34 2021.
