 Gaussian 16, Revision A.03,
 Gaussian 16:  EM64L-G16RevA.03 25-Dec-2016

 -------------
 #p 6-31g* mp2
 -------------

 ------------------------------------------------------
 Input file generated by CHIRIPA (05-May-2021 14:57:23)
 ------------------------------------------------------
 Symbolic Z-matrix:
 Charge =  0 Multiplicity = 1

                         Standard orientation:
 ---------------------------------------------------------------------
 Center     Atomic      Atomic             Coordinates (Angstroms)
 Number     Number       Type             X           Y           Z
 ---------------------------------------------------------------------
      1          6           0       -4.787853    1.792101   -0.510040
      2          6           0       -3.437750    1.803797   -0.875560
      3          6           0       -2.633071    0.681762   -0.656298
      4          6           0       -3.213856   -0.439999   -0.066696
      5          6           0       -4.555758   -0.482414    0.308525
      6          6           0       -5.341572    0.651044    0.079797
      7          1           0       -5.405620    2.668161   -0.684045
      8          1           0       -3.005033    2.688560   -1.333814
      9          1           0       -1.585007    0.663674   -0.929528
     10          1           0       -4.958750   -1.379107    0.763450
     11          1           0       -6.389780    0.639116    0.364686
     12          7           0       -2.371964   -1.633894    0.170438
     13          8           0       -2.907582   -2.609740    0.691470
     14          8           0       -1.192412   -1.571215   -0.169219
     15          6           0        2.575909    2.553367    0.758410
     16          6           0        3.780831    2.389221    0.067224
     17          6           0        4.220995    1.113933   -0.299445
     18          6           0        3.427699    0.019895    0.042684
     19          6           0        2.222515    0.150933    0.730908
     20          6           0        1.801962    1.435669    1.087466
     21          1           0        2.241596    3.547710    1.039321
     22          1           0        4.383942    3.255431   -0.189646
     23          1           0        5.149667    0.958175   -0.834912
     24          1           0        1.642931   -0.731603    0.973048
     25          1           0        0.865768    1.560141    1.624212
     26          7           0        3.883300   -1.335196   -0.340140
     27          8           0        3.166146   -2.282959   -0.026972
     28          8           0        4.948927   -1.423897   -0.946117
 ---------------------------------------------------------------------

 SCF Done:  E(RHF) =  -868.337796557     A.U. after   16 cycles
 E2 =    -0.2599559804D+01 EUMP2 =    -0.87093735636076D+03

 The electronic state is 1-A.
 Alpha  occ. eigenvalues --  -20.61169 -20.61128 -20.60115 -20.60055 -15.86199
 Alpha  occ. eigenvalues --  -15.85146 -11.31597 -11.30655 -11.28180 -11.28143
 Alpha  occ. eigenvalues --  -11.27904 -11.27342 -11.27201 -11.27163 -11.27161
 Alpha  occ. eigenvalues --  -11.27147 -11.26392 -11.26338  -1.60218  -1.59166
 Alpha  occ. eigenvalues --   -1.39773  -1.38709  -1.19771  -1.18889  -1.09156
 Alpha  occ. eigenvalues --   -1.08277  -1.05176  -1.04305  -0.95983  -0.95065
 Alpha  occ. eigenvalues --   -0.86570  -0.85703  -0.82814  -0.81887  -0.77863
 Alpha  occ. eigenvalues --   -0.76878  -0.72406  -0.71550  -0.71359  -0.70868
 Alpha  occ. eigenvalues --   -0.70496  -0.70000  -0.65420  -0.65172  -0.64540
 Alpha  occ. eigenvalues --   -0.64321  -0.62519  -0.61611  -0.55665  -0.54861
 Alpha  occ. eigenvalues --   -0.53510  -0.53264  -0.52654  -0.52390  -0.49162
 Alpha  occ. eigenvalues --   -0.49156  -0.48151  -0.48093  -0.45169  -0.44081
 Alpha  occ. eigenvalues --   -0.37752  -0.36936  -0.36787  -0.35920
 Alpha virt. eigenvalues --    0.04639   0.05635   0.10852   0.11720   0.16120
 Alpha virt. eigenvalues --    0.17020   0.20948   0.21860   0.26775   0.27424
 Alpha virt. eigenvalues --    0.28185   0.28851   0.30649   0.31271   0.32252

 Mulliken charges:
               1
     1  C   -0.170832
     2  C   -0.219051
     3  C   -0.175115
     4  C    0.158096
     5  C   -0.170638
     6  C   -0.218404
     7  H    0.226443
     8  H    0.223049
     9  H    0.275541
    10  H    0.277191
    11  H    0.224934
    12  N    0.488644
    13  O   -0.455800
    14  O   -0.462810
    15  C   -0.172259
    16  C   -0.219926
    17  C   -0.170946
    18  C    0.156219
    19  C   -0.170573
    20  C   -0.225380
    21  H    0.221189
    22  H    0.220689
    23  H    0.274479
    24  H    0.293713
    25  H    0.220790
    26  N    0.487215
    27  O   -0.451521
    28  O   -0.464937
 Sum of Mulliken charges =  -0.00000

 Dipole moment (field-independent basis, Debye):
    X=             -4.8154    Y=              8.6877    Z=              0.5326  Tot=              9.9473
 Quadrupole moment (field-independent basis, Debye-Ang):
   XX=            -90.8466   YY=           -107.5887   ZZ=           -104.4126
   XY=              7.6331   XZ=              3.7764   YZ=             -1.9308

 Normal termination of Gaussian 16 at Fri May  7 11:00:15 2021.
