 Gaussian 16, Revision A.03,
 Gaussian 16:  EM64L-G16RevA.03 25-Dec-2016

 -------------
 #p 6-31g* mp2
 -------------

 ------------------------------------------------------
 Input file generated by CHIRIPA (05-May-2021 14:55:24)
 ------------------------------------------------------
 Symbolic Z-matrix:
 Charge =  0 Multiplicity = 1

                         Standard orientation:
 ---------------------------------------------------------------------
 Center     Atomic      Atomic             Coordinates (Angstroms)
 Number     Number       Type             X           Y           Z
 ---------------------------------------------------------------------
      1          6           0        5.343883    1.929049    0.143268
      2          6           0        5.591243    0.716162    0.794604
      3          6           0        4.678227   -0.338538    0.702093
      4          6           0        3.522904   -0.144974   -0.053586
      5          6           0        3.248126    1.051497   -0.714075
      6          6           0        4.175174    2.092557   -0.607669
      7          1           0        6.058586    2.743068    0.220530
      8          1           0        6.498037    0.586344    1.378485
      9          1           0        4.844731   -1.288067    1.196147
     10          1           0        2.335330    1.151028   -1.288806
     11          1           0        3.980451    3.033395   -1.114573
     12          7           0        2.548907   -1.254318   -0.158879
     13          8           0        1.538545   -1.058564   -0.830805
     14          8           0        2.814293   -2.298570    0.432514
     15          6           0       -3.971894   -0.092794    0.218341
     16          6           0       -3.269376   -1.285723   -0.430793
     17          6           0       -1.783703   -1.360849   -0.077348
     18          1           0       -3.471744    0.833929   -0.094678
     19          1           0       -3.856356   -0.157247    1.309163
     20          1           0       -3.387389   -1.219779   -1.519985
     21          1           0       -3.771375   -2.209701   -0.116344
     22          1           0       -1.649395   -1.451092    1.005435
     23          1           0       -1.263228   -0.455545   -0.406181
     24          1           0       -1.301125   -2.220944   -0.551917
     25          6           0       -5.457687   -0.004126   -0.125585
     26          6           0       -6.160205    1.188803    0.523548
     27          6           0       -7.645878    1.263929    0.170103
     28          1           0       -5.573225    0.060328   -1.216408
     29          1           0       -5.957836   -0.930848    0.187433
     30          1           0       -5.658205    2.112781    0.209100
     31          1           0       -6.042192    1.122858    1.612741
     32          1           0       -8.166353    0.358624    0.498937
     33          1           0       -7.780186    1.354172   -0.912680
     34          1           0       -8.128455    2.124024    0.644672
 ---------------------------------------------------------------------

 SCF Done:  E(RHF) =  -669.535548694     A.U. after   15 cycles
 E2 =    -0.2091060761D+01 EUMP2 =    -0.67162660945538D+03

 The electronic state is 1-A.
 Alpha  occ. eigenvalues --  -20.60867 -20.60844 -15.85887 -11.31249 -11.27819
 Alpha  occ. eigenvalues --  -11.27813 -11.27559 -11.26833 -11.26823 -11.21148
 Alpha  occ. eigenvalues --  -11.20778 -11.20703 -11.20594 -11.20461 -11.19392
 Alpha  occ. eigenvalues --   -1.59919  -1.39475  -1.19421  -1.08818  -1.07692
 Alpha  occ. eigenvalues --   -1.04823  -1.02676  -0.95661  -0.95081  -0.86225
 Alpha  occ. eigenvalues --   -0.86089  -0.82488  -0.78773  -0.77551  -0.77455
 Alpha  occ. eigenvalues --   -0.72111  -0.71233  -0.70530  -0.65077  -0.64827
 Alpha  occ. eigenvalues --   -0.64337  -0.62171  -0.60085  -0.58528  -0.56691
 Alpha  occ. eigenvalues --   -0.55326  -0.54389  -0.53153  -0.52917  -0.51730
 Alpha  occ. eigenvalues --   -0.51522  -0.49095  -0.48864  -0.48809  -0.47074
 Alpha  occ. eigenvalues --   -0.45856  -0.45091  -0.44950  -0.44724  -0.42884
 Alpha  occ. eigenvalues --   -0.37400  -0.36426
 Alpha virt. eigenvalues --    0.04981   0.11228   0.16460   0.21336   0.23525
 Alpha virt. eigenvalues --    0.25176   0.27188   0.27356   0.28019   0.28217
 Alpha virt. eigenvalues --    0.29062   0.30868   0.32029   0.32390   0.32716

 Mulliken charges:
               1
     1  C   -0.170732
     2  C   -0.218536
     3  C   -0.170785
     4  C    0.158181
     5  C   -0.170772
     6  C   -0.218491
     7  H    0.225807
     8  H    0.223656
     9  H    0.275792
    10  H    0.275253
    11  H    0.223607
    12  N    0.489933
    13  O   -0.459329
    14  O   -0.459778
    15  C   -0.296823
    16  C   -0.302111
    17  C   -0.469312
    18  H    0.146268
    19  H    0.147704
    20  H    0.148741
    21  H    0.148263
    22  H    0.148211
    23  H    0.157341
    24  H    0.173101
    25  C   -0.297326
    26  C   -0.298836
    27  C   -0.475229
    28  H    0.148263
    29  H    0.149007
    30  H    0.150117
    31  H    0.151063
    32  H    0.154926
    33  H    0.154459
    34  H    0.158369
 Sum of Mulliken charges =  -0.00000

 Dipole moment (field-independent basis, Debye):
    X=              3.7571    Y=              3.8339    Z=              0.3303  Tot=              5.3781
 Quadrupole moment (field-independent basis, Debye-Ang):
   XX=            -71.7477   YY=            -94.3651   ZZ=            -93.1630
   XY=             12.0782   XZ=              2.8818   YZ=             -2.6172

 Normal termination of Gaussian 16 at Thu May  6 14:20:23 2021.
