 Gaussian 16, Revision A.03,
 Gaussian 16:  EM64L-G16RevA.03 25-Dec-2016

 -------------
 #p 6-31g* mp2
 -------------

 ------------------------------------------------------
 Input file generated by CHIRIPA (05-May-2021 14:55:23)
 ------------------------------------------------------
 Symbolic Z-matrix:
 Charge =  0 Multiplicity = 1

                         Standard orientation:
 ---------------------------------------------------------------------
 Center     Atomic      Atomic             Coordinates (Angstroms)
 Number     Number       Type             X           Y           Z
 ---------------------------------------------------------------------
      1          6           0        4.976590    1.931091    0.256117
      2          6           0        5.344139    0.732701   -0.364599
      3          6           0        4.407500   -0.289181   -0.546291
      4          6           0        3.106253   -0.077940   -0.093057
      5          6           0        2.709418    1.104781    0.529023
      6          6           0        3.662719    2.112986    0.700164
      7          1           0        5.710665    2.719602    0.393162
      8          1           0        6.363788    0.588663   -0.710453
      9          1           0        4.665013   -1.226875   -1.023613
     10          1           0        1.685386    1.219113    0.863243
     11          1           0        3.374442    3.042630    1.182558
     12          7           0        2.105856   -1.152521   -0.279821
     13          8           0        0.965868   -0.941720    0.128382
     14          8           0        2.480674   -2.185231   -0.830873
     15          6           0       -3.822172   -0.572360    0.581599
     16          6           0       -2.759750   -1.465190   -0.060351
     17          6           0       -2.038495   -2.350434    0.956470
     18          1           0       -3.348904    0.057214    1.347497
     19          1           0       -4.554301   -1.203344    1.104324
     20          1           0       -2.030609   -0.832783   -0.582876
     21          1           0       -3.235569   -2.092575   -0.824943
     22          1           0       -2.749775   -3.005222    1.470216
     23          1           0       -1.537969   -1.738272    1.713658
     24          1           0       -1.283359   -2.980393    0.476073
     25          6           0       -4.551922    0.318500   -0.422174
     26          6           0       -5.614344    1.211330    0.219777
     27          6           0       -6.335599    2.096573   -0.797046
     28          1           0       -3.819793    0.949484   -0.944898
     29          1           0       -5.025190   -0.311073   -1.188072
     30          1           0       -5.138524    1.838715    0.984368
     31          1           0       -6.343484    0.578923    0.742302
     32          1           0       -6.836125    1.484411   -1.554232
     33          1           0       -5.624319    2.751361   -1.310790
     34          1           0       -7.090734    2.726533   -0.316648
 ---------------------------------------------------------------------

 SCF Done:  E(RHF) =  -669.535884490     A.U. after   15 cycles
 E2 =    -0.2091398731D+01 EUMP2 =    -0.67162728322106D+03

 The electronic state is 1-A.
 Alpha  occ. eigenvalues --  -20.60973 -20.60964 -15.85999 -11.31320 -11.27886
 Alpha  occ. eigenvalues --  -11.27878 -11.27618 -11.26889 -11.26879 -11.21050
 Alpha  occ. eigenvalues --  -11.20646 -11.20629 -11.20359 -11.20096 -11.19256
 Alpha  occ. eigenvalues --   -1.60031  -1.39587  -1.19488  -1.08893  -1.07502
 Alpha  occ. eigenvalues --   -1.04884  -1.02473  -0.95740  -0.94921  -0.86285
 Alpha  occ. eigenvalues --   -0.85957  -0.82568  -0.78619  -0.77624  -0.77237
 Alpha  occ. eigenvalues --   -0.72231  -0.71342  -0.70597  -0.65148  -0.64888
 Alpha  occ. eigenvalues --   -0.64139  -0.62232  -0.59860  -0.58388  -0.56499
 Alpha  occ. eigenvalues --   -0.55387  -0.54230  -0.53216  -0.52975  -0.51600
 Alpha  occ. eigenvalues --   -0.51373  -0.49074  -0.48979  -0.48763  -0.46901
 Alpha  occ. eigenvalues --   -0.45711  -0.45048  -0.44791  -0.44573  -0.42728
 Alpha  occ. eigenvalues --   -0.37465  -0.36485
 Alpha virt. eigenvalues --    0.04895   0.11170   0.16385   0.21277   0.23677
 Alpha virt. eigenvalues --    0.25367   0.27202   0.27470   0.28183   0.28410
 Alpha virt. eigenvalues --    0.29107   0.30883   0.32162   0.32540   0.32729

 Mulliken charges:
               1
     1  C   -0.170585
     2  C   -0.218559
     3  C   -0.170500
     4  C    0.157628
     5  C   -0.170772
     6  C   -0.218491
     7  H    0.226094
     8  H    0.223917
     9  H    0.275948
    10  H    0.275250
    11  H    0.223872
    12  N    0.492309
    13  O   -0.462416
    14  O   -0.459178
    15  C   -0.297330
    16  C   -0.301406
    17  C   -0.467617
    18  H    0.145821
    19  H    0.146134
    20  H    0.162229
    21  H    0.145980
    22  H    0.141395
    23  H    0.154184
    24  H    0.173454
    25  C   -0.297126
    26  C   -0.298570
    27  C   -0.475003
    28  H    0.147592
    29  H    0.148718
    30  H    0.149448
    31  H    0.151167
    32  H    0.154917
    33  H    0.153542
    34  H    0.157954
 Sum of Mulliken charges =  -0.00000

 Dipole moment (field-independent basis, Debye):
    X=              3.9275    Y=              3.7413    Z=              0.6007  Tot=              5.4574
 Quadrupole moment (field-independent basis, Debye-Ang):
   XX=            -71.9853   YY=            -94.2815   ZZ=            -95.2177
   XY=             10.3821   XZ=             -0.1284   YZ=              1.8331

 Normal termination of Gaussian 16 at Thu May  6 04:43:05 2021.
