 Gaussian 16, Revision A.03,
 Gaussian 16:  EM64L-G16RevA.03 25-Dec-2016

 -------------
 #p 6-31g* mp2
 -------------

 ------------------------------------------------------
 Input file generated by CHIRIPA (05-May-2021 14:55:19)
 ------------------------------------------------------
 Symbolic Z-matrix:
 Charge =  0 Multiplicity = 1

                         Standard orientation:
 ---------------------------------------------------------------------
 Center     Atomic      Atomic             Coordinates (Angstroms)
 Number     Number       Type             X           Y           Z
 ---------------------------------------------------------------------
      1          6           0       -1.409251   -0.096153    0.854339
      2          6           0       -2.028452   -1.323714    0.597035
      3          6           0       -3.361802   -1.372664    0.179506
      4          6           0       -4.049246   -0.169325    0.028893
      5          6           0       -3.460105    1.069397    0.277429
      6          6           0       -2.125791    1.094386    0.693997
      7          1           0       -0.373099   -0.067434    1.178313
      8          1           0       -1.474426   -2.249891    0.720714
      9          1           0       -3.865682   -2.309172   -0.026592
     10          1           0       -4.038175    1.975917    0.145234
     11          1           0       -1.647481    2.049175    0.893099
     12          7           0       -5.461314   -0.208463   -0.412618
     13          8           0       -6.045182    0.865813   -0.537789
     14          8           0       -5.957488   -1.312674   -0.625143
     15          6           0        4.133860    0.167558    0.001509
     16          6           0        3.392761    1.469407   -0.305000
     17          6           0        1.890670    1.371807   -0.036688
     18          1           0        3.703854   -0.642767   -0.602985
     19          1           0        3.965107   -0.103463    1.052920
     20          1           0        3.563995    1.738623   -1.355151
     21          1           0        3.824708    2.276765    0.300153
     22          1           0        1.702051    1.126977    1.013589
     23          1           0        1.439856    0.585778   -0.651120
     24          1           0        1.380508    2.313414   -0.262455
     25          6           0        5.636432    0.249401   -0.261756
     26          6           0        6.377532   -1.052448    0.044753
     27          6           0        7.879623   -0.954848   -0.223559
     28          1           0        5.805185    0.520422   -1.313166
     29          1           0        6.066438    1.059725    0.342739
     30          1           0        5.945584   -1.859806   -0.560400
     31          1           0        6.206298   -1.321664    1.094904
     32          1           0        8.330436   -0.168819    0.390873
     33          1           0        8.068242   -0.710020   -1.273837
     34          1           0        8.389785   -1.896455    0.002208
 ---------------------------------------------------------------------

 SCF Done:  E(RHF) =  -669.535207398     A.U. after   15 cycles
 E2 =    -0.2091416885D+01 EUMP2 =    -0.67162662428357D+03

 The electronic state is 1-A.
 Alpha  occ. eigenvalues --  -20.60684 -20.60679 -15.85738 -11.31074 -11.27651
 Alpha  occ. eigenvalues --  -11.27645 -11.27291 -11.26639 -11.26623 -11.22556
 Alpha  occ. eigenvalues --  -11.22387 -11.22227 -11.22169 -11.22027 -11.21535
 Alpha  occ. eigenvalues --   -1.59761  -1.39315  -1.19243  -1.09209  -1.08633
 Alpha  occ. eigenvalues --   -1.04647  -1.04342  -0.96831  -0.95471  -0.87858
 Alpha  occ. eigenvalues --   -0.86037  -0.82318  -0.80429  -0.78988  -0.77371
 Alpha  occ. eigenvalues --   -0.71955  -0.71084  -0.70342  -0.65831  -0.64889
 Alpha  occ. eigenvalues --   -0.64650  -0.62000  -0.61732  -0.60202  -0.58442
 Alpha  occ. eigenvalues --   -0.56126  -0.55214  -0.53516  -0.53183  -0.52917
 Alpha  occ. eigenvalues --   -0.52729  -0.50762  -0.48761  -0.48712  -0.48653
 Alpha  occ. eigenvalues --   -0.47431  -0.46534  -0.46432  -0.44727  -0.44577
 Alpha  occ. eigenvalues --   -0.37191  -0.36259
 Alpha virt. eigenvalues --    0.05152   0.11375   0.16610   0.20456   0.22254
 Alpha virt. eigenvalues --    0.23767   0.25589   0.26206   0.26513   0.27446
 Alpha virt. eigenvalues --    0.29174   0.29725   0.30800   0.31529   0.32199

 Mulliken charges:
               1
     1  C   -0.171773
     2  C   -0.221096
     3  C   -0.170803
     4  C    0.158035
     5  C   -0.171117
     6  C   -0.221402
     7  H    0.233397
     8  H    0.223055
     9  H    0.275028
    10  H    0.275078
    11  H    0.223604
    12  N    0.488091
    13  O   -0.460833
    14  O   -0.460846
    15  C   -0.299232
    16  C   -0.299801
    17  C   -0.482717
    18  H    0.149738
    19  H    0.147885
    20  H    0.156521
    21  H    0.154676
    22  H    0.147311
    23  H    0.159245
    24  H    0.162654
    25  C   -0.298848
    26  C   -0.300159
    27  C   -0.476126
    28  H    0.151438
    29  H    0.150991
    30  H    0.152303
    31  H    0.151837
    32  H    0.155944
    33  H    0.156244
    34  H    0.161677
 Sum of Mulliken charges =  -0.00000

 Dipole moment (field-independent basis, Debye):
    X=              5.2575    Y=              0.1752    Z=              1.4911  Tot=              5.4677
 Quadrupole moment (field-independent basis, Debye-Ang):
   XX=           -136.2482   YY=            -89.6551   ZZ=            -94.6373
   XY=             -1.4376   XZ=             -6.0754   YZ=              0.2025

 Normal termination of Gaussian 16 at Thu May  6 02:53:17 2021.
