 Gaussian 16, Revision A.03,
 Gaussian 16:  EM64L-G16RevA.03 25-Dec-2016

 -------------
 #p 6-31g* mp2
 -------------

 ------------------------------------------------------
 Input file generated by CHIRIPA (05-May-2021 14:53:14)
 ------------------------------------------------------
 Symbolic Z-matrix:
 Charge =  0 Multiplicity = 1

                         Standard orientation:
 ---------------------------------------------------------------------
 Center     Atomic      Atomic             Coordinates (Angstroms)
 Number     Number       Type             X           Y           Z
 ---------------------------------------------------------------------
      1          6           0        3.523330    0.000303   -0.467595
      2          6           0        4.628244   -0.980690   -0.074144
      3          6           0        4.896684   -2.031865   -1.151533
      4          1           0        2.600836   -0.559662   -0.673479
      5          1           0        3.802404    0.498879   -1.406176
      6          1           0        4.347805   -1.476258    0.864143
      7          1           0        5.548164   -0.418308    0.131013
      8          1           0        5.201087   -1.554208   -2.088434
      9          1           0        3.993908   -2.618169   -1.351138
     10          1           0        5.690019   -2.722727   -0.849556
     11          6           0        3.243430    1.057221    0.599320
     12          6           0        2.138517    2.038214    0.205869
     13          6           0        1.870076    3.089389    1.283258
     14          1           0        2.964357    0.558645    1.537901
     15          1           0        4.165925    1.617186    0.805204
     16          1           0        1.218597    1.475832    0.000712
     17          1           0        2.418955    2.533782   -0.732418
     18          1           0        2.772853    3.675694    1.482863
     19          1           0        1.565674    2.611732    2.220159
     20          1           0        1.076742    3.780251    0.981281
     21          6           0       -1.405845   -2.416830    0.853951
     22          6           0       -2.796876   -2.338368    0.978040
     23          6           0       -3.492895   -1.232860    0.480087
     24          6           0       -2.762895   -0.219382   -0.138986
     25          6           0       -1.376686   -0.268493   -0.277918
     26          6           0       -0.701431   -1.383463    0.227474
     27          1           0       -0.873227   -3.279291    1.243663
     28          1           0       -3.346539   -3.139408    1.464100
     29          1           0       -4.569528   -1.146475    0.562652
     30          1           0       -0.856212    0.545703   -0.767420
     31          1           0        0.378888   -1.441709    0.129690
     32          7           0       -3.488747    0.955979   -0.670085
     33          8           0       -2.822435    1.835617   -1.211290
     34          8           0       -4.710239    0.975334   -0.535098
 ---------------------------------------------------------------------

 SCF Done:  E(RHF) =  -669.535096145     A.U. after   15 cycles
 E2 =    -0.2092475519D+01 EUMP2 =    -0.67162757166476D+03

 The electronic state is 1-A.
 Alpha  occ. eigenvalues --  -20.60757 -20.60751 -15.85810 -11.31179 -11.27757
 Alpha  occ. eigenvalues --  -11.27731 -11.27502 -11.26775 -11.26756 -11.22311
 Alpha  occ. eigenvalues --  -11.22210 -11.22161 -11.22006 -11.21712 -11.21324
 Alpha  occ. eigenvalues --   -1.59832  -1.39385  -1.19357  -1.09112  -1.08751
 Alpha  occ. eigenvalues --   -1.04766  -1.04103  -0.96538  -0.95585  -0.87549
 Alpha  occ. eigenvalues --   -0.86162  -0.82424  -0.80185  -0.78946  -0.77457
 Alpha  occ. eigenvalues --   -0.72029  -0.71154  -0.70477  -0.65811  -0.65007
 Alpha  occ. eigenvalues --   -0.64769  -0.62147  -0.61466  -0.59900  -0.58145
 Alpha  occ. eigenvalues --   -0.55849  -0.55269  -0.53187  -0.53091  -0.53006
 Alpha  occ. eigenvalues --   -0.52805  -0.50480  -0.48790  -0.48786  -0.48471
 Alpha  occ. eigenvalues --   -0.47230  -0.46468  -0.46377  -0.44789  -0.44379
 Alpha  occ. eigenvalues --   -0.37340  -0.36357
 Alpha virt. eigenvalues --    0.05047   0.11273   0.16495   0.18589   0.22751
 Alpha virt. eigenvalues --    0.23628   0.24752   0.26343   0.26941   0.28040
 Alpha virt. eigenvalues --    0.29136   0.31099   0.31372   0.31580   0.32231

 Mulliken charges:
               1
     1  C   -0.302102
     2  C   -0.300063
     3  C   -0.475491
     4  H    0.140372
     5  H    0.155063
     6  H    0.149840
     7  H    0.155910
     8  H    0.158218
     9  H    0.151611
    10  H    0.162434
    11  C   -0.299109
    12  C   -0.303374
    13  C   -0.476688
    14  H    0.148107
    15  H    0.153944
    16  H    0.145015
    17  H    0.156718
    18  H    0.156378
    19  H    0.155144
    20  H    0.168243
    21  C   -0.171963
    22  C   -0.218463
    23  C   -0.170846
    24  C    0.159985
    25  C   -0.178696
    26  C   -0.225292
    27  H    0.226020
    28  H    0.223461
    29  H    0.275631
    30  H    0.281296
    31  H    0.231391
    32  N    0.488057
    33  O   -0.460210
    34  O   -0.460542
 Sum of Mulliken charges =  -0.00000

 Dipole moment (field-independent basis, Debye):
    X=              2.7042    Y=             -4.0029    Z=              1.8829  Tot=              5.1847
 Quadrupole moment (field-independent basis, Debye-Ang):
   XX=           -104.0826   YY=            -92.5408   ZZ=            -95.8192
   XY=             13.9040   XZ=             -7.3190   YZ=             -1.3855

 Normal termination of Gaussian 16 at Wed May  5 23:26:06 2021.
