 Gaussian 16, Revision A.03,
 Gaussian 16:  EM64L-G16RevA.03 25-Dec-2016

 -------------
 #p 6-31g* mp2
 -------------

 ------------------------------------------------------
 Input file generated by CHIRIPA (05-May-2021 14:55:19)
 ------------------------------------------------------
 Symbolic Z-matrix:
 Charge =  0 Multiplicity = 1

                         Standard orientation:
 ---------------------------------------------------------------------
 Center     Atomic      Atomic             Coordinates (Angstroms)
 Number     Number       Type             X           Y           Z
 ---------------------------------------------------------------------
      1          6           0        1.679403    2.332734    0.600237
      2          6           0        1.934673    1.503806    1.697614
      3          6           0        2.607456    0.289912    1.529175
      4          6           0        3.012622   -0.065515    0.243561
      5          6           0        2.773101    0.738747   -0.869580
      6          6           0        2.098692    1.948237   -0.677605
      7          1           0        1.156138    3.274006    0.740226
      8          1           0        1.610212    1.799854    2.691156
      9          1           0        2.818147   -0.370894    2.361259
     10          1           0        3.108803    0.416677   -1.847840
     11          1           0        1.901816    2.589994   -1.531673
     12          7           0        3.725727   -1.348279    0.052784
     13          8           0        4.072325   -1.638654   -1.090102
     14          8           0        3.924559   -2.039046    1.049752
     15          6           0       -3.013361   -0.450371   -0.537952
     16          6           0       -2.177232    0.551140   -1.335355
     17          6           0       -0.794760    0.009235   -1.699910
     18          1           0       -2.471728   -0.723376    0.378043
     19          1           0       -3.123133   -1.373879   -1.123170
     20          1           0       -2.070235    1.472992   -0.749388
     21          1           0       -2.721004    0.821938   -2.249464
     22          1           0       -0.884181   -0.898414   -2.305533
     23          1           0       -0.229714   -0.243661   -0.796934
     24          1           0       -0.213996    0.741364   -2.269614
     25          6           0       -4.398078    0.076867   -0.166057
     26          6           0       -5.234206   -0.924644    0.631344
     27          6           0       -6.616679   -0.382740    0.995901
     28          1           0       -4.288306    1.000374    0.419160
     29          1           0       -4.939710    0.349872   -1.082052
     30          1           0       -4.690434   -1.195442    1.545454
     31          1           0       -5.341204   -1.846496    0.045379
     32          1           0       -7.181724   -0.129843    0.092924
     33          1           0       -6.527258    0.524909    1.601523
     34          1           0       -7.197442   -1.114868    1.565604
 ---------------------------------------------------------------------

 SCF Done:  E(RHF) =  -669.534511201     A.U. after   15 cycles
 E2 =    -0.2092814678D+01 EUMP2 =    -0.67162732587895D+03

 The electronic state is 1-A.
 Alpha  occ. eigenvalues --  -20.60773 -20.60768 -15.85827 -11.31211 -11.27784
 Alpha  occ. eigenvalues --  -11.27740 -11.27513 -11.26814 -11.26765 -11.21903
 Alpha  occ. eigenvalues --  -11.21799 -11.21645 -11.21584 -11.21264 -11.21225
 Alpha  occ. eigenvalues --   -1.59848  -1.39401  -1.19388  -1.08779  -1.08666
 Alpha  occ. eigenvalues --   -1.04795  -1.03754  -0.96198  -0.95606  -0.87218
 Alpha  occ. eigenvalues --   -0.86184  -0.82440  -0.79827  -0.78482  -0.77485
 Alpha  occ. eigenvalues --   -0.72045  -0.71172  -0.70485  -0.65303  -0.65035
 Alpha  occ. eigenvalues --   -0.64797  -0.62142  -0.61169  -0.59592  -0.57817
 Alpha  occ. eigenvalues --   -0.55567  -0.55286  -0.53371  -0.52905  -0.52675
 Alpha  occ. eigenvalues --   -0.52544  -0.50056  -0.48806  -0.48798  -0.48137
 Alpha  occ. eigenvalues --   -0.46843  -0.46017  -0.45950  -0.44802  -0.44034
 Alpha  occ. eigenvalues --   -0.37366  -0.36300
 Alpha virt. eigenvalues --    0.05044   0.11208   0.16465   0.21027   0.22674
 Alpha virt. eigenvalues --    0.24092   0.26368   0.26507   0.27211   0.28171
 Alpha virt. eigenvalues --    0.28285   0.30318   0.31166   0.31677   0.32330

 Mulliken charges:
               1
     1  C   -0.172012
     2  C   -0.218805
     3  C   -0.172601
     4  C    0.158391
     5  C   -0.168601
     6  C   -0.213509
     7  H    0.225537
     8  H    0.223433
     9  H    0.275678
    10  H    0.275802
    11  H    0.223023
    12  N    0.488090
    13  O   -0.459984
    14  O   -0.460556
    15  C   -0.298611
    16  C   -0.299387
    17  C   -0.474012
    18  H    0.150032
    19  H    0.151973
    20  H    0.145732
    21  H    0.151524
    22  H    0.157266
    23  H    0.161102
    24  H    0.150981
    25  C   -0.298032
    26  C   -0.299810
    27  C   -0.475724
    28  H    0.147075
    29  H    0.149928
    30  H    0.151916
    31  H    0.153404
    32  H    0.155459
    33  H    0.154146
    34  H    0.161154
 Sum of Mulliken charges =  -0.00000

 Dipole moment (field-independent basis, Debye):
    X=             -2.4896    Y=              4.4734    Z=              0.6745  Tot=              5.1637
 Quadrupole moment (field-independent basis, Debye-Ang):
   XX=           -111.6332   YY=            -95.7976   ZZ=            -89.0783
   XY=             14.5265   XZ=              1.6386   YZ=              0.3523

 Normal termination of Gaussian 16 at Thu May  6 01:17:47 2021.
