 Gaussian 16, Revision A.03,
 Gaussian 16:  EM64L-G16RevA.03 25-Dec-2016

 -------------
 #p 6-31g* mp2
 -------------

 ------------------------------------------------------
 Input file generated by CHIRIPA (05-May-2021 14:53:16)
 ------------------------------------------------------
 Symbolic Z-matrix:
 Charge =  0 Multiplicity = 1

                         Standard orientation:
 ---------------------------------------------------------------------
 Center     Atomic      Atomic             Coordinates (Angstroms)
 Number     Number       Type             X           Y           Z
 ---------------------------------------------------------------------
      1          6           0        4.457189   -0.062812   -0.454427
      2          6           0        5.541240    0.040505    0.618953
      3          6           0        6.923987    0.334281    0.036287
      4          1           0        4.730993   -0.851699   -1.168314
      5          1           0        4.424159    0.876340   -1.023897
      6          1           0        5.571275   -0.898053    1.187128
      7          1           0        5.264729    0.829107    1.330475
      8          1           0        6.916922    1.280549   -0.514283
      9          1           0        7.225209   -0.456424   -0.658445
     10          1           0        7.683756    0.404002    0.820984
     11          6           0        3.069299   -0.356196    0.112510
     12          6           0        1.985248   -0.459513   -0.960870
     13          6           0        0.602501   -0.753289   -0.378204
     14          1           0        3.102329   -1.295348    0.681980
     15          1           0        2.795496    0.432691    0.826397
     16          1           0        2.261759   -1.248115   -1.672392
     17          1           0        1.955214    0.479045   -1.529045
     18          1           0        0.301279    0.037416    0.316528
     19          1           0        0.609566   -1.699557    0.172366
     20          1           0       -0.157268   -0.823010   -1.162902
     21          6           0       -2.563851    2.657838    0.073921
     22          6           0       -3.159838    2.013570   -1.015225
     23          6           0       -3.373147    0.632064   -0.993135
     24          6           0       -2.976403   -0.077451    0.139327
     25          6           0       -2.380166    0.535699    1.240162
     26          6           0       -2.176600    1.918151    1.196160
     27          1           0       -2.401931    3.731393    0.048249
     28          1           0       -3.461593    2.585481   -1.888098
     29          1           0       -3.832388    0.107924   -1.822469
     30          1           0       -2.090000   -0.061166    2.096301
     31          1           0       -1.713522    2.415840    2.043455
     32          7           0       -3.197066   -1.540491    0.174312
     33          8           0       -2.838551   -2.142986    1.183818
     34          8           0       -3.724359   -2.057023   -0.808437
 ---------------------------------------------------------------------

 SCF Done:  E(RHF) =  -669.534620976     A.U. after   15 cycles
 E2 =    -0.2093178194D+01 EUMP2 =    -0.67162779917012D+03

 The electronic state is 1-A.
 Alpha  occ. eigenvalues --  -20.60752 -20.60740 -15.85794 -11.31136 -11.27758
 Alpha  occ. eigenvalues --  -11.27727 -11.27517 -11.26774 -11.26764 -11.21648
 Alpha  occ. eigenvalues --  -11.21524 -11.21422 -11.21358 -11.21121 -11.20847
 Alpha  occ. eigenvalues --   -1.59816  -1.39371  -1.19358  -1.08748  -1.08427
 Alpha  occ. eigenvalues --   -1.04774  -1.03501  -0.95958  -0.95578  -0.86983
 Alpha  occ. eigenvalues --   -0.86159  -0.82418  -0.79584  -0.78249  -0.77456
 Alpha  occ. eigenvalues --   -0.72020  -0.71131  -0.70474  -0.65063  -0.65012
 Alpha  occ. eigenvalues --   -0.64773  -0.62117  -0.60910  -0.59336  -0.57568
 Alpha  occ. eigenvalues --   -0.55320  -0.55269  -0.53325  -0.52863  -0.52495
 Alpha  occ. eigenvalues --   -0.52280  -0.49839  -0.48778  -0.48773  -0.47895
 Alpha  occ. eigenvalues --   -0.46596  -0.45793  -0.45712  -0.44763  -0.43777
 Alpha  occ. eigenvalues --   -0.37293  -0.36306
 Alpha virt. eigenvalues --    0.05063   0.11235   0.16509   0.21369   0.22871
 Alpha virt. eigenvalues --    0.24319   0.26642   0.27117   0.27562   0.27807
 Alpha virt. eigenvalues --    0.28518   0.30807   0.31500   0.31793   0.31846

 Mulliken charges:
               1
     1  C   -0.298085
     2  C   -0.299498
     3  C   -0.475646
     4  H    0.150850
     5  H    0.147986
     6  H    0.152979
     7  H    0.150277
     8  H    0.154372
     9  H    0.155905
    10  H    0.160186
    11  C   -0.297974
    12  C   -0.299567
    13  C   -0.481567
    14  H    0.151765
    15  H    0.145690
    16  H    0.153560
    17  H    0.148686
    18  H    0.152746
    19  H    0.163327
    20  H    0.158819
    21  C   -0.170419
    22  C   -0.218208
    23  C   -0.172658
    24  C    0.165348
    25  C   -0.170960
    26  C   -0.219184
    27  H    0.225509
    28  H    0.223352
    29  H    0.275590
    30  H    0.276080
    31  H    0.223302
    32  N    0.488961
    33  O   -0.460363
    34  O   -0.461161
 Sum of Mulliken charges =  -0.00000

 Dipole moment (field-independent basis, Debye):
    X=              0.7210    Y=              5.1016    Z=             -0.1047  Tot=              5.1534
 Quadrupole moment (field-independent basis, Debye-Ang):
   XX=           -100.5180   YY=            -95.1567   ZZ=            -90.8694
   XY=            -16.1987   XZ=              2.8887   YZ=              0.6405

 Normal termination of Gaussian 16 at Thu May  6 20:28:08 2021.
