 Gaussian 16, Revision A.03,
 Gaussian 16:  EM64L-G16RevA.03 25-Dec-2016

 -------------
 #p 6-31g* mp2
 -------------

 ------------------------------------------------------
 Input file generated by CHIRIPA (05-May-2021 14:55:25)
 ------------------------------------------------------
 Symbolic Z-matrix:
 Charge =  0 Multiplicity = 1

                         Standard orientation:
 ---------------------------------------------------------------------
 Center     Atomic      Atomic             Coordinates (Angstroms)
 Number     Number       Type             X           Y           Z
 ---------------------------------------------------------------------
      1          6           0        1.191793   -1.712935    1.499754
      2          6           0        0.729231   -0.472136    1.049227
      3          6           0        1.551364    0.354655    0.277823
      4          6           0        2.836235   -0.092802   -0.025784
      5          6           0        3.325927   -1.323684    0.408292
      6          6           0        2.486382   -2.134006    1.178415
      7          1           0        0.546378   -2.348809    2.098502
      8          1           0       -0.275705   -0.142542    1.297252
      9          1           0        1.218702    1.319967   -0.084015
     10          1           0        4.332531   -1.625016    0.144919
     11          1           0        2.848280   -3.097132    1.526932
     12          7           0        3.715807    0.773767   -0.841757
     13          8           0        4.843700    0.356575   -1.095618
     14          8           0        3.260668    1.853768   -1.212005
     15          6           0       -3.955964   -0.178073   -0.442591
     16          6           0       -3.422462   -1.600027   -0.619821
     17          6           0       -4.456612   -2.547904   -1.227979
     18          1           0       -4.850063   -0.205556    0.195200
     19          1           0       -4.280049    0.208802   -1.418651
     20          1           0       -3.098198   -1.983595    0.356061
     21          1           0       -2.529419   -1.569133   -1.257107
     22          1           0       -4.773156   -2.191586   -2.213595
     23          1           0       -5.345167   -2.608404   -0.591261
     24          1           0       -4.054230   -3.558872   -1.345847
     25          6           0       -2.933690    0.781268    0.164325
     26          6           0       -3.467193    2.203221    0.341553
     27          6           0       -2.433043    3.151098    0.949713
     28          1           0       -2.609606    0.394392    1.140384
     29          1           0       -2.039592    0.808751   -0.473466
     30          1           0       -4.360236    2.172328    0.978841
     31          1           0       -3.791457    2.586789   -0.634327
     32          1           0       -1.544487    3.211598    0.312994
     33          1           0       -2.116499    2.794781    1.935328
     34          1           0       -2.835425    4.162067    1.067581
 ---------------------------------------------------------------------

 SCF Done:  E(RHF) =  -669.535479500     A.U. after   15 cycles
 E2 =    -0.2092137653D+01 EUMP2 =    -0.67162761715288D+03

 The electronic state is 1-A.
 Alpha  occ. eigenvalues --  -20.60702 -20.60697 -15.85753 -11.31093 -11.27656
 Alpha  occ. eigenvalues --  -11.27633 -11.27375 -11.26676 -11.26561 -11.22427
 Alpha  occ. eigenvalues --  -11.22344 -11.22330 -11.22141 -11.21791 -11.21656
 Alpha  occ. eigenvalues --   -1.59778  -1.39332  -1.19253  -1.09261  -1.08652
 Alpha  occ. eigenvalues --   -1.04647  -1.04260  -0.96720  -0.95496  -0.87732
 Alpha  occ. eigenvalues --   -0.86049  -0.82333  -0.80332  -0.79148  -0.77357
 Alpha  occ. eigenvalues --   -0.71972  -0.71100  -0.70368  -0.65886  -0.64900
 Alpha  occ. eigenvalues --   -0.64648  -0.62013  -0.61642  -0.60082  -0.58338
 Alpha  occ. eigenvalues --   -0.56006  -0.55157  -0.53376  -0.53229  -0.52979
 Alpha  occ. eigenvalues --   -0.52659  -0.50654  -0.48746  -0.48730  -0.48625
 Alpha  occ. eigenvalues --   -0.47361  -0.46581  -0.46557  -0.44743  -0.44547
 Alpha  occ. eigenvalues --   -0.37234  -0.36241
 Alpha virt. eigenvalues --    0.05134   0.11379   0.16593   0.19725   0.22673
 Alpha virt. eigenvalues --    0.23167   0.24465   0.25638   0.27081   0.28729
 Alpha virt. eigenvalues --    0.29086   0.30173   0.31151   0.31388   0.31660

 Mulliken charges:
               1
     1  C   -0.173217
     2  C   -0.223320
     3  C   -0.176152
     4  C    0.159015
     5  C   -0.171542
     6  C   -0.218416
     7  H    0.225159
     8  H    0.235431
     9  H    0.275652
    10  H    0.275107
    11  H    0.222853
    12  N    0.488076
    13  O   -0.460763
    14  O   -0.460861
    15  C   -0.297637
    16  C   -0.300712
    17  C   -0.476077
    18  H    0.151755
    19  H    0.154156
    20  H    0.145350
    21  H    0.155379
    22  H    0.158082
    23  H    0.156040
    24  H    0.161373
    25  C   -0.305624
    26  C   -0.299239
    27  C   -0.478748
    28  H    0.142329
    29  H    0.150871
    30  H    0.154414
    31  H    0.156834
    32  H    0.155398
    33  H    0.152671
    34  H    0.166366
 Sum of Mulliken charges =  -0.00000

 Dipole moment (field-independent basis, Debye):
    X=             -3.3549    Y=             -2.9853    Z=              2.7817  Tot=              5.2825
 Quadrupole moment (field-independent basis, Debye-Ang):
   XX=           -109.6282   YY=            -92.3769   ZZ=            -94.9788
   XY=            -11.9939   XZ=              8.2287   YZ=             -0.9463

 Normal termination of Gaussian 16 at Wed May  5 19:11:31 2021.
