 Gaussian 16, Revision A.03,
 Gaussian 16:  EM64L-G16RevA.03 25-Dec-2016

 -------------
 #p 6-31g* mp2
 -------------

 ------------------------------------------------------
 Input file generated by CHIRIPA (05-May-2021 14:53:16)
 ------------------------------------------------------
 Symbolic Z-matrix:
 Charge =  0 Multiplicity = 1

                         Standard orientation:
 ---------------------------------------------------------------------
 Center     Atomic      Atomic             Coordinates (Angstroms)
 Number     Number       Type             X           Y           Z
 ---------------------------------------------------------------------
      1          6           0       -3.943724    0.703450   -0.017318
      2          6           0       -2.884651    0.964985   -1.088742
      3          6           0       -2.003555    2.172365   -0.766724
      4          1           0       -4.571635    1.597962    0.094591
      5          1           0       -3.446122    0.547851    0.949933
      6          1           0       -3.384030    1.118674   -2.053945
      7          1           0       -2.259310    0.069679   -1.198249
      8          1           0       -1.479233    2.024316    0.182891
      9          1           0       -2.610343    3.079271   -0.677667
     10          1           0       -1.253492    2.341156   -1.545682
     11          6           0       -4.832405   -0.500408   -0.325050
     12          6           0       -5.891478   -0.761943    0.746373
     13          6           0       -6.772574   -1.969323    0.424355
     14          1           0       -5.330007   -0.344809   -1.292302
     15          1           0       -4.204494   -1.394920   -0.436960
     16          1           0       -6.516819    0.133363    0.855880
     17          1           0       -5.392099   -0.915632    1.711576
     18          1           0       -6.165786   -2.876229    0.335298
     19          1           0       -7.296896   -1.821274   -0.525259
     20          1           0       -7.522637   -2.138114    1.203313
     21          6           0        5.601358   -1.211102   -0.468136
     22          6           0        4.576390   -1.115091   -1.415101
     23          6           0        3.368079   -0.490144   -1.092650
     24          6           0        3.218080    0.030104    0.191924
     25          6           0        4.220530   -0.049841    1.157323
     26          6           0        5.420476   -0.679108    0.812795
     27          1           0        6.536754   -1.698254   -0.727199
     28          1           0        4.714070   -1.527339   -2.410661
     29          1           0        2.558037   -0.401951   -1.806423
     30          1           0        4.053833    0.370650    2.141608
     31          1           0        6.214746   -0.752218    1.550247
     32          7           0        1.943324    0.693994    0.544975
     33          8           0        1.836037    1.144278    1.683559
     34          8           0        1.075593    0.751497   -0.323572
 ---------------------------------------------------------------------

 SCF Done:  E(RHF) =  -669.535819528     A.U. after   15 cycles
 E2 =    -0.2091275349D+01 EUMP2 =    -0.67162709487744D+03

 The electronic state is 1-A.
 Alpha  occ. eigenvalues --  -20.60971 -20.60965 -15.85998 -11.31316 -11.27879
 Alpha  occ. eigenvalues --  -11.27875 -11.27614 -11.26884 -11.26874 -11.20889
 Alpha  occ. eigenvalues --  -11.20511 -11.20505 -11.20226 -11.20136 -11.19083
 Alpha  occ. eigenvalues --   -1.60032  -1.39588  -1.19484  -1.08890  -1.07384
 Alpha  occ. eigenvalues --   -1.04879  -1.02377  -0.95737  -0.94802  -0.86281
 Alpha  occ. eigenvalues --   -0.85825  -0.82564  -0.78506  -0.77620  -0.77144
 Alpha  occ. eigenvalues --   -0.72222  -0.71345  -0.70593  -0.65141  -0.64883
 Alpha  occ. eigenvalues --   -0.64018  -0.62227  -0.59761  -0.58274  -0.56408
 Alpha  occ. eigenvalues --   -0.55388  -0.54096  -0.53212  -0.52969  -0.51496
 Alpha  occ. eigenvalues --   -0.51245  -0.49232  -0.48978  -0.48450  -0.46794
 Alpha  occ. eigenvalues --   -0.45534  -0.45008  -0.44682  -0.44548  -0.42639
 Alpha  occ. eigenvalues --   -0.37463  -0.36480
 Alpha virt. eigenvalues --    0.04906   0.11175   0.16403   0.21304   0.23832
 Alpha virt. eigenvalues --    0.25514   0.27229   0.27638   0.28177   0.28485
 Alpha virt. eigenvalues --    0.29268   0.30896   0.32360   0.32616   0.32674

 Mulliken charges:
               1
     1  C   -0.298239
     2  C   -0.299838
     3  C   -0.470064
     4  H    0.146441
     5  H    0.152247
     6  H    0.143299
     7  H    0.154250
     8  H    0.174343
     9  H    0.141380
    10  H    0.159532
    11  C   -0.297191
    12  C   -0.298922
    13  C   -0.475031
    14  H    0.146747
    15  H    0.147893
    16  H    0.150861
    17  H    0.151867
    18  H    0.153815
    19  H    0.153806
    20  H    0.158146
    21  C   -0.170576
    22  C   -0.218533
    23  C   -0.170894
    24  C    0.157705
    25  C   -0.170590
    26  C   -0.218583
    27  H    0.226072
    28  H    0.223922
    29  H    0.275733
    30  H    0.275886
    31  H    0.223883
    32  N    0.490585
    33  O   -0.459735
    34  O   -0.460216
 Sum of Mulliken charges =  -0.00000

 Dipole moment (field-independent basis, Debye):
    X=              4.9048    Y=             -2.3441    Z=             -1.1605  Tot=              5.5587
 Quadrupole moment (field-independent basis, Debye-Ang):
   XX=            -67.3449   YY=            -96.2777   ZZ=            -91.0286
   XY=             -8.2030   XZ=             -1.3716   YZ=              0.3449

 Normal termination of Gaussian 16 at Thu May  6 09:04:09 2021.
