 Gaussian 16, Revision A.03,
 Gaussian 16:  EM64L-G16RevA.03 25-Dec-2016

 -------------
 #p 6-31g* mp2
 -------------

 ------------------------------------------------------
 Input file generated by CHIRIPA (05-May-2021 14:57:21)
 ------------------------------------------------------
 Symbolic Z-matrix:
 Charge =  0 Multiplicity = 1

                         Standard orientation:
 ---------------------------------------------------------------------
 Center     Atomic      Atomic             Coordinates (Angstroms)
 Number     Number       Type             X           Y           Z
 ---------------------------------------------------------------------
      1          6           0        5.523632   -0.666519    0.138383
      2          6           0        5.123849    0.606696   -0.280685
      3          6           0        3.767852    0.910381   -0.434294
      4          6           0        2.834263   -0.087548   -0.158904
      5          6           0        3.201135   -1.365442    0.260241
      6          6           0        4.562693   -1.646796    0.407035
      7          1           0        6.579163   -0.893755    0.255063
      8          1           0        5.867924    1.369958   -0.490039
      9          1           0        3.430611    1.887804   -0.757296
     10          1           0        2.436192   -2.105586    0.461406
     11          1           0        4.870261   -2.636458    0.732638
     12          7           0        1.395787    0.222129   -0.317915
     13          8           0        0.592891   -0.674535   -0.068940
     14          8           0        1.098442    1.355655   -0.688512
     15          6           0       -1.850087    2.243240    0.799699
     16          6           0       -2.040332    1.218742    1.732828
     17          6           0       -2.715539    0.048219    1.374332
     18          6           0       -3.189408   -0.064883    0.068214
     19          6           0       -3.015640    0.938122   -0.884191
     20          6           0       -2.337489    2.099914   -0.503535
     21          1           0       -1.324425    3.149140    1.086794
     22          1           0       -1.662895    1.327305    2.745646
     23          1           0       -2.876743   -0.760557    2.076696
     24          1           0       -3.403330    0.800959   -1.886338
     25          1           0       -2.191201    2.893913   -1.230315
     26          7           0       -3.905778   -1.299442   -0.323040
     27          8           0       -4.313597   -1.374650   -1.480046
     28          8           0       -4.045886   -2.168505    0.534711
 ---------------------------------------------------------------------

 SCF Done:  E(RHF) =  -868.338052585     A.U. after   16 cycles
 E2 =    -0.2601381784D+01 EUMP2 =    -0.87093943436939D+03

 The electronic state is 1-A.
 Alpha  occ. eigenvalues --  -20.61290 -20.61222 -20.59396 -20.59388 -15.86283
 Alpha  occ. eigenvalues --  -15.84438 -11.31574 -11.29434 -11.28153 -11.28100
 Alpha  occ. eigenvalues --  -11.27845 -11.27133 -11.27097 -11.26073 -11.26004
 Alpha  occ. eigenvalues --  -11.25749 -11.25041 -11.24944  -1.60312  -1.58472
 Alpha  occ. eigenvalues --   -1.39875  -1.38040  -1.19735  -1.17584  -1.09143
 Alpha  occ. eigenvalues --   -1.07067  -1.05123  -1.02997  -0.95994  -0.93973
 Alpha  occ. eigenvalues --   -0.86524  -0.84443  -0.82831  -0.80856  -0.77889
 Alpha  occ. eigenvalues --   -0.75933  -0.72523  -0.71640  -0.70837  -0.70689
 Alpha  occ. eigenvalues --   -0.69769  -0.68809  -0.65389  -0.65121  -0.63309
 Alpha  occ. eigenvalues --   -0.63094  -0.62470  -0.60423  -0.55630  -0.53578
 Alpha  occ. eigenvalues --   -0.53462  -0.53211  -0.51525  -0.51177  -0.49277
 Alpha  occ. eigenvalues --   -0.48925  -0.47448  -0.47407  -0.45306  -0.43534
 Alpha  occ. eigenvalues --   -0.37717  -0.36724  -0.35435  -0.34502
 Alpha virt. eigenvalues --    0.04626   0.06651   0.10931   0.13116   0.16140
 Alpha virt. eigenvalues --    0.18235   0.21100   0.22905   0.27011   0.27985
 Alpha virt. eigenvalues --    0.28752   0.29777   0.30667   0.32191   0.32373

 Mulliken charges:
               1
     1  C   -0.170492
     2  C   -0.218457
     3  C   -0.171603
     4  C    0.158035
     5  C   -0.171079
     6  C   -0.218514
     7  H    0.226897
     8  H    0.223835
     9  H    0.273232
    10  H    0.277885
    11  H    0.225429
    12  N    0.488105
    13  O   -0.455347
    14  O   -0.465463
    15  C   -0.155602
    16  C   -0.218973
    17  C   -0.162156
    18  C    0.164383
    19  C   -0.170039
    20  C   -0.203139
    21  H    0.218397
    22  H    0.213483
    23  H    0.268309
    24  H    0.269248
    25  H    0.217381
    26  N    0.488267
    27  O   -0.465638
    28  O   -0.466381
 Sum of Mulliken charges =  -0.00000

 Dipole moment (field-independent basis, Debye):
    X=              7.9856    Y=              3.2439    Z=              1.8643  Tot=              8.8187
 Quadrupole moment (field-independent basis, Debye-Ang):
   XX=            -94.1817   YY=           -101.0643   ZZ=           -101.5213
   XY=            -17.1496   XZ=             -2.9442   YZ=             -3.3096

 Normal termination of Gaussian 16 at Wed May  5 17:45:00 2021.
