 Gaussian 16, Revision A.03,
 Gaussian 16:  EM64L-G16RevA.03 25-Dec-2016

 -------------
 #p 6-31g* mp2
 -------------

 ------------------------------------------------------
 Input file generated by CHIRIPA (05-May-2021 14:51:13)
 ------------------------------------------------------
 Symbolic Z-matrix:
 Charge =  0 Multiplicity = 1

                         Standard orientation:
 ---------------------------------------------------------------------
 Center     Atomic      Atomic             Coordinates (Angstroms)
 Number     Number       Type             X           Y           Z
 ---------------------------------------------------------------------
      1          6           0        1.934090   -0.948295    0.646136
      2          6           0        1.557649   -2.428164    0.567000
      3          6           0        0.665696   -2.874052    1.726051
      4          1           0        2.446037   -0.757184    1.599200
      5          1           0        1.016548   -0.343826    0.657491
      6          1           0        2.475657   -3.029594    0.554402
      7          1           0        1.046708   -2.615813   -0.386071
      8          1           0       -0.266003   -2.299259    1.738373
      9          1           0        1.171066   -2.715390    2.684189
     10          1           0        0.408701   -3.935173    1.649666
     11          6           0        2.825584   -0.487530   -0.505672
     12          6           0        3.202025    0.992339   -0.426535
     13          6           0        4.093977    1.438227   -1.585587
     14          1           0        3.743126   -1.091999   -0.517027
     15          1           0        2.313636   -0.678641   -1.458736
     16          1           0        3.712966    1.179988    0.526535
     17          1           0        2.284016    1.593769   -0.413938
     18          1           0        3.588607    1.279565   -2.543725
     19          1           0        5.025676    0.863434   -1.597909
     20          1           0        4.350973    2.499348   -1.509202
     21          6           0       -1.829582    1.044544    0.346858
     22          6           0       -2.028525    2.547924    0.542442
     23          6           0       -0.919646    3.187087    1.378894
     24          1           0       -1.782251    0.556431    1.329941
     25          1           0       -0.858023    0.870045   -0.135859
     26          1           0       -3.000031    2.719616    1.023392
     27          1           0       -2.075580    3.032490   -0.441224
     28          1           0        0.054584    3.045149    0.900012
     29          1           0       -0.875119    2.730499    2.372949
     30          1           0       -1.081703    4.261975    1.506225
     31          6           0       -2.930091    0.391282   -0.487322
     32          6           0       -2.731148   -1.112100   -0.682906
     33          6           0       -3.840028   -1.751263   -1.519358
     34          1           0       -3.901651    0.565779   -0.004605
     35          1           0       -2.977422    0.879393   -1.470404
     36          1           0       -2.684093   -1.596664    0.300760
     37          1           0       -1.759642   -1.283791   -1.163856
     38          1           0       -3.884555   -1.294675   -2.513413
     39          1           0       -4.814258   -1.609325   -1.040475
     40          1           0       -3.677971   -2.826151   -1.646689
 ---------------------------------------------------------------------

 SCF Done:  E(RHF) =  -470.733162408     A.U. after   11 cycles
 E2 =    -0.1584541344D+01 EUMP2 =    -0.47231770375206D+03

 The electronic state is 1-A.
 Alpha  occ. eigenvalues --  -11.21690 -11.21670 -11.21623 -11.21536 -11.21497
 Alpha  occ. eigenvalues --  -11.21437 -11.21366 -11.21242 -11.21131 -11.21112
 Alpha  occ. eigenvalues --  -11.21085 -11.21000  -1.08533  -1.08380  -1.03602
 Alpha  occ. eigenvalues --   -1.03496  -0.96052  -0.95941  -0.87070  -0.86956
 Alpha  occ. eigenvalues --   -0.79668  -0.79567  -0.78467  -0.78088  -0.65255
 Alpha  occ. eigenvalues --   -0.64933  -0.61007  -0.60894  -0.59416  -0.59313
 Alpha  occ. eigenvalues --   -0.57679  -0.57544  -0.55384  -0.55191  -0.52737
 Alpha  occ. eigenvalues --   -0.52644  -0.52520  -0.52326  -0.50009  -0.49881
 Alpha  occ. eigenvalues --   -0.48025  -0.47857  -0.46791  -0.46613  -0.46343
 Alpha  occ. eigenvalues --   -0.45779  -0.45712  -0.45046  -0.43858  -0.43743
 Alpha virt. eigenvalues --    0.19676   0.21709   0.23518   0.24142   0.25264
 Alpha virt. eigenvalues --    0.25804   0.26851   0.27698   0.28502   0.29905
 Alpha virt. eigenvalues --    0.31022   0.31150   0.31538   0.31709   0.32118

 Mulliken charges:
               1
     1  C   -0.307689
     2  C   -0.299172
     3  C   -0.478559
     4  H    0.149192
     5  H    0.159775
     6  H    0.151453
     7  H    0.151890
     8  H    0.158289
     9  H    0.154610
    10  H    0.159718
    11  C   -0.297835
    12  C   -0.302706
    13  C   -0.475594
    14  H    0.149662
    15  H    0.148426
    16  H    0.152641
    17  H    0.153011
    18  H    0.154898
    19  H    0.155506
    20  H    0.160309
    21  C   -0.305160
    22  C   -0.299105
    23  C   -0.478751
    24  H    0.150620
    25  H    0.154587
    26  H    0.152324
    27  H    0.151952
    28  H    0.157573
    29  H    0.155826
    30  H    0.160680
    31  C   -0.297768
    32  C   -0.303032
    33  C   -0.475722
    34  H    0.150053
    35  H    0.149787
    36  H    0.154229
    37  H    0.152502
    38  H    0.155302
    39  H    0.155512
    40  H    0.160764
 Sum of Mulliken charges =  -0.00000

 Dipole moment (field-independent basis, Debye):
    X=             -0.0562    Y=              0.0282    Z=              0.0063  Tot=              0.0632
 Quadrupole moment (field-independent basis, Debye-Ang):
   XX=            -84.6732   YY=            -85.3313   ZZ=            -84.7006
   XY=             -0.8037   XZ=              0.0785   YZ=             -0.2241

 Normal termination of Gaussian 16 at Wed May  5 18:21:05 2021.
