 Gaussian 16, Revision A.03,
 Gaussian 16:  EM64L-G16RevA.03 25-Dec-2016

 -------------
 #p 6-31g* mp2
 -------------

 ------------------------------------------------------
 Input file generated by CHIRIPA (05-May-2021 14:53:17)
 ------------------------------------------------------
 Symbolic Z-matrix:
 Charge =  0 Multiplicity = 1

                         Standard orientation:
 ---------------------------------------------------------------------
 Center     Atomic      Atomic             Coordinates (Angstroms)
 Number     Number       Type             X           Y           Z
 ---------------------------------------------------------------------
      1          6           0       -5.427619   -0.172823   -0.309723
      2          6           0       -6.495272    0.917032   -0.411303
      3          6           0       -7.714654    0.476336   -1.221666
      4          1           0       -5.112007   -0.463441   -1.321096
      5          1           0       -5.869883   -1.068005    0.149023
      6          1           0       -6.050764    1.810362   -0.868456
      7          1           0       -6.808240    1.205225    0.600434
      8          1           0       -8.184326   -0.400756   -0.764809
      9          1           0       -7.422546    0.207820   -2.242045
     10          1           0       -8.465295    1.270572   -1.281556
     11          6           0       -4.202396    0.252724    0.497412
     12          6           0       -3.134743   -0.837131    0.598991
     13          6           0       -1.915361   -0.396435    1.409355
     14          1           0       -3.760132    1.147906    0.038665
     15          1           0       -4.518008    0.543342    1.508785
     16          1           0       -2.821775   -1.125324   -0.412746
     17          1           0       -3.579251   -1.730461    1.056144
     18          1           0       -2.207469   -0.127919    2.429733
     19          1           0       -1.445689    0.480657    0.952498
     20          1           0       -1.164720   -1.190671    1.469244
     21          6           0        6.013029    0.983532   -0.590859
     22          6           0        5.108156    1.667870    0.227316
     23          6           0        3.857965    1.115186    0.520763
     24          6           0        3.544077   -0.129313   -0.023282
     25          6           0        4.424065   -0.835690   -0.841781
     26          6           0        5.668703   -0.263864   -1.121860
     27          1           0        6.982049    1.420305   -0.813622
     28          1           0        5.372866    2.636771    0.641085
     29          1           0        3.138421    1.623313    1.151226
     30          1           0        4.131759   -1.799893   -1.239634
     31          1           0        6.369444   -0.797601   -1.757573
     32          7           0        2.223496   -0.724547    0.280302
     33          8           0        1.970963   -1.822341   -0.211341
     34          8           0        1.465963   -0.082025    1.004143
 ---------------------------------------------------------------------

 SCF Done:  E(RHF) =  -669.535599112     A.U. after   15 cycles
 E2 =    -0.2091184664D+01 EUMP2 =    -0.67162678377558D+03

 The electronic state is 1-A.
 Alpha  occ. eigenvalues --  -20.60935 -20.60930 -15.85961 -11.31294 -11.27858
 Alpha  occ. eigenvalues --  -11.27854 -11.27597 -11.26867 -11.26857 -11.20942
 Alpha  occ. eigenvalues --  -11.20541 -11.20530 -11.20306 -11.20130 -11.18996
 Alpha  occ. eigenvalues --   -1.59997  -1.39553  -1.19463  -1.08867  -1.07433
 Alpha  occ. eigenvalues --   -1.04860  -1.02401  -0.95712  -0.94810  -0.86262
 Alpha  occ. eigenvalues --   -0.85824  -0.82538  -0.78519  -0.77592  -0.77188
 Alpha  occ. eigenvalues --   -0.72177  -0.71311  -0.70572  -0.65118  -0.64864
 Alpha  occ. eigenvalues --   -0.64081  -0.62207  -0.59815  -0.58281  -0.56406
 Alpha  occ. eigenvalues --   -0.55365  -0.54131  -0.53192  -0.52952  -0.51501
 Alpha  occ. eigenvalues --   -0.51251  -0.49058  -0.48942  -0.48590  -0.46801
 Alpha  occ. eigenvalues --   -0.45601  -0.44969  -0.44718  -0.44601  -0.42589
 Alpha  occ. eigenvalues --   -0.37443  -0.36462
 Alpha virt. eigenvalues --    0.04931   0.11193   0.16423   0.21330   0.23766
 Alpha virt. eigenvalues --    0.25512   0.27247   0.27573   0.28197   0.28415
 Alpha virt. eigenvalues --    0.29289   0.30905   0.32373   0.32525   0.32671

 Mulliken charges:
               1
     1  C   -0.297180
     2  C   -0.298708
     3  C   -0.475092
     4  H    0.148464
     5  H    0.148139
     6  H    0.150412
     7  H    0.150681
     8  H    0.154471
     9  H    0.154312
    10  H    0.157923
    11  C   -0.296909
    12  C   -0.301206
    13  C   -0.471299
    14  H    0.146931
    15  H    0.146713
    16  H    0.151265
    17  H    0.146622
    18  H    0.143015
    19  H    0.157408
    20  H    0.179076
    21  C   -0.170622
    22  C   -0.218546
    23  C   -0.170946
    24  C    0.157891
    25  C   -0.170699
    26  C   -0.218585
    27  H    0.225978
    28  H    0.223845
    29  H    0.275921
    30  H    0.275824
    31  H    0.223796
    32  N    0.489228
    33  O   -0.460120
    34  O   -0.458003
 Sum of Mulliken charges =  -0.00000

 Dipole moment (field-independent basis, Debye):
    X=              5.0876    Y=              2.0552    Z=             -1.0601  Tot=              5.5885
 Quadrupole moment (field-independent basis, Debye-Ang):
   XX=            -64.4751   YY=            -92.3388   ZZ=            -93.5170
   XY=              6.0757   XZ=             -5.6412   YZ=              2.2784

 Normal termination of Gaussian 16 at Thu May  6 15:35:03 2021.
