 Gaussian 16, Revision A.03,
 Gaussian 16:  EM64L-G16RevA.03 25-Dec-2016

 -------------
 #p 6-31g* mp2
 -------------

 ------------------------------------------------------
 Input file generated by CHIRIPA (05-May-2021 14:57:25)
 ------------------------------------------------------
 Symbolic Z-matrix:
 Charge =  0 Multiplicity = 1

                         Standard orientation:
 ---------------------------------------------------------------------
 Center     Atomic      Atomic             Coordinates (Angstroms)
 Number     Number       Type             X           Y           Z
 ---------------------------------------------------------------------
      1          6           0        5.052209    0.489361   -0.828538
      2          6           0        4.153135   -0.316871   -1.534356
      3          6           0        2.960866   -0.740003   -0.939375
      4          6           0        2.698358   -0.336411    0.368865
      5          6           0        3.574068    0.466488    1.098094
      6          6           0        4.760320    0.877782    0.483121
      7          1           0        5.976055    0.813462   -1.298499
      8          1           0        4.377201   -0.620059   -2.553138
      9          1           0        2.247135   -1.364486   -1.462850
     10          1           0        3.323121    0.752545    2.112300
     11          1           0        5.456698    1.503878    1.033674
     12          7           0        1.439341   -0.778096    1.009327
     13          8           0        1.231361   -0.408874    2.163041
     14          8           0        0.684343   -1.485147    0.345479
     15          6           0       -3.440250   -2.202070   -0.236093
     16          6           0       -2.477471   -1.704200   -1.120234
     17          6           0       -2.173302   -0.339845   -1.144000
     18          6           0       -2.854196    0.501990   -0.265941
     19          6           0       -3.818480    0.036259    0.626551
     20          6           0       -4.106506   -1.331786    0.632945
     21          1           0       -3.670265   -3.263367   -0.224380
     22          1           0       -1.958467   -2.377738   -1.796271
     23          1           0       -1.432402    0.072335   -1.818234
     24          1           0       -4.319197    0.732285    1.288555
     25          1           0       -4.854679   -1.715635    1.320653
     26          7           0       -2.540730    1.948324   -0.281905
     27          8           0       -3.154657    2.669205    0.501717
     28          8           0       -1.687045    2.333695   -1.077736
 ---------------------------------------------------------------------

 SCF Done:  E(RHF) =  -868.338213467     A.U. after   16 cycles
 E2 =    -0.2600210732D+01 EUMP2 =    -0.87093842419849D+03

 The electronic state is 1-A.
 Alpha  occ. eigenvalues --  -20.60963 -20.60932 -20.59923 -20.59901 -15.85979
 Alpha  occ. eigenvalues --  -15.84959 -11.31235 -11.30024 -11.27846 -11.27756
 Alpha  occ. eigenvalues --  -11.27508 -11.26809 -11.26757 -11.26601 -11.26597
 Alpha  occ. eigenvalues --  -11.26310 -11.25593 -11.25540  -1.60010  -1.58990
 Alpha  occ. eigenvalues --   -1.39575  -1.38556  -1.19393  -1.18175  -1.08809
 Alpha  occ. eigenvalues --   -1.07644  -1.04789  -1.03558  -0.95669  -0.94532
 Alpha  occ. eigenvalues --   -0.86195  -0.85000  -0.82519  -0.81388  -0.77582
 Alpha  occ. eigenvalues --   -0.76464  -0.72226  -0.71326  -0.71196  -0.70517
 Alpha  occ. eigenvalues --   -0.70292  -0.69361  -0.65060  -0.64800  -0.63868
 Alpha  occ. eigenvalues --   -0.63625  -0.62153  -0.60962  -0.55295  -0.54132
 Alpha  occ. eigenvalues --   -0.53109  -0.52892  -0.51858  -0.51712  -0.48982
 Alpha  occ. eigenvalues --   -0.48937  -0.47961  -0.47924  -0.45009  -0.44029
 Alpha  occ. eigenvalues --   -0.37359  -0.36379  -0.36136  -0.35021
 Alpha virt. eigenvalues --    0.04912   0.06136   0.11272   0.12545   0.16462
 Alpha virt. eigenvalues --    0.17669   0.21306   0.22418   0.27086   0.27836
 Alpha virt. eigenvalues --    0.28681   0.29286   0.31049   0.31928   0.32495

 Mulliken charges:
               1
     1  C   -0.169961
     2  C   -0.217478
     3  C   -0.170025
     4  C    0.160648
     5  C   -0.168953
     6  C   -0.217768
     7  H    0.226286
     8  H    0.222755
     9  H    0.268851
    10  H    0.276940
    11  H    0.224659
    12  N    0.490232
    13  O   -0.456903
    14  O   -0.468003
    15  C   -0.168879
    16  C   -0.202843
    17  C   -0.157599
    18  C    0.157949
    19  C   -0.169732
    20  C   -0.217403
    21  H    0.221636
    22  H    0.218011
    23  H    0.267121
    24  H    0.271961
    25  H    0.219339
    26  N    0.488702
    27  O   -0.462580
    28  O   -0.466963
 Sum of Mulliken charges =  -0.00000

 Dipole moment (field-independent basis, Debye):
    X=              3.5843    Y=             -3.6036    Z=             -2.0819  Tot=              5.4925
 Quadrupole moment (field-independent basis, Debye-Ang):
   XX=            -73.2140   YY=           -111.2464   ZZ=           -101.1009
   XY=             17.5985   XZ=             -6.0734   YZ=              5.8635

 Normal termination of Gaussian 16 at Thu May  6 06:43:14 2021.
