 Gaussian 16, Revision A.03,
 Gaussian 16:  EM64L-G16RevA.03 25-Dec-2016

 -------------
 #p 6-31g* mp2
 -------------

 ------------------------------------------------------
 Input file generated by CHIRIPA (05-May-2021 14:53:13)
 ------------------------------------------------------
 Symbolic Z-matrix:
 Charge =  0 Multiplicity = 1

                         Standard orientation:
 ---------------------------------------------------------------------
 Center     Atomic      Atomic             Coordinates (Angstroms)
 Number     Number       Type             X           Y           Z
 ---------------------------------------------------------------------
      1          6           0       -4.633587   -0.058383   -0.088413
      2          6           0       -4.737779    1.467059   -0.100982
      3          6           0       -6.163393    1.960179   -0.350487
      4          1           0       -4.996752   -0.452271   -1.047531
      5          1           0       -5.301813   -0.458210    0.686835
      6          1           0       -4.068518    1.863967   -0.875042
      7          1           0       -4.374146    1.857373    0.858206
      8          1           0       -6.840057    1.592030    0.427454
      9          1           0       -6.532693    1.598662   -1.315642
     10          1           0       -6.214952    3.053420   -0.355420
     11          6           0       -3.214525   -0.566655    0.159880
     12          6           0       -3.110333   -2.092097    0.172449
     13          6           0       -1.684720   -2.585217    0.421955
     14          1           0       -2.546300   -0.166828   -0.615367
     15          1           0       -2.851361   -0.172767    1.118999
     16          1           0       -3.473967   -2.482411   -0.786739
     17          1           0       -3.779595   -2.489005    0.946509
     18          1           0       -1.315419   -2.223700    1.387109
     19          1           0       -1.008055   -2.217068   -0.355987
     20          1           0       -1.633160   -3.678458    0.426887
     21          6           0        3.231874    2.748883    0.226321
     22          6           0        1.984490    2.119639    0.294181
     23          6           0        1.880494    0.732458    0.154683
     24          6           0        3.049601    0.002008   -0.052496
     25          6           0        4.306847    0.599827   -0.124851
     26          6           0        4.387035    1.988310    0.017389
     27          1           0        3.303413    3.826985    0.335751
     28          1           0        1.085694    2.707782    0.456350
     29          1           0        0.927558    0.219629    0.203033
     30          1           0        5.185082   -0.013097   -0.287468
     31          1           0        5.357105    2.474297   -0.035752
     32          7           0        2.952108   -1.467229   -0.201628
     33          8           0        3.997059   -2.088270   -0.383343
     34          8           0        1.832586   -1.969954   -0.133978
 ---------------------------------------------------------------------

 SCF Done:  E(RHF) =  -669.535807327     A.U. after   15 cycles
 E2 =    -0.2091174544D+01 EUMP2 =    -0.67162698187082D+03

 The electronic state is 1-A.
 Alpha  occ. eigenvalues --  -20.60801 -20.60792 -15.85844 -11.31195 -11.27768
 Alpha  occ. eigenvalues --  -11.27750 -11.27511 -11.26783 -11.26768 -11.21731
 Alpha  occ. eigenvalues --  -11.21382 -11.21315 -11.21178 -11.21144 -11.20163
 Alpha  occ. eigenvalues --   -1.59872  -1.39426  -1.19370  -1.08769  -1.08329
 Alpha  occ. eigenvalues --   -1.04769  -1.03308  -0.95736  -0.95593  -0.86732
 Alpha  occ. eigenvalues --   -0.86168  -0.82438  -0.79390  -0.78151  -0.77471
 Alpha  occ. eigenvalues --   -0.72067  -0.71191  -0.70478  -0.65029  -0.64960
 Alpha  occ. eigenvalues --   -0.64772  -0.62115  -0.60700  -0.59157  -0.57339
 Alpha  occ. eigenvalues --   -0.55275  -0.55000  -0.53103  -0.52862  -0.52380
 Alpha  occ. eigenvalues --   -0.52141  -0.49678  -0.48827  -0.48821  -0.47656
 Alpha  occ. eigenvalues --   -0.46440  -0.45658  -0.45590  -0.44824  -0.43580
 Alpha  occ. eigenvalues --   -0.37354  -0.36374
 Alpha virt. eigenvalues --    0.05035   0.11278   0.16524   0.20821   0.22893
 Alpha virt. eigenvalues --    0.23926   0.26308   0.26874   0.27636   0.27938
 Alpha virt. eigenvalues --    0.29226   0.30930   0.31646   0.31792   0.32443

 Mulliken charges:
               1
     1  C   -0.297528
     2  C   -0.299324
     3  C   -0.475477
     4  H    0.150894
     5  H    0.150493
     6  H    0.149305
     7  H    0.149463
     8  H    0.155978
     9  H    0.156103
    10  H    0.158949
    11  C   -0.298095
    12  C   -0.301118
    13  C   -0.477176
    14  H    0.144911
    15  H    0.145359
    16  H    0.151411
    17  H    0.149866
    18  H    0.151457
    19  H    0.170552
    20  H    0.162734
    21  C   -0.170672
    22  C   -0.219280
    23  C   -0.172601
    24  C    0.157662
    25  C   -0.170909
    26  C   -0.218686
    27  H    0.225630
    28  H    0.224181
    29  H    0.278592
    30  H    0.275548
    31  H    0.223433
    32  N    0.492852
    33  O   -0.460121
    34  O   -0.464385
 Sum of Mulliken charges =  -0.00000

 Dipole moment (field-independent basis, Debye):
    X=              0.4519    Y=              5.0622    Z=              0.4916  Tot=              5.1061
 Quadrupole moment (field-independent basis, Debye-Ang):
   XX=            -88.9417   YY=            -95.3395   ZZ=            -94.7307
   XY=             16.2816   XZ=              0.6909   YZ=             -0.0585

 Normal termination of Gaussian 16 at Thu May  6 17:04:37 2021.
