 Gaussian 16, Revision A.03,
 Gaussian 16:  EM64L-G16RevA.03 25-Dec-2016

 -------------
 #p 6-31g* mp2
 -------------

 ------------------------------------------------------
 Input file generated by CHIRIPA (05-May-2021 14:51:10)
 ------------------------------------------------------
 Symbolic Z-matrix:
 Charge =  0 Multiplicity = 1

                         Standard orientation:
 ---------------------------------------------------------------------
 Center     Atomic      Atomic             Coordinates (Angstroms)
 Number     Number       Type             X           Y           Z
 ---------------------------------------------------------------------
      1          6           0        3.535778    0.019828   -0.104739
      2          6           0        4.318185   -1.290732   -0.195615
      3          6           0        5.471498   -1.222461   -1.197115
      4          1           0        3.145139    0.275965   -1.099092
      5          1           0        4.222053    0.829515    0.179563
      6          1           0        3.630373   -2.097957   -0.478311
      7          1           0        4.706845   -1.543879    0.799109
      8          1           0        6.180085   -0.436771   -0.915695
      9          1           0        5.097495   -0.993998   -2.200374
     10          1           0        6.017277   -2.169871   -1.246102
     11          6           0        2.379601   -0.032744    0.892366
     12          6           0        1.597194    1.277815    0.983242
     13          6           0        0.443881    1.209544    1.984743
     14          1           0        1.693325   -0.842431    0.608065
     15          1           0        2.770240   -0.288882    1.886720
     16          1           0        1.208533    1.530962   -0.011482
     17          1           0        2.285006    2.085041    1.265939
     18          1           0        0.817883    0.981081    2.988001
     19          1           0       -0.264706    0.423855    1.703323
     20          1           0       -0.101898    2.156954    2.033730
     21          6           0       -2.522258    0.455853   -0.831851
     22          6           0       -2.498697    1.913422   -0.370418
     23          6           0       -1.623339    2.799996   -1.256719
     24          1           0       -1.495582    0.065037   -0.843790
     25          1           0       -2.885320    0.412393   -1.868043
     26          1           0       -2.137100    1.953992    0.665062
     27          1           0       -3.525569    2.300756   -0.359393
     28          1           0       -1.985588    2.789273   -2.289803
     29          1           0       -0.589229    2.440539   -1.259528
     30          1           0       -1.620862    3.837699   -0.908829
     31          6           0       -3.393120   -0.442936    0.044224
     32          6           0       -3.416682   -1.900506   -0.417210
     33          6           0       -4.292039   -2.787079    0.469091
     34          1           0       -3.030060   -0.399477    1.080415
     35          1           0       -4.419798   -0.052120    0.056161
     36          1           0       -2.389810   -2.287839   -0.428235
     37          1           0       -3.778279   -1.941075   -1.452689
     38          1           0       -5.326150   -2.427623    0.471900
     39          1           0       -3.929791   -2.776357    1.502175
     40          1           0       -4.294517   -3.824783    0.121202
 ---------------------------------------------------------------------

 SCF Done:  E(RHF) =  -470.732183715     A.U. after   11 cycles
 E2 =    -0.1584696140D+01 EUMP2 =    -0.47231687985578D+03

 The electronic state is 1-A.
 Alpha  occ. eigenvalues --  -11.21670 -11.21636 -11.21616 -11.21484 -11.21465
 Alpha  occ. eigenvalues --  -11.21402 -11.21401 -11.21342 -11.21147 -11.21094
 Alpha  occ. eigenvalues --  -11.21077 -11.21025  -1.08510  -1.08402  -1.03639
 Alpha  occ. eigenvalues --   -1.03464  -0.96055  -0.95960  -0.87091  -0.86960
 Alpha  occ. eigenvalues --   -0.79732  -0.79509  -0.78319  -0.78212  -0.65387
 Alpha  occ. eigenvalues --   -0.64871  -0.61334  -0.60620  -0.59407  -0.59297
 Alpha  occ. eigenvalues --   -0.57665  -0.57576  -0.55323  -0.55232  -0.52761
 Alpha  occ. eigenvalues --   -0.52647  -0.52460  -0.52391  -0.50193  -0.49765
 Alpha  occ. eigenvalues --   -0.48019  -0.47870  -0.46896  -0.46417  -0.45919
 Alpha  occ. eigenvalues --   -0.45803  -0.45675  -0.45528  -0.43810  -0.43756
 Alpha virt. eigenvalues --    0.19495   0.23042   0.23392   0.25333   0.25653
 Alpha virt. eigenvalues --    0.26035   0.26534   0.28106   0.28523   0.29397
 Alpha virt. eigenvalues --    0.30264   0.30800   0.31860   0.32163   0.32402

 Mulliken charges:
               1
     1  C   -0.298410
     2  C   -0.299699
     3  C   -0.475774
     4  H    0.149689
     5  H    0.149830
     6  H    0.151963
     7  H    0.152024
     8  H    0.155263
     9  H    0.155346
    10  H    0.160383
    11  C   -0.298297
    12  C   -0.306129
    13  C   -0.480847
    14  H    0.149012
    15  H    0.150036
    16  H    0.157623
    17  H    0.152745
    18  H    0.155773
    19  H    0.158135
    20  H    0.162835
    21  C   -0.299583
    22  C   -0.304353
    23  C   -0.480881
    24  H    0.149045
    25  H    0.149748
    26  H    0.159457
    27  H    0.151357
    28  H    0.154967
    29  H    0.159488
    30  H    0.159830
    31  C   -0.300434
    32  C   -0.299400
    33  C   -0.475728
    34  H    0.150837
    35  H    0.150107
    36  H    0.151152
    37  H    0.152037
    38  H    0.155296
    39  H    0.155318
    40  H    0.160242
 Sum of Mulliken charges =  -0.00000

 Dipole moment (field-independent basis, Debye):
    X=              0.0275    Y=              0.0108    Z=              0.0331  Tot=              0.0444
 Quadrupole moment (field-independent basis, Debye-Ang):
   XX=            -84.8127   YY=            -85.2763   ZZ=            -84.6427
   XY=             -0.2795   XZ=              1.8151   YZ=              0.5431

 Normal termination of Gaussian 16 at Wed May  5 21:25:42 2021.
