 Gaussian 16, Revision A.03,
 Gaussian 16:  EM64L-G16RevA.03 25-Dec-2016

 -------------
 #p 6-31g* mp2
 -------------

 ------------------------------------------------------
 Input file generated by CHIRIPA (05-May-2021 14:53:17)
 ------------------------------------------------------
 Symbolic Z-matrix:
 Charge =  0 Multiplicity = 1

                         Standard orientation:
 ---------------------------------------------------------------------
 Center     Atomic      Atomic             Coordinates (Angstroms)
 Number     Number       Type             X           Y           Z
 ---------------------------------------------------------------------
      1          6           0        2.609334    0.712602   -0.399626
      2          6           0        3.336119   -0.386107    0.376652
      3          6           0        4.261738   -1.221658   -0.508152
      4          1           0        2.028077    0.255509   -1.212123
      5          1           0        3.351774    1.367404   -0.876504
      6          1           0        2.592541   -1.037829    0.853062
      7          1           0        3.915561    0.073638    1.187514
      8          1           0        5.025053   -0.589083   -0.972695
      9          1           0        3.694516   -1.706865   -1.309048
     10          1           0        4.771136   -2.001096    0.067043
     11          6           0        1.680260    1.556449    0.471278
     12          6           0        0.953475    2.655158   -0.305000
     13          6           0        0.027857    3.490709    0.579804
     14          1           0        0.937821    0.901647    0.948156
     15          1           0        2.261517    2.013542    1.283775
     16          1           0        0.374033    2.195413   -1.115862
     17          1           0        1.697053    3.306880   -0.781410
     18          1           0        0.595079    3.975916    1.380700
     19          1           0       -0.735459    2.858134    1.044347
     20          1           0       -0.481542    4.270147    0.004609
     21          6           0       -0.352301   -2.984833    0.431470
     22          6           0       -0.863926   -2.233121    1.494340
     23          6           0       -1.598590   -1.068703    1.251555
     24          6           0       -1.803556   -0.683474   -0.072408
     25          6           0       -1.306760   -1.411083   -1.152717
     26          6           0       -0.574959   -2.572142   -0.886343
     27          1           0        0.217291   -3.888077    0.629233
     28          1           0       -0.692568   -2.551224    2.518786
     29          1           0       -2.006098   -0.467922    2.055557
     30          1           0       -1.494021   -1.068696   -2.163224
     31          1           0       -0.178822   -3.153957   -1.713756
     32          7           0       -2.579797    0.547466   -0.341919
     33          8           0       -2.746490    0.865504   -1.517378
     34          8           0       -3.006824    1.170930    0.627398
 ---------------------------------------------------------------------

 SCF Done:  E(RHF) =  -669.536590662     A.U. after   15 cycles
 E2 =    -0.2094893151D+01 EUMP2 =    -0.67163148381265D+03

 The electronic state is 1-A.
 Alpha  occ. eigenvalues --  -20.61048 -20.61040 -15.86056 -11.31407 -11.27966
 Alpha  occ. eigenvalues --  -11.27963 -11.27707 -11.26987 -11.26976 -11.21713
 Alpha  occ. eigenvalues --  -11.21350 -11.21316 -11.21120 -11.21050 -11.20176
 Alpha  occ. eigenvalues --   -1.60092  -1.39650  -1.19579  -1.08973  -1.08260
 Alpha  occ. eigenvalues --   -1.04973  -1.03303  -0.95811  -0.95736  -0.86754
 Alpha  occ. eigenvalues --   -0.86368  -0.82641  -0.79395  -0.78035  -0.77694
 Alpha  occ. eigenvalues --   -0.72281  -0.71428  -0.70671  -0.65231  -0.64965
 Alpha  occ. eigenvalues --   -0.64901  -0.62314  -0.60695  -0.59171  -0.57330
 Alpha  occ. eigenvalues --   -0.55466  -0.55065  -0.53270  -0.53056  -0.52413
 Alpha  occ. eigenvalues --   -0.52156  -0.49717  -0.49049  -0.49034  -0.47695
 Alpha  occ. eigenvalues --   -0.46506  -0.45645  -0.45558  -0.44775  -0.43547
 Alpha  occ. eigenvalues --   -0.37518  -0.36538
 Alpha virt. eigenvalues --    0.04791   0.11011   0.16237   0.21074   0.22692
 Alpha virt. eigenvalues --    0.24208   0.26516   0.26830   0.27762   0.28126
 Alpha virt. eigenvalues --    0.28293   0.30547   0.31481   0.31884   0.32162

 Mulliken charges:
               1
     1  C   -0.296364
     2  C   -0.300523
     3  C   -0.474943
     4  H    0.147117
     5  H    0.149640
     6  H    0.149244
     7  H    0.151845
     8  H    0.157253
     9  H    0.150703
    10  H    0.157478
    11  C   -0.301259
    12  C   -0.304033
    13  C   -0.481174
    14  H    0.148317
    15  H    0.148127
    16  H    0.154262
    17  H    0.150184
    18  H    0.149051
    19  H    0.167185
    20  H    0.164791
    21  C   -0.170200
    22  C   -0.218026
    23  C   -0.172635
    24  C    0.160941
    25  C   -0.171612
    26  C   -0.218176
    27  H    0.227293
    28  H    0.225088
    29  H    0.276697
    30  H    0.276493
    31  H    0.224780
    32  N    0.488402
    33  O   -0.458117
    34  O   -0.457831
 Sum of Mulliken charges =  -0.00000

 Dipole moment (field-independent basis, Debye):
    X=              2.4622    Y=             -4.3818    Z=              0.9354  Tot=              5.1125
 Quadrupole moment (field-independent basis, Debye-Ang):
   XX=           -105.5026   YY=            -89.2378   ZZ=            -90.2764
   XY=              6.7641   XZ=             -2.1219   YZ=              0.0805

 Normal termination of Gaussian 16 at Wed May  5 18:48:36 2021.
