 Gaussian 16, Revision A.03,
 Gaussian 16:  EM64L-G16RevA.03 25-Dec-2016

 -------------
 #p 6-31g* mp2
 -------------

 ------------------------------------------------------
 Input file generated by CHIRIPA (05-May-2021 14:53:12)
 ------------------------------------------------------
 Symbolic Z-matrix:
 Charge =  0 Multiplicity = 1

                         Standard orientation:
 ---------------------------------------------------------------------
 Center     Atomic      Atomic             Coordinates (Angstroms)
 Number     Number       Type             X           Y           Z
 ---------------------------------------------------------------------
      1          6           0        3.379896   -0.280332   -0.581062
      2          6           0        2.831529   -1.641370   -0.151113
      3          6           0        3.617390   -2.810130   -0.746273
      4          1           0        3.362762   -0.215012   -1.677595
      5          1           0        4.434011   -0.205785   -0.279932
      6          1           0        1.778372   -1.712782   -0.451739
      7          1           0        2.849792   -1.703383    0.944531
      8          1           0        4.666408   -2.766761   -0.435979
      9          1           0        3.588900   -2.776213   -1.840183
     10          1           0        3.208399   -3.773448   -0.425951
     11          6           0        2.604732    0.897976    0.005826
     12          6           0        3.153099    2.259014   -0.424122
     13          6           0        2.367238    3.427774    0.171037
     14          1           0        1.550617    0.823429   -0.295304
     15          1           0        2.621866    0.832656    1.102359
     16          1           0        3.134836    2.321027   -1.519767
     17          1           0        4.206256    2.330426   -0.123497
     18          1           0        2.395728    3.393857    1.264947
     19          1           0        1.318220    3.384405   -0.139256
     20          1           0        2.776229    4.391092   -0.149285
     21          6           0       -4.321132    0.741340   -0.986324
     22          6           0       -3.472841    1.570176   -0.244736
     23          6           0       -2.370922    1.036642    0.430295
     24          6           0       -2.145998   -0.336262    0.341779
     25          6           0       -2.972875   -1.188084   -0.388950
     26          6           0       -4.068886   -0.632722   -1.055942
     27          1           0       -5.174835    1.164280   -1.507582
     28          1           0       -3.666296    2.637650   -0.188898
     29          1           0       -1.698058    1.655327    1.011587
     30          1           0       -2.754304   -2.248403   -0.425945
     31          1           0       -4.725989   -1.278814   -1.631117
     32          7           0       -0.982574   -0.912645    1.052148
     33          8           0       -0.806134   -2.125377    0.958406
     34          8           0       -0.269151   -0.140768    1.689229
 ---------------------------------------------------------------------

 SCF Done:  E(RHF) =  -669.535772715     A.U. after   15 cycles
 E2 =    -0.2093154319D+01 EUMP2 =    -0.67162892703387D+03

 The electronic state is 1-A.
 Alpha  occ. eigenvalues --  -20.60997 -20.60966 -15.85969 -11.31315 -11.27873
 Alpha  occ. eigenvalues --  -11.27868 -11.27608 -11.26880 -11.26870 -11.20858
 Alpha  occ. eigenvalues --  -11.20597 -11.20289 -11.20172 -11.20138 -11.19960
 Alpha  occ. eigenvalues --   -1.60023  -1.39581  -1.19480  -1.08883  -1.07360
 Alpha  occ. eigenvalues --   -1.04874  -1.02549  -0.95724  -0.95037  -0.86274
 Alpha  occ. eigenvalues --   -0.86070  -0.82562  -0.78600  -0.77621  -0.77087
 Alpha  occ. eigenvalues --   -0.72203  -0.71326  -0.70584  -0.65134  -0.64875
 Alpha  occ. eigenvalues --   -0.64012  -0.62219  -0.59970  -0.58415  -0.56606
 Alpha  occ. eigenvalues --   -0.55377  -0.54360  -0.53209  -0.52964  -0.51775
 Alpha  occ. eigenvalues --   -0.51464  -0.49071  -0.48980  -0.48959  -0.46968
 Alpha  occ. eigenvalues --   -0.45720  -0.45003  -0.44555  -0.44348  -0.42768
 Alpha  occ. eigenvalues --   -0.37455  -0.36475
 Alpha virt. eigenvalues --    0.04885   0.11151   0.16358   0.21165   0.23644
 Alpha virt. eigenvalues --    0.24979   0.26808   0.27475   0.27971   0.28801
 Alpha virt. eigenvalues --    0.29024   0.31101   0.31560   0.32563   0.32770

 Mulliken charges:
               1
     1  C   -0.300168
     2  C   -0.297150
     3  C   -0.476045
     4  H    0.142537
     5  H    0.145180
     6  H    0.156031
     7  H    0.161803
     8  H    0.150804
     9  H    0.148895
    10  H    0.161581
    11  C   -0.292682
    12  C   -0.299647
    13  C   -0.472955
    14  H    0.144612
    15  H    0.161349
    16  H    0.147243
    17  H    0.150121
    18  H    0.157518
    19  H    0.147264
    20  H    0.156403
    21  C   -0.170569
    22  C   -0.218564
    23  C   -0.172208
    24  C    0.158137
    25  C   -0.170964
    26  C   -0.218524
    27  H    0.226124
    28  H    0.224172
    29  H    0.277009
    30  H    0.275849
    31  H    0.223925
    32  N    0.487092
    33  O   -0.458488
    34  O   -0.455687
 Sum of Mulliken charges =  -0.00000

 Dipole moment (field-independent basis, Debye):
    X=             -4.3470    Y=              1.9087    Z=             -2.2540  Tot=              5.2555
 Quadrupole moment (field-independent basis, Debye-Ang):
   XX=            -78.0051   YY=            -93.6075   ZZ=            -96.1807
   XY=             -1.4574   XZ=              6.0509   YZ=              2.9231

 Normal termination of Gaussian 16 at Thu May  6 07:16:54 2021.
