 Gaussian 16, Revision A.03,
 Gaussian 16:  EM64L-G16RevA.03 25-Dec-2016

 -------------
 #p 6-31g* mp2
 -------------

 ------------------------------------------------------
 Input file generated by CHIRIPA (05-May-2021 14:51:13)
 ------------------------------------------------------
 Symbolic Z-matrix:
 Charge =  0 Multiplicity = 1

                         Standard orientation:
 ---------------------------------------------------------------------
 Center     Atomic      Atomic             Coordinates (Angstroms)
 Number     Number       Type             X           Y           Z
 ---------------------------------------------------------------------
      1          6           0       -3.663725    0.307096    0.233818
      2          6           0       -4.161844    0.049302   -1.188647
      3          6           0       -5.461758    0.790305   -1.503180
      4          1           0       -4.441705    0.005109    0.948308
      5          1           0       -3.514146    1.386821    0.372435
      6          1           0       -4.309118   -1.029744   -1.324979
      7          1           0       -3.382513    0.351759   -1.899828
      8          1           0       -5.324988    1.871119   -1.394841
      9          1           0       -6.256858    0.481766   -0.816725
     10          1           0       -5.799836    0.591864   -2.525034
     11          6           0       -2.365070   -0.426854    0.563273
     12          6           0       -1.866951   -0.169061    1.985737
     13          6           0       -0.567037   -0.910064    2.300271
     14          1           0       -2.514649   -1.506579    0.424655
     15          1           0       -1.587090   -0.124867   -0.151217
     16          1           0       -2.646282   -0.471518    2.696918
     17          1           0       -1.719677    0.909985    2.122069
     18          1           0        0.228063   -0.601525    1.613816
     19          1           0       -0.703807   -1.990877    2.191931
     20          1           0       -0.228959   -0.711623    3.322125
     21          6           0        2.939969   -0.539342   -0.866335
     22          6           0        2.816403   -1.872897   -0.128538
     23          6           0        2.668182   -3.062225   -1.077920
     24          1           0        2.055015   -0.395454   -1.501236
     25          1           0        3.805775   -0.580736   -1.541658
     26          1           0        1.951905   -1.828510    0.546213
     27          1           0        3.701663   -2.013538    0.504826
     28          1           0        3.534964   -3.134786   -1.742770
     29          1           0        1.775264   -2.948706   -1.701148
     30          1           0        2.581423   -4.005358   -0.529438
     31          6           0        3.088827    0.659100    0.069244
     32          6           0        3.212392    1.992656   -0.668552
     33          6           0        3.360613    3.181983    0.280830
     34          1           0        2.223020    0.700494    0.744567
     35          1           0        3.973780    0.515212    0.704145
     36          1           0        2.327132    2.133296   -1.301917
     37          1           0        4.076889    1.948269   -1.343304
     38          1           0        4.253530    3.068465    0.904058
     39          1           0        2.493831    3.254544    0.945679
     40          1           0        3.447370    4.125116   -0.267652
 ---------------------------------------------------------------------

 SCF Done:  E(RHF) =  -470.732927259     A.U. after   11 cycles
 E2 =    -0.1583403088D+01 EUMP2 =    -0.47231633034654D+03

 The electronic state is 1-A.
 Alpha  occ. eigenvalues --  -11.21668 -11.21642 -11.21620 -11.21507 -11.21466
 Alpha  occ. eigenvalues --  -11.21405 -11.21403 -11.21342 -11.21128 -11.21101
 Alpha  occ. eigenvalues --  -11.21089 -11.21019  -1.08492  -1.08422  -1.03591
 Alpha  occ. eigenvalues --   -1.03507  -0.96041  -0.95966  -0.87063  -0.86978
 Alpha  occ. eigenvalues --   -0.79685  -0.79551  -0.78329  -0.78208  -0.65213
 Alpha  occ. eigenvalues --   -0.64994  -0.61013  -0.60892  -0.59404  -0.59332
 Alpha  occ. eigenvalues --   -0.57647  -0.57576  -0.55384  -0.55212  -0.52732
 Alpha  occ. eigenvalues --   -0.52672  -0.52477  -0.52381  -0.50013  -0.49912
 Alpha  occ. eigenvalues --   -0.48092  -0.47831  -0.46768  -0.46588  -0.45965
 Alpha  occ. eigenvalues --   -0.45781  -0.45744  -0.45358  -0.43840  -0.43769
 Alpha virt. eigenvalues --    0.20619   0.23196   0.24144   0.24514   0.25647
 Alpha virt. eigenvalues --    0.26513   0.26995   0.27633   0.28120   0.29289
 Alpha virt. eigenvalues --    0.30987   0.31558   0.31678   0.31928   0.32162

 Mulliken charges:
               1
     1  C   -0.298323
     2  C   -0.299692
     3  C   -0.475750
     4  H    0.149925
     5  H    0.149606
     6  H    0.152064
     7  H    0.151813
     8  H    0.155252
     9  H    0.155284
    10  H    0.160408
    11  C   -0.298297
    12  C   -0.299428
    13  C   -0.485425
    14  H    0.149848
    15  H    0.148662
    16  H    0.152387
    17  H    0.151751
    18  H    0.164004
    19  H    0.155706
    20  H    0.161121
    21  C   -0.297965
    22  C   -0.307128
    23  C   -0.475243
    24  H    0.148772
    25  H    0.149659
    26  H    0.160386
    27  H    0.151605
    28  H    0.154767
    29  H    0.155049
    30  H    0.160086
    31  C   -0.303934
    32  C   -0.299247
    33  C   -0.475699
    34  H    0.153559
    35  H    0.150175
    36  H    0.151385
    37  H    0.152209
    38  H    0.155405
    39  H    0.154986
    40  H    0.160256
 Sum of Mulliken charges =  -0.00000

 Dipole moment (field-independent basis, Debye):
    X=             -0.0227    Y=             -0.0047    Z=              0.0277  Tot=              0.0361
 Quadrupole moment (field-independent basis, Debye-Ang):
   XX=            -84.3046   YY=            -85.2919   ZZ=            -85.1235
   XY=              0.6996   XZ=             -0.5828   YZ=             -0.6649

 Normal termination of Gaussian 16 at Thu May  6 02:23:37 2021.
