 Gaussian 16, Revision A.03,
 Gaussian 16:  EM64L-G16RevA.03 25-Dec-2016

 -------------
 #p 6-31g* mp2
 -------------

 ------------------------------------------------------
 Input file generated by CHIRIPA (05-May-2021 14:53:16)
 ------------------------------------------------------
 Symbolic Z-matrix:
 Charge =  0 Multiplicity = 1

                         Standard orientation:
 ---------------------------------------------------------------------
 Center     Atomic      Atomic             Coordinates (Angstroms)
 Number     Number       Type             X           Y           Z
 ---------------------------------------------------------------------
      1          6           0       -2.906938    0.739837   -0.537458
      2          6           0       -3.351780    1.999725    0.206036
      3          6           0       -2.621505    3.255892   -0.269925
      4          1           0       -1.824125    0.607827   -0.406940
      5          1           0       -3.077399    0.878425   -1.614087
      6          1           0       -3.181815    1.858267    1.281079
      7          1           0       -4.433692    2.128646    0.073892
      8          1           0       -2.800550    3.424674   -1.336722
      9          1           0       -1.541560    3.152758   -0.122677
     10          1           0       -2.954825    4.144724    0.274810
     11          6           0       -3.628030   -0.524218   -0.072786
     12          6           0       -3.183188   -1.784106   -0.816280
     13          6           0       -3.913462   -3.040273   -0.340319
     14          1           0       -3.457569   -0.662806    1.003843
     15          1           0       -4.710843   -0.392208   -0.203304
     16          1           0       -2.101276   -1.913027   -0.684136
     17          1           0       -3.353153   -1.642648   -1.891323
     18          1           0       -4.993408   -2.937139   -0.487567
     19          1           0       -3.734418   -3.209055    0.726478
     20          1           0       -3.580143   -3.929105   -0.885054
     21          6           0        0.329706   -0.071797    1.431679
     22          6           0        1.054594   -1.262305    1.314423
     23          6           0        2.287405   -1.280955    0.655350
     24          6           0        2.767634   -0.085428    0.123013
     25          6           0        2.068990    1.116691    0.223488
     26          6           0        0.838321    1.111815    0.886798
     27          1           0       -0.627139   -0.066446    1.945308
     28          1           0        0.662049   -2.183018    1.736610
     29          1           0        2.869392   -2.188502    0.550149
     30          1           0        2.486138    2.018652   -0.207641
     31          1           0        0.277545    2.037859    0.976348
     32          7           0        4.071623   -0.092719   -0.576961
     33          8           0        4.472889    0.973925   -1.037279
     34          8           0        4.667730   -1.164939   -0.652028
 ---------------------------------------------------------------------

 SCF Done:  E(RHF) =  -669.534672341     A.U. after   15 cycles
 E2 =    -0.2093948098D+01 EUMP2 =    -0.67162862043924D+03

 The electronic state is 1-A.
 Alpha  occ. eigenvalues --  -20.60820 -20.60815 -15.85875 -11.31276 -11.27859
 Alpha  occ. eigenvalues --  -11.27847 -11.27605 -11.26875 -11.26848 -11.22544
 Alpha  occ. eigenvalues --  -11.22272 -11.22198 -11.22073 -11.22055 -11.21708
 Alpha  occ. eigenvalues --   -1.59895  -1.39447  -1.19464  -1.09263  -1.08841
 Alpha  occ. eigenvalues --   -1.04871  -1.04343  -0.96791  -0.95678  -0.87804
 Alpha  occ. eigenvalues --   -0.86270  -0.82505  -0.80396  -0.79038  -0.77544
 Alpha  occ. eigenvalues --   -0.72094  -0.71218  -0.70593  -0.65993  -0.65109
 Alpha  occ. eigenvalues --   -0.64818  -0.62309  -0.61660  -0.60139  -0.58383
 Alpha  occ. eigenvalues --   -0.56210  -0.55282  -0.53479  -0.53290  -0.53168
 Alpha  occ. eigenvalues --   -0.52904  -0.50742  -0.48862  -0.48846  -0.48692
 Alpha  occ. eigenvalues --   -0.47445  -0.46568  -0.46515  -0.44845  -0.44575
 Alpha  occ. eigenvalues --   -0.37368  -0.36448
 Alpha virt. eigenvalues --    0.04962   0.10994   0.16347   0.18544   0.22452
 Alpha virt. eigenvalues --    0.23715   0.24892   0.25878   0.27124   0.27951
 Alpha virt. eigenvalues --    0.29562   0.30834   0.30981   0.31392   0.31765

 Mulliken charges:
               1
     1  C   -0.309012
     2  C   -0.301054
     3  C   -0.477778
     4  H    0.156566
     5  H    0.153953
     6  H    0.144485
     7  H    0.156965
     8  H    0.161533
     9  H    0.146909
    10  H    0.163570
    11  C   -0.298017
    12  C   -0.301793
    13  C   -0.475817
    14  H    0.140988
    15  H    0.153031
    16  H    0.152066
    17  H    0.155756
    18  H    0.157387
    19  H    0.151622
    20  H    0.162773
    21  C   -0.173081
    22  C   -0.220013
    23  C   -0.170502
    24  C    0.158687
    25  C   -0.172215
    26  C   -0.222715
    27  H    0.229522
    28  H    0.224265
    29  H    0.276175
    30  H    0.276397
    31  H    0.231444
    32  N    0.488077
    33  O   -0.459986
    34  O   -0.460191
 Sum of Mulliken charges =  -0.00000

 Dipole moment (field-independent basis, Debye):
    X=             -4.6305    Y=              0.0158    Z=              2.3447  Tot=              5.1903
 Quadrupole moment (field-independent basis, Debye-Ang):
   XX=           -120.1081   YY=            -90.7531   ZZ=            -94.2685
   XY=             -0.6999   XZ=              7.4636   YZ=             -1.1654

 Normal termination of Gaussian 16 at Thu May  6 15:33:16 2021.
