 Gaussian 16, Revision A.03,
 Gaussian 16:  EM64L-G16RevA.03 25-Dec-2016

 -------------
 #p 6-31g* mp2
 -------------

 ------------------------------------------------------
 Input file generated by CHIRIPA (05-May-2021 14:55:22)
 ------------------------------------------------------
 Symbolic Z-matrix:
 Charge =  0 Multiplicity = 1

                         Standard orientation:
 ---------------------------------------------------------------------
 Center     Atomic      Atomic             Coordinates (Angstroms)
 Number     Number       Type             X           Y           Z
 ---------------------------------------------------------------------
      1          6           0        4.269921    0.991446   -0.934439
      2          6           0        3.195254    1.665218   -0.344827
      3          6           0        2.161193    0.952429    0.269337
      4          6           0        2.234227   -0.439662    0.275589
      5          6           0        3.291634   -1.139732   -0.303275
      6          6           0        4.314603   -0.406414   -0.911821
      7          1           0        5.068896    1.553132   -1.409354
      8          1           0        3.157916    2.750756   -0.360886
      9          1           0        1.317476    1.448651    0.733366
     10          1           0        3.301062   -2.222466   -0.271398
     11          1           0        5.147973   -0.932335   -1.368928
     12          7           0        1.145385   -1.205127    0.922803
     13          8           0        1.233192   -2.431041    0.914914
     14          8           0        0.224761   -0.564690    1.425723
     15          6           0       -2.983811   -0.347691   -0.109949
     16          6           0       -3.981763   -1.215765   -0.877102
     17          6           0       -3.757466   -2.711720   -0.654378
     18          1           0       -1.963268   -0.616357   -0.415326
     19          1           0       -3.059253   -0.575048    0.962437
     20          1           0       -3.905432   -0.985844   -1.947581
     21          1           0       -5.000056   -0.944869   -0.570004
     22          1           0       -3.853937   -2.961892    0.407087
     23          1           0       -2.753094   -3.003100   -0.978317
     24          1           0       -4.481751   -3.313666   -1.211991
     25          6           0       -3.195214    1.150262   -0.322487
     26          6           0       -2.197262    2.018337    0.444666
     27          6           0       -2.421559    3.514292    0.221942
     28          1           0       -3.119772    1.377619   -1.394873
     29          1           0       -4.215757    1.418929   -0.017110
     30          1           0       -1.178968    1.747440    0.137568
     31          1           0       -2.273593    1.788416    1.515145
     32          1           0       -3.425931    3.805671    0.545881
     33          1           0       -2.325088    3.764462   -0.839523
     34          1           0       -1.697274    4.116236    0.779556
 ---------------------------------------------------------------------

 SCF Done:  E(RHF) =  -669.535366051     A.U. after   15 cycles
 E2 =    -0.2092915946D+01 EUMP2 =    -0.67162828199699D+03

 The electronic state is 1-A.
 Alpha  occ. eigenvalues --  -20.60942 -20.60914 -15.85946 -11.31291 -11.27852
 Alpha  occ. eigenvalues --  -11.27837 -11.27589 -11.26864 -11.26853 -11.20950
 Alpha  occ. eigenvalues --  -11.20755 -11.20647 -11.20615 -11.20133 -11.20067
 Alpha  occ. eigenvalues --   -1.59992  -1.39547  -1.19459  -1.08861  -1.07549
 Alpha  occ. eigenvalues --   -1.04855  -1.02765  -0.95701  -0.95209  -0.86265
 Alpha  occ. eigenvalues --   -0.86212  -0.82536  -0.78839  -0.77650  -0.77206
 Alpha  occ. eigenvalues --   -0.72162  -0.71307  -0.70567  -0.65112  -0.64867
 Alpha  occ. eigenvalues --   -0.64198  -0.62210  -0.60175  -0.58610  -0.56804
 Alpha  occ. eigenvalues --   -0.55359  -0.54506  -0.53188  -0.52950  -0.51959
 Alpha  occ. eigenvalues --   -0.51618  -0.49167  -0.48943  -0.48929  -0.47105
 Alpha  occ. eigenvalues --   -0.45879  -0.45425  -0.44756  -0.44267  -0.42968
 Alpha  occ. eigenvalues --   -0.37437  -0.36455
 Alpha virt. eigenvalues --    0.04898   0.11138   0.16397   0.20957   0.23544
 Alpha virt. eigenvalues --    0.24656   0.26352   0.27600   0.27750   0.28752
 Alpha virt. eigenvalues --    0.29192   0.30915   0.31524   0.32147   0.32433

 Mulliken charges:
               1
     1  C   -0.170523
     2  C   -0.219564
     3  C   -0.174238
     4  C    0.156516
     5  C   -0.170717
     6  C   -0.218531
     7  H    0.226023
     8  H    0.224287
     9  H    0.281951
    10  H    0.275787
    11  H    0.223822
    12  N    0.487460
    13  O   -0.459367
    14  O   -0.457901
    15  C   -0.293794
    16  C   -0.300407
    17  C   -0.474222
    18  H    0.154776
    19  H    0.158016
    20  H    0.146215
    21  H    0.147748
    22  H    0.158285
    23  H    0.158199
    24  H    0.154755
    25  C   -0.299461
    26  C   -0.299104
    27  C   -0.475850
    28  H    0.143733
    29  H    0.146652
    30  H    0.149689
    31  H    0.159025
    32  H    0.155780
    33  H    0.151597
    34  H    0.153362
 Sum of Mulliken charges =  -0.00000

 Dipole moment (field-independent basis, Debye):
    X=              4.0240    Y=              2.5236    Z=             -2.1046  Tot=              5.1952
 Quadrupole moment (field-independent basis, Debye-Ang):
   XX=            -77.2216   YY=            -95.5456   ZZ=            -95.9819
   XY=              2.4041   XZ=             -5.9795   YZ=              2.8873

 Normal termination of Gaussian 16 at Thu May  6 06:13:57 2021.
