 Gaussian 16, Revision A.03,
 Gaussian 16:  EM64L-G16RevA.03 25-Dec-2016

 -------------
 #p 6-31g* mp2
 -------------

 ------------------------------------------------------
 Input file generated by CHIRIPA (05-May-2021 14:55:20)
 ------------------------------------------------------
 Symbolic Z-matrix:
 Charge =  0 Multiplicity = 1

                         Standard orientation:
 ---------------------------------------------------------------------
 Center     Atomic      Atomic             Coordinates (Angstroms)
 Number     Number       Type             X           Y           Z
 ---------------------------------------------------------------------
      1          6           0        1.037820    1.557334    0.942200
      2          6           0        1.452409    1.601857   -0.392961
      3          6           0        2.457346    0.745850   -0.853286
      4          6           0        3.028595   -0.146250    0.052872
      5          6           0        2.637193   -0.214571    1.389070
      6          6           0        1.630490    0.650860    1.827394
      7          1           0        0.256475    2.225961    1.291247
      8          1           0        0.993913    2.304816   -1.082653
      9          1           0        2.797421    0.759176   -1.881678
     10          1           0        3.112998   -0.926077    2.052988
     11          1           0        1.310519    0.614066    2.864847
     12          7           0        4.093412   -1.057454   -0.422808
     13          8           0        4.580850   -1.834310    0.395444
     14          8           0        4.420415   -0.977548   -1.604892
     15          6           0       -3.626913   -0.761928   -0.267557
     16          6           0       -4.898979   -1.476168    0.190364
     17          6           0       -4.833634   -2.989865   -0.015175
     18          1           0       -3.452581   -0.981986   -1.329691
     19          1           0       -2.767357   -1.170681    0.281515
     20          1           0       -5.756062   -1.065227   -0.358411
     21          1           0       -5.070407   -1.254229    1.251482
     22          1           0       -3.997039   -3.419029    0.545652
     23          1           0       -4.686588   -3.228953   -1.073388
     24          1           0       -5.753202   -3.480441    0.318875
     25          6           0       -3.677025    0.751872   -0.068494
     26          6           0       -2.404958    1.466113   -0.526414
     27          6           0       -2.470305    2.979810   -0.320875
     28          1           0       -4.536581    1.160625   -0.617565
     29          1           0       -3.851357    0.971931    0.993640
     30          1           0       -2.233530    1.244174   -1.587532
     31          1           0       -1.547877    1.055172    0.022362
     32          1           0       -2.617350    3.218898    0.737338
     33          1           0       -3.306900    3.408974   -0.881703
     34          1           0       -1.550737    3.470386   -0.654925
 ---------------------------------------------------------------------

 SCF Done:  E(RHF) =  -669.534511509     A.U. after   15 cycles
 E2 =    -0.2093051879D+01 EUMP2 =    -0.67162756338850D+03

 The electronic state is 1-A.
 Alpha  occ. eigenvalues --  -20.60769 -20.60763 -15.85823 -11.31195 -11.27773
 Alpha  occ. eigenvalues --  -11.27757 -11.27476 -11.26786 -11.26762 -11.22403
 Alpha  occ. eigenvalues --  -11.22246 -11.22060 -11.22007 -11.21864 -11.21371
 Alpha  occ. eigenvalues --   -1.59844  -1.39397  -1.19377  -1.09079  -1.08762
 Alpha  occ. eigenvalues --   -1.04779  -1.04210  -0.96677  -0.95600  -0.87678
 Alpha  occ. eigenvalues --   -0.86177  -0.82434  -0.80277  -0.78831  -0.77474
 Alpha  occ. eigenvalues --   -0.72041  -0.71167  -0.70518  -0.65710  -0.65025
 Alpha  occ. eigenvalues --   -0.64793  -0.62141  -0.61615  -0.60066  -0.58255
 Alpha  occ. eigenvalues --   -0.56012  -0.55190  -0.53390  -0.53186  -0.53053
 Alpha  occ. eigenvalues --   -0.52837  -0.50594  -0.48800  -0.48795  -0.48580
 Alpha  occ. eigenvalues --   -0.47300  -0.46378  -0.46277  -0.44802  -0.44442
 Alpha  occ. eigenvalues --   -0.37270  -0.36374
 Alpha virt. eigenvalues --    0.05024   0.11226   0.16426   0.19413   0.22635
 Alpha virt. eigenvalues --    0.24041   0.25431   0.26167   0.26878   0.27482
 Alpha virt. eigenvalues --    0.29266   0.30372   0.30889   0.31602   0.31838

 Mulliken charges:
               1
     1  C   -0.173887
     2  C   -0.217143
     3  C   -0.171358
     4  C    0.158578
     5  C   -0.170792
     6  C   -0.220792
     7  H    0.231252
     8  H    0.225698
     9  H    0.275733
    10  H    0.275604
    11  H    0.223422
    12  N    0.488056
    13  O   -0.460472
    14  O   -0.460347
    15  C   -0.298907
    16  C   -0.300109
    17  C   -0.476073
    18  H    0.151596
    19  H    0.150673
    20  H    0.152610
    21  H    0.151381
    22  H    0.156004
    23  H    0.156541
    24  H    0.161378
    25  C   -0.297603
    26  C   -0.309134
    27  C   -0.480542
    28  H    0.151241
    29  H    0.148091
    30  H    0.153943
    31  H    0.157047
    32  H    0.153660
    33  H    0.162928
    34  H    0.151723
 Sum of Mulliken charges =  -0.00000

 Dipole moment (field-independent basis, Debye):
    X=             -3.8549    Y=              3.1336    Z=              1.6455  Tot=              5.2333
 Quadrupole moment (field-independent basis, Debye-Ang):
   XX=           -117.7393   YY=            -96.8691   ZZ=            -89.5694
   XY=             10.1224   XZ=              5.7820   YZ=             -2.3680

 Normal termination of Gaussian 16 at Thu May  6 02:58:44 2021.
