 Gaussian 16, Revision A.03,
 Gaussian 16:  EM64L-G16RevA.03 25-Dec-2016

 -------------
 #p 6-31g* mp2
 -------------

 ------------------------------------------------------
 Input file generated by CHIRIPA (05-May-2021 14:51:12)
 ------------------------------------------------------
 Symbolic Z-matrix:
 Charge =  0 Multiplicity = 1

                         Standard orientation:
 ---------------------------------------------------------------------
 Center     Atomic      Atomic             Coordinates (Angstroms)
 Number     Number       Type             X           Y           Z
 ---------------------------------------------------------------------
      1          6           0       -3.716132   -0.781821    0.405716
      2          6           0       -2.265706   -0.311408    0.291876
      3          6           0       -1.285061   -1.240090    1.008590
      4          1           0       -3.988558   -0.856143    1.467415
      5          1           0       -3.799197   -1.795565   -0.009998
      6          1           0       -2.185677    0.701688    0.706423
      7          1           0       -1.996761   -0.238013   -0.769678
      8          1           0       -1.335510   -2.250528    0.590176
      9          1           0       -1.525499   -1.305488    2.074664
     10          1           0       -0.254078   -0.885012    0.914493
     11          6           0       -4.708396    0.136298   -0.305760
     12          6           0       -6.158823   -0.334115   -0.191920
     13          6           0       -7.139468    0.594567   -0.908634
     14          1           0       -4.625331    1.150042    0.109954
     15          1           0       -4.435970    0.210620   -1.367459
     16          1           0       -6.427767   -0.407510    0.869634
     17          1           0       -6.238852   -1.347211   -0.606467
     18          1           0       -6.899030    0.659965   -1.974708
     19          1           0       -7.089019    1.605005   -0.490220
     20          1           0       -8.170451    0.239490   -0.814537
     21          6           0        3.765229    0.870342    0.239413
     22          6           0        2.272540    0.595417    0.054256
     23          6           0        1.391125    1.699814    0.638386
     24          1           0        3.980334    0.985035    1.310636
     25          1           0        4.015764    1.829690   -0.234170
     26          1           0        2.025168   -0.363791    0.526846
     27          1           0        2.060999    0.481176   -1.016639
     28          1           0        1.609129    2.660152    0.160031
     29          1           0        1.573095    1.810385    1.712286
     30          1           0        0.327979    1.482969    0.494996
     31          6           0        4.659299   -0.224820   -0.339369
     32          6           0        6.151988    0.050105   -0.154211
     33          6           0        7.033405   -1.054290   -0.738341
     34          1           0        4.408764   -1.184167    0.134213
     35          1           0        4.444195   -0.339512   -1.410592
     36          1           0        6.363530    0.164346    0.916683
     37          1           0        6.399361    1.009313   -0.626802
     38          1           0        6.851434   -1.164862   -1.812242
     39          1           0        6.815400   -2.014630   -0.259987
     40          1           0        8.096550   -0.837446   -0.594952
 ---------------------------------------------------------------------

 SCF Done:  E(RHF) =  -470.732514682     A.U. after   11 cycles
 E2 =    -0.1583524220D+01 EUMP2 =    -0.47231603890148D+03

 The electronic state is 1-A.
 Alpha  occ. eigenvalues --  -11.21617 -11.21608 -11.21601 -11.21597 -11.21409
 Alpha  occ. eigenvalues --  -11.21402 -11.21349 -11.21342 -11.21069 -11.21067
 Alpha  occ. eigenvalues --  -11.21027 -11.20981  -1.08452  -1.08412  -1.03597
 Alpha  occ. eigenvalues --   -1.03468  -0.96065  -0.95886  -0.87016  -0.86964
 Alpha  occ. eigenvalues --   -0.79671  -0.79527  -0.78259  -0.78238  -0.65079
 Alpha  occ. eigenvalues --   -0.65055  -0.61001  -0.60916  -0.59841  -0.59024
 Alpha  occ. eigenvalues --   -0.57909  -0.57141  -0.55281  -0.55232  -0.52791
 Alpha  occ. eigenvalues --   -0.52585  -0.52479  -0.52172  -0.49927  -0.49894
 Alpha  occ. eigenvalues --   -0.48019  -0.47825  -0.46633  -0.46617  -0.45811
 Alpha  occ. eigenvalues --   -0.45769  -0.45710  -0.45707  -0.43830  -0.43681
 Alpha virt. eigenvalues --    0.21650   0.23045   0.23364   0.25297   0.26375
 Alpha virt. eigenvalues --    0.26482   0.26869   0.27291   0.27753   0.29017
 Alpha virt. eigenvalues --    0.29966   0.30933   0.31412   0.31635   0.32338

 Mulliken charges:
               1
     1  C   -0.298309
     2  C   -0.301077
     3  C   -0.486041
     4  H    0.149783
     5  H    0.149664
     6  H    0.152369
     7  H    0.151994
     8  H    0.154898
     9  H    0.154728
    10  H    0.171871
    11  C   -0.298346
    12  C   -0.299645
    13  C   -0.475702
    14  H    0.149596
    15  H    0.149602
    16  H    0.151959
    17  H    0.151924
    18  H    0.155159
    19  H    0.155214
    20  H    0.160243
    21  C   -0.297580
    22  C   -0.303748
    23  C   -0.483889
    24  H    0.149772
    25  H    0.149647
    26  H    0.153965
    27  H    0.152291
    28  H    0.155592
    29  H    0.155093
    30  H    0.168853
    31  C   -0.298442
    32  C   -0.299661
    33  C   -0.475718
    34  H    0.149753
    35  H    0.149626
    36  H    0.151978
    37  H    0.151926
    38  H    0.155160
    39  H    0.155242
    40  H    0.160257
 Sum of Mulliken charges =  -0.00000

 Dipole moment (field-independent basis, Debye):
    X=              0.0101    Y=              0.0049    Z=             -0.0039  Tot=              0.0119
 Quadrupole moment (field-independent basis, Debye-Ang):
   XX=            -86.1146   YY=            -85.1266   ZZ=            -83.5852
   XY=              0.9278   XZ=             -0.2120   YZ=              0.0398

 Normal termination of Gaussian 16 at Wed May  5 19:55:08 2021.
