 Gaussian 16, Revision A.03,
 Gaussian 16:  EM64L-G16RevA.03 25-Dec-2016

 -------------
 #p 6-31g* mp2
 -------------

 ------------------------------------------------------
 Input file generated by CHIRIPA (05-May-2021 14:51:12)
 ------------------------------------------------------
 Symbolic Z-matrix:
 Charge =  0 Multiplicity = 1

                         Standard orientation:
 ---------------------------------------------------------------------
 Center     Atomic      Atomic             Coordinates (Angstroms)
 Number     Number       Type             X           Y           Z
 ---------------------------------------------------------------------
      1          6           0        4.525880   -0.172320    0.072568
      2          6           0        4.369087   -1.669240   -0.196936
      3          6           0        5.647493   -2.458219    0.087637
      4          1           0        5.345943    0.220813   -0.543783
      5          1           0        4.823530   -0.024622    1.119939
      6          1           0        4.070475   -1.813995   -1.243117
      7          1           0        3.549176   -2.058816    0.419986
      8          1           0        5.946028   -2.343401    1.134677
      9          1           0        6.470290   -2.097189   -0.537874
     10          1           0        5.513055   -3.525955   -0.111682
     11          6           0        3.256275    0.629866   -0.207302
     12          6           0        3.413069    2.126786    0.062202
     13          6           0        2.134663    2.915766   -0.222371
     14          1           0        2.958625    0.482168   -1.254673
     15          1           0        2.436212    0.236733    0.409049
     16          1           0        4.232980    2.516362   -0.554720
     17          1           0        3.711680    2.271541    1.108383
     18          1           0        1.311866    2.554736    0.403140
     19          1           0        1.836127    2.800948   -1.269411
     20          1           0        2.269101    3.983501   -0.023053
     21          6           0       -3.189221   -0.392431   -0.185702
     22          6           0       -2.078326    0.201509    0.680978
     23          6           0       -0.679980   -0.134585    0.161876
     24          1           0       -3.066028   -1.483137   -0.231855
     25          1           0       -3.080043   -0.021740   -1.214324
     26          1           0       -2.190387   -0.169104    1.707966
     27          1           0       -2.204289    1.290908    0.725229
     28          1           0       -0.543589    0.249648   -0.854177
     29          1           0       -0.529608   -1.218660    0.134142
     30          1           0        0.098912    0.299844    0.796271
     31          6           0       -4.592935   -0.065116    0.320435
     32          6           0       -5.703830   -0.659056   -0.546244
     33          6           0       -7.102175   -0.322962   -0.027141
     34          1           0       -4.702113   -0.435806    1.349058
     35          1           0       -4.716128    1.025590    0.366589
     36          1           0       -5.577867   -1.748455   -0.590496
     37          1           0       -5.591769   -0.288442   -1.573231
     38          1           0       -7.252548    0.761114    0.000591
     39          1           0       -7.238567   -0.707194    0.988911
     40          1           0       -7.881067   -0.757390   -0.661537
 ---------------------------------------------------------------------

 SCF Done:  E(RHF) =  -470.732659571     A.U. after   11 cycles
 E2 =    -0.1583127427D+01 EUMP2 =    -0.47231578699805D+03

 The electronic state is 1-A.
 Alpha  occ. eigenvalues --  -11.21597 -11.21593 -11.21551 -11.21550 -11.21400
 Alpha  occ. eigenvalues --  -11.21340 -11.21328 -11.21248 -11.21068 -11.21037
 Alpha  occ. eigenvalues --  -11.21035 -11.21016  -1.08429  -1.08366  -1.03541
 Alpha  occ. eigenvalues --   -1.03467  -0.95978  -0.95927  -0.87002  -0.86944
 Alpha  occ. eigenvalues --   -0.79653  -0.79492  -0.78259  -0.78146  -0.65056
 Alpha  occ. eigenvalues --   -0.65020  -0.60951  -0.60885  -0.59467  -0.59180
 Alpha  occ. eigenvalues --   -0.57602  -0.57525  -0.55294  -0.55184  -0.52761
 Alpha  occ. eigenvalues --   -0.52601  -0.52415  -0.52334  -0.49940  -0.49849
 Alpha  occ. eigenvalues --   -0.47940  -0.47825  -0.46620  -0.46562  -0.45812
 Alpha  occ. eigenvalues --   -0.45721  -0.45684  -0.45644  -0.43737  -0.43647
 Alpha virt. eigenvalues --    0.21487   0.23064   0.23587   0.25033   0.26008
 Alpha virt. eigenvalues --    0.26634   0.26846   0.27476   0.27893   0.29469
 Alpha virt. eigenvalues --    0.30113   0.31274   0.31650   0.31930   0.32115

 Mulliken charges:
               1
     1  C   -0.297785
     2  C   -0.299504
     3  C   -0.475652
     4  H    0.149274
     5  H    0.148963
     6  H    0.151940
     7  H    0.151978
     8  H    0.155011
     9  H    0.155080
    10  H    0.160043
    11  C   -0.303649
    12  C   -0.299788
    13  C   -0.477936
    14  H    0.149314
    15  H    0.156870
    16  H    0.151628
    17  H    0.151194
    18  H    0.158310
    19  H    0.154797
    20  H    0.159606
    21  C   -0.298644
    22  C   -0.300456
    23  C   -0.478467
    24  H    0.149623
    25  H    0.149643
    26  H    0.151498
    27  H    0.152224
    28  H    0.156811
    29  H    0.154712
    30  H    0.163313
    31  C   -0.298245
    32  C   -0.299617
    33  C   -0.475696
    34  H    0.149434
    35  H    0.149727
    36  H    0.151905
    37  H    0.151951
    38  H    0.155204
    39  H    0.155148
    40  H    0.160238
 Sum of Mulliken charges =  -0.00000

 Dipole moment (field-independent basis, Debye):
    X=             -0.0250    Y=             -0.0088    Z=             -0.0069  Tot=              0.0274
 Quadrupole moment (field-independent basis, Debye-Ang):
   XX=            -86.8171   YY=            -84.6566   ZZ=            -83.6025
   XY=              0.7592   XZ=             -0.1488   YZ=             -0.5617

 Normal termination of Gaussian 16 at Thu May  6 05:32:02 2021.
