 Gaussian 16, Revision A.03,
 Gaussian 16:  EM64L-G16RevA.03 25-Dec-2016

 -------------
 #p 6-31g* mp2
 -------------

 ------------------------------------------------------
 Input file generated by CHIRIPA (05-May-2021 14:51:10)
 ------------------------------------------------------
 Symbolic Z-matrix:
 Charge =  0 Multiplicity = 1

                         Standard orientation:
 ---------------------------------------------------------------------
 Center     Atomic      Atomic             Coordinates (Angstroms)
 Number     Number       Type             X           Y           Z
 ---------------------------------------------------------------------
      1          6           0       -3.811569    0.600352    0.296375
      2          6           0       -3.061234    1.692545   -0.466577
      3          6           0       -1.892644    2.273724    0.329929
      4          1           0       -4.181656    1.012802    1.244987
      5          1           0       -3.109164   -0.203192    0.557790
      6          1           0       -3.765136    2.493146   -0.727681
      7          1           0       -2.693055    1.277499   -1.413571
      8          1           0       -1.168500    1.491024    0.578116
      9          1           0       -2.246673    2.713578    1.267902
     10          1           0       -1.370275    3.052681   -0.234178
     11          6           0       -4.982566    0.009567   -0.486867
     12          6           0       -5.732901   -1.082626    0.276085
     13          6           0       -6.901492   -1.663806   -0.520421
     14          1           0       -5.684971    0.813111   -0.748283
     15          1           0       -4.612479   -0.402883   -1.435480
     16          1           0       -6.101080   -0.667581    1.223078
     17          1           0       -5.028999   -1.883227    0.537189
     18          1           0       -6.547462   -2.103659   -1.458395
     19          1           0       -7.625635   -0.881105   -0.768608
     20          1           0       -7.423860   -2.442763    0.043686
     21          6           0        3.659502   -0.225813   -0.086865
     22          6           0        2.711320   -0.557517    1.065918
     23          6           0        1.239255   -0.394456    0.686143
     24          1           0        3.476912    0.805604   -0.418205
     25          1           0        3.426519   -0.874821   -0.942378
     26          1           0        2.946932    0.090975    1.919477
     27          1           0        2.896321   -1.588200    1.394679
     28          1           0        0.981786   -1.053088   -0.149627
     29          1           0        1.032684    0.635627    0.378151
     30          1           0        0.579072   -0.636667    1.524805
     31          6           0        5.134634   -0.384106    0.277357
     32          6           0        6.082815   -0.052401   -0.875425
     33          6           0        7.554880   -0.215463   -0.495651
     34          1           0        5.367616    0.264902    1.132870
     35          1           0        5.317223   -1.415522    0.608698
     36          1           0        5.897814    0.978281   -1.204187
     37          1           0        5.847203   -0.700893   -1.728984
     38          1           0        7.761451   -1.245545   -0.187659
     39          1           0        7.812350    0.443170    0.340120
     40          1           0        8.215063    0.026748   -1.334312
 ---------------------------------------------------------------------

 SCF Done:  E(RHF) =  -470.733113252     A.U. after   11 cycles
 E2 =    -0.1582404764D+01 EUMP2 =    -0.47231551801564D+03

 The electronic state is 1-A.
 Alpha  occ. eigenvalues --  -11.21629 -11.21612 -11.21568 -11.21525 -11.21422
 Alpha  occ. eigenvalues --  -11.21362 -11.21353 -11.21291 -11.21110 -11.21079
 Alpha  occ. eigenvalues --  -11.21046 -11.20930  -1.08450  -1.08373  -1.03560
 Alpha  occ. eigenvalues --   -1.03464  -0.96030  -0.95901  -0.87072  -0.86900
 Alpha  occ. eigenvalues --   -0.79662  -0.79498  -0.78264  -0.78183  -0.65089
 Alpha  occ. eigenvalues --   -0.64998  -0.61030  -0.60808  -0.59384  -0.59280
 Alpha  occ. eigenvalues --   -0.57624  -0.57530  -0.55472  -0.55067  -0.52744
 Alpha  occ. eigenvalues --   -0.52623  -0.52471  -0.52272  -0.50132  -0.49668
 Alpha  occ. eigenvalues --   -0.47973  -0.47806  -0.46733  -0.46453  -0.45818
 Alpha  occ. eigenvalues --   -0.45738  -0.45706  -0.45608  -0.43799  -0.43727
 Alpha virt. eigenvalues --    0.22360   0.22939   0.23706   0.24689   0.26228
 Alpha virt. eigenvalues --    0.26589   0.27178   0.27429   0.27782   0.28966
 Alpha virt. eigenvalues --    0.30805   0.31117   0.31643   0.31800   0.32018

 Mulliken charges:
               1
     1  C   -0.298635
     2  C   -0.298775
     3  C   -0.484549
     4  H    0.149339
     5  H    0.150102
     6  H    0.151373
     7  H    0.151764
     8  H    0.166170
     9  H    0.154344
    10  H    0.158702
    11  C   -0.298247
    12  C   -0.299622
    13  C   -0.475666
    14  H    0.149391
    15  H    0.149579
    16  H    0.151835
    17  H    0.151895
    18  H    0.155116
    19  H    0.155127
    20  H    0.160116
    21  C   -0.298658
    22  C   -0.299636
    23  C   -0.480239
    24  H    0.150076
    25  H    0.149438
    26  H    0.152407
    27  H    0.151919
    28  H    0.155000
    29  H    0.159803
    30  H    0.160310
    31  C   -0.298343
    32  C   -0.299669
    33  C   -0.475721
    34  H    0.149657
    35  H    0.149666
    36  H    0.152018
    37  H    0.151903
    38  H    0.155179
    39  H    0.155237
    40  H    0.160292
 Sum of Mulliken charges =  -0.00000

 Dipole moment (field-independent basis, Debye):
    X=              0.0450    Y=             -0.0148    Z=              0.0065  Tot=              0.0478
 Quadrupole moment (field-independent basis, Debye-Ang):
   XX=            -86.5076   YY=            -83.6953   ZZ=            -84.7705
   XY=             -0.7175   XZ=             -0.7742   YZ=              0.3785

 Normal termination of Gaussian 16 at Thu May  6 06:59:34 2021.
