 Gaussian 16, Revision A.03,
 Gaussian 16:  EM64L-G16RevA.03 25-Dec-2016

 -------------
 #p 6-31g* mp2
 -------------

 ------------------------------------------------------
 Input file generated by CHIRIPA (05-May-2021 14:55:25)
 ------------------------------------------------------
 Symbolic Z-matrix:
 Charge =  0 Multiplicity = 1

                         Standard orientation:
 ---------------------------------------------------------------------
 Center     Atomic      Atomic             Coordinates (Angstroms)
 Number     Number       Type             X           Y           Z
 ---------------------------------------------------------------------
      1          6           0       -1.609361    0.636689   -0.311687
      2          6           0       -2.062292   -0.686338   -0.342878
      3          6           0       -3.423825   -0.974039   -0.208703
      4          6           0       -4.308694    0.090493   -0.044181
      5          6           0       -3.888284    1.419142   -0.009013
      6          6           0       -2.522193    1.683362   -0.145148
      7          1           0       -0.549919    0.851062   -0.416678
      8          1           0       -1.355650   -1.501205   -0.472084
      9          1           0       -3.801696   -1.989032   -0.229240
     10          1           0       -4.616682    2.210287    0.121155
     11          1           0       -2.173295    2.711812   -0.120546
     12          7           0       -5.752501   -0.201654    0.098901
     13          8           0       -6.511824    0.754061    0.242689
     14          8           0       -6.097495   -1.380821    0.064552
     15          6           0        5.921067   -0.348790   -0.135156
     16          6           0        6.939957    0.741455    0.198333
     17          6           0        8.356809    0.384102   -0.251804
     18          1           0        6.231753   -1.289653    0.339393
     19          1           0        5.928083   -0.528260   -1.219193
     20          1           0        6.930033    0.919790    1.281252
     21          1           0        6.626708    1.679879   -0.276907
     22          1           0        8.388664    0.226165   -1.334690
     23          1           0        8.693711   -0.538242    0.232321
     24          1           0        9.068963    1.177236   -0.003538
     25          6           0        4.500021   -0.006135    0.308629
     26          6           0        3.481131   -1.096380   -0.024861
     27          6           0        2.064279   -0.739027    0.425277
     28          1           0        4.493005    0.173335    1.392665
     29          1           0        4.189335    0.934728   -0.165920
     30          1           0        3.794380   -2.034804    0.450380
     31          1           0        3.491055   -1.274715   -1.107779
     32          1           0        1.727376    0.183317   -0.058849
     33          1           0        2.032424   -0.581090    1.508163
     34          1           0        1.352125   -1.532161    0.177011
 ---------------------------------------------------------------------

 SCF Done:  E(RHF) =  -669.535357332     A.U. after   15 cycles
 E2 =    -0.2091150387D+01 EUMP2 =    -0.67162650771891D+03

 The electronic state is 1-A.
 Alpha  occ. eigenvalues --  -20.60692 -20.60687 -15.85746 -11.31088 -11.27662
 Alpha  occ. eigenvalues --  -11.27657 -11.27342 -11.26660 -11.26645 -11.22603
 Alpha  occ. eigenvalues --  -11.22462 -11.22206 -11.22149 -11.22018 -11.21523
 Alpha  occ. eigenvalues --   -1.59769  -1.39323  -1.19258  -1.09207  -1.08650
 Alpha  occ. eigenvalues --   -1.04662  -1.04351  -0.96831  -0.95489  -0.87858
 Alpha  occ. eigenvalues --   -0.86054  -0.82330  -0.80428  -0.78972  -0.77383
 Alpha  occ. eigenvalues --   -0.71963  -0.71092  -0.70371  -0.65832  -0.64907
 Alpha  occ. eigenvalues --   -0.64676  -0.62026  -0.61746  -0.60218  -0.58418
 Alpha  occ. eigenvalues --   -0.56195  -0.55124  -0.53548  -0.53226  -0.52981
 Alpha  occ. eigenvalues --   -0.52730  -0.50749  -0.48767  -0.48720  -0.48681
 Alpha  occ. eigenvalues --   -0.47430  -0.46526  -0.46417  -0.44733  -0.44589
 Alpha  occ. eigenvalues --   -0.37223  -0.36271
 Alpha virt. eigenvalues --    0.05155   0.11372   0.16648   0.19726   0.22350
 Alpha virt. eigenvalues --    0.23821   0.24899   0.25759   0.26191   0.27216
 Alpha virt. eigenvalues --    0.29053   0.29297   0.31056   0.31614   0.32160

 Mulliken charges:
               1
     1  C   -0.173903
     2  C   -0.222889
     3  C   -0.171190
     4  C    0.158257
     5  C   -0.170830
     6  C   -0.220264
     7  H    0.233602
     8  H    0.225057
     9  H    0.275273
    10  H    0.275141
    11  H    0.223200
    12  N    0.488038
    13  O   -0.460757
    14  O   -0.460760
    15  C   -0.298927
    16  C   -0.300157
    17  C   -0.476121
    18  H    0.151277
    19  H    0.150421
    20  H    0.152788
    21  H    0.151993
    22  H    0.155774
    23  H    0.156102
    24  H    0.161742
    25  C   -0.299188
    26  C   -0.299666
    27  C   -0.480946
    28  H    0.151334
    29  H    0.148733
    30  H    0.156186
    31  H    0.153586
    32  H    0.147737
    33  H    0.162350
    34  H    0.157009
 Sum of Mulliken charges =  -0.00000

 Dipole moment (field-independent basis, Debye):
    X=              5.3935    Y=              0.9984    Z=             -0.4601  Tot=              5.5044
 Quadrupole moment (field-independent basis, Debye-Ang):
   XX=           -139.3070   YY=            -89.5955   ZZ=            -94.7787
   XY=             -5.1464   XZ=              2.4100   YZ=             -0.0926

 Normal termination of Gaussian 16 at Thu May  6 07:59:39 2021.
