 Gaussian 16, Revision A.03,
 Gaussian 16:  EM64L-G16RevA.03 25-Dec-2016

 -------------
 #p 6-31g* mp2
 -------------

 ------------------------------------------------------
 Input file generated by CHIRIPA (05-May-2021 14:55:21)
 ------------------------------------------------------
 Symbolic Z-matrix:
 Charge =  0 Multiplicity = 1

                         Standard orientation:
 ---------------------------------------------------------------------
 Center     Atomic      Atomic             Coordinates (Angstroms)
 Number     Number       Type             X           Y           Z
 ---------------------------------------------------------------------
      1          6           0       -1.682525    1.396184    1.957357
      2          6           0       -3.063517    1.396424    1.735137
      3          6           0       -3.625914    0.567191    0.760134
      4          6           0       -2.773982   -0.253268    0.022334
      5          6           0       -1.394270   -0.276125    0.220226
      6          6           0       -0.853770    0.561382    1.200527
      7          1           0       -1.254146    2.043566    2.716821
      8          1           0       -3.709564    2.043699    2.321399
      9          1           0       -4.691682    0.547419    0.567353
     10          1           0       -0.775813   -0.932349   -0.380024
     11          1           0        0.219078    0.559104    1.370931
     12          7           0       -3.357776   -1.135520   -1.012663
     13          8           0       -2.585648   -1.849069   -1.649296
     14          8           0       -4.576427   -1.096773   -1.167661
     15          6           0        3.323259    0.567252   -0.870112
     16          6           0        2.677384    1.920959   -0.572944
     17          6           0        2.475273    2.768118   -1.829632
     18          1           0        4.291119    0.730375   -1.363652
     19          1           0        2.695759    0.018740   -1.586193
     20          1           0        3.305207    2.466182    0.143425
     21          1           0        1.711035    1.754598   -0.079881
     22          1           0        1.830758    2.247757   -2.545471
     23          1           0        3.433987    2.963385   -2.320896
     24          1           0        2.012281    3.731482   -1.594200
     25          6           0        3.531822   -0.291124    0.376252
     26          6           0        4.177698   -1.644830    0.079086
     27          6           0        4.379808   -2.491990    1.335773
     28          1           0        4.159322    0.257387    1.092335
     29          1           0        2.563961   -0.454246    0.869793
     30          1           0        5.144045   -1.478469   -0.413978
     31          1           0        3.549873   -2.190053   -0.637285
     32          1           0        3.421094   -2.687256    1.827037
     33          1           0        5.024323   -1.971629    2.051613
     34          1           0        4.842800   -3.455354    1.100341
 ---------------------------------------------------------------------

 SCF Done:  E(RHF) =  -669.535264921     A.U. after   15 cycles
 E2 =    -0.2092160693D+01 EUMP2 =    -0.67162742561390D+03

 The electronic state is 1-A.
 Alpha  occ. eigenvalues --  -20.60785 -20.60780 -15.85839 -11.31209 -11.27786
 Alpha  occ. eigenvalues --  -11.27782 -11.27518 -11.26790 -11.26755 -11.22303
 Alpha  occ. eigenvalues --  -11.22212 -11.22124 -11.22020 -11.21549 -11.21529
 Alpha  occ. eigenvalues --   -1.59860  -1.39414  -1.19384  -1.09109  -1.08773
 Alpha  occ. eigenvalues --   -1.04790  -1.04108  -0.96548  -0.95609  -0.87559
 Alpha  occ. eigenvalues --   -0.86188  -0.82448  -0.80187  -0.78954  -0.77486
 Alpha  occ. eigenvalues --   -0.72057  -0.71183  -0.70487  -0.65830  -0.65032
 Alpha  occ. eigenvalues --   -0.64749  -0.62154  -0.61481  -0.59915  -0.58166
 Alpha  occ. eigenvalues --   -0.55836  -0.55283  -0.53233  -0.53116  -0.52961
 Alpha  occ. eigenvalues --   -0.52887  -0.50489  -0.48824  -0.48812  -0.48488
 Alpha  occ. eigenvalues --   -0.47224  -0.46443  -0.46371  -0.44818  -0.44392
 Alpha  occ. eigenvalues --   -0.37355  -0.36375
 Alpha virt. eigenvalues --    0.05038   0.11176   0.16438   0.19051   0.22875
 Alpha virt. eigenvalues --    0.23846   0.24580   0.26246   0.27272   0.28392
 Alpha virt. eigenvalues --    0.29816   0.30795   0.31302   0.31417   0.32053

 Mulliken charges:
               1
     1  C   -0.172502
     2  C   -0.218465
     3  C   -0.170610
     4  C    0.158662
     5  C   -0.173474
     6  C   -0.223526
     7  H    0.226552
     8  H    0.223551
     9  H    0.275762
    10  H    0.274957
    11  H    0.232874
    12  N    0.488161
    13  O   -0.460579
    14  O   -0.460351
    15  C   -0.299929
    16  C   -0.304490
    17  C   -0.475564
    18  H    0.153969
    19  H    0.152056
    20  H    0.152091
    21  H    0.146414
    22  H    0.159001
    23  H    0.157366
    24  H    0.160894
    25  C   -0.301418
    26  C   -0.300358
    27  C   -0.476161
    28  H    0.151380
    29  H    0.140534
    30  H    0.154982
    31  H    0.154982
    32  H    0.154276
    33  H    0.155280
    34  H    0.163681
 Sum of Mulliken charges =  -0.00000

 Dipole moment (field-independent basis, Debye):
    X=              2.1837    Y=              3.1011    Z=              3.5672  Tot=              5.2068
 Quadrupole moment (field-independent basis, Debye-Ang):
   XX=           -100.4918   YY=            -96.5600   ZZ=            -95.5501
   XY=            -10.6941   XZ=            -11.6753   YZ=              0.2317

 Normal termination of Gaussian 16 at Wed May  5 23:49:13 2021.
