 Gaussian 16, Revision A.03,
 Gaussian 16:  EM64L-G16RevA.03 25-Dec-2016

 -------------
 #p 6-31g* mp2
 -------------

 ------------------------------------------------------
 Input file generated by CHIRIPA (05-May-2021 14:55:22)
 ------------------------------------------------------
 Symbolic Z-matrix:
 Charge =  0 Multiplicity = 1

                         Standard orientation:
 ---------------------------------------------------------------------
 Center     Atomic      Atomic             Coordinates (Angstroms)
 Number     Number       Type             X           Y           Z
 ---------------------------------------------------------------------
      1          6           0        1.504795   -1.830543    1.593782
      2          6           0        0.850826   -1.360882    0.449988
      3          6           0        1.482121   -0.454539   -0.407076
      4          6           0        2.773409   -0.036971   -0.088481
      5          6           0        3.451250   -0.486696    1.043582
      6          6           0        2.800635   -1.392723    1.886413
      7          1           0        1.006886   -2.534489    2.254042
      8          1           0       -0.155560   -1.699174    0.220226
      9          1           0        0.999026   -0.074875   -1.299204
     10          1           0        4.454261   -0.131300    1.246269
     11          1           0        3.310946   -1.755783    2.774002
     12          7           0        3.451959    0.922366   -0.988282
     13          8           0        4.589758    1.274904   -0.685352
     14          8           0        2.833159    1.303590   -1.979439
     15          6           0       -3.174385   -0.286928   -0.567924
     16          6           0       -3.905099   -1.619623   -0.400696
     17          6           0       -3.429096   -2.683099   -1.390764
     18          1           0       -3.317352    0.076006   -1.594951
     19          1           0       -2.095134   -0.450088   -0.441464
     20          1           0       -4.982775   -1.453756   -0.526062
     21          1           0       -3.760535   -1.979332    0.626108
     22          1           0       -2.359395   -2.877679   -1.262398
     23          1           0       -3.588579   -2.349115   -2.421114
     24          1           0       -3.964604   -3.627699   -1.253580
     25          6           0       -3.639248    0.786337    0.414793
     26          6           0       -2.908534    2.119033    0.247565
     27          6           0       -3.384537    3.182508    1.237633
     28          1           0       -4.718498    0.949498    0.288333
     29          1           0       -3.496281    0.423403    1.441820
     30          1           0       -3.053097    2.478741   -0.779240
     31          1           0       -1.830857    1.953165    0.372931
     32          1           0       -3.225053    2.848525    2.267983
     33          1           0       -4.454238    3.377087    1.109266
     34          1           0       -2.849028    4.127109    1.100448
 ---------------------------------------------------------------------

 SCF Done:  E(RHF) =  -669.535428170     A.U. after   15 cycles
 E2 =    -0.2091818557D+01 EUMP2 =    -0.67162724672759D+03

 The electronic state is 1-A.
 Alpha  occ. eigenvalues --  -20.60765 -20.60759 -15.85819 -11.31198 -11.27777
 Alpha  occ. eigenvalues --  -11.27767 -11.27519 -11.26791 -11.26770 -11.22380
 Alpha  occ. eigenvalues --  -11.22178 -11.21962 -11.21900 -11.21898 -11.21320
 Alpha  occ. eigenvalues --   -1.59840  -1.39393  -1.19376  -1.09067  -1.08767
 Alpha  occ. eigenvalues --   -1.04783  -1.04100  -0.96559  -0.95599  -0.87571
 Alpha  occ. eigenvalues --   -0.86180  -0.82437  -0.80174  -0.78868  -0.77472
 Alpha  occ. eigenvalues --   -0.72037  -0.71164  -0.70482  -0.65788  -0.65026
 Alpha  occ. eigenvalues --   -0.64746  -0.62151  -0.61471  -0.59931  -0.58153
 Alpha  occ. eigenvalues --   -0.55870  -0.55282  -0.53225  -0.53111  -0.52982
 Alpha  occ. eigenvalues --   -0.52874  -0.50513  -0.48803  -0.48790  -0.48473
 Alpha  occ. eigenvalues --   -0.47217  -0.46385  -0.46304  -0.44795  -0.44365
 Alpha  occ. eigenvalues --   -0.37357  -0.36378
 Alpha virt. eigenvalues --    0.05039   0.11247   0.16432   0.18767   0.22913
 Alpha virt. eigenvalues --    0.23466   0.25102   0.26468   0.27079   0.28310
 Alpha virt. eigenvalues --    0.29643   0.29737   0.31175   0.31560   0.31959

 Mulliken charges:
               1
     1  C   -0.171672
     2  C   -0.224844
     3  C   -0.172950
     4  C    0.158528
     5  C   -0.170809
     6  C   -0.218471
     7  H    0.225998
     8  H    0.231162
     9  H    0.276637
    10  H    0.275740
    11  H    0.223499
    12  N    0.488126
    13  O   -0.460544
    14  O   -0.460081
    15  C   -0.302370
    16  C   -0.300873
    17  C   -0.476747
    18  H    0.154737
    19  H    0.140758
    20  H    0.156743
    21  H    0.149358
    22  H    0.147480
    23  H    0.160047
    24  H    0.163643
    25  C   -0.297842
    26  C   -0.300975
    27  C   -0.476180
    28  H    0.152125
    29  H    0.148396
    30  H    0.154713
    31  H    0.152780
    32  H    0.154549
    33  H    0.155621
    34  H    0.163719
 Sum of Mulliken charges =  -0.00000

 Dipole moment (field-independent basis, Debye):
    X=             -2.5326    Y=             -3.2985    Z=              3.1451  Tot=              5.2140
 Quadrupole moment (field-independent basis, Debye-Ang):
   XX=           -103.8254   YY=            -95.7230   ZZ=            -93.8930
   XY=             -9.5075   XZ=             12.7306   YZ=             -0.6778

 Normal termination of Gaussian 16 at Wed May  5 17:30:29 2021.
