 Gaussian 16, Revision A.03,
 Gaussian 16:  EM64L-G16RevA.03 25-Dec-2016

 -------------
 #p 6-31g* mp2
 -------------

 ------------------------------------------------------
 Input file generated by CHIRIPA (05-May-2021 14:55:19)
 ------------------------------------------------------
 Symbolic Z-matrix:
 Charge =  0 Multiplicity = 1

                         Standard orientation:
 ---------------------------------------------------------------------
 Center     Atomic      Atomic             Coordinates (Angstroms)
 Number     Number       Type             X           Y           Z
 ---------------------------------------------------------------------
      1          6           0       -3.602253    2.667867    0.300881
      2          6           0       -4.503118    1.700967    0.759211
      3          6           0       -4.262376    0.342454    0.533307
      4          6           0       -3.105629   -0.015328   -0.157504
      5          6           0       -2.189028    0.924366   -0.626659
      6          6           0       -2.450114    2.277170   -0.389374
      7          1           0       -3.797169    3.720975    0.480789
      8          1           0       -5.398702    2.001476    1.295558
      9          1           0       -4.942990   -0.426959    0.877091
     10          1           0       -1.304883    0.594124   -1.158303
     11          1           0       -1.748728    3.025890   -0.746476
     12          7           0       -2.839998   -1.450503   -0.402683
     13          8           0       -1.813627   -1.739808   -1.013832
     14          8           0       -3.663196   -2.258913    0.020938
     15          6           0        4.662917    0.061289    0.406370
     16          6           0        5.215717    1.110726   -0.558554
     17          6           0        6.479487    1.791025   -0.031420
     18          1           0        4.448649    0.537763    1.372810
     19          1           0        5.436253   -0.695971    0.595854
     20          1           0        4.441097    1.865032   -0.747243
     21          1           0        5.428514    0.631738   -1.522870
     22          1           0        7.270903    1.054135    0.139615
     23          1           0        6.277876    2.294435    0.919649
     24          1           0        6.857647    2.537465   -0.736886
     25          6           0        3.399569   -0.627577   -0.106606
     26          6           0        2.846769   -1.677013    0.858319
     27          6           0        1.582999   -2.357313    0.331184
     28          1           0        2.626233    0.129684   -0.296089
     29          1           0        3.613837   -1.104050   -1.073047
     30          1           0        2.633972   -1.198025    1.822634
     31          1           0        3.621388   -2.431319    1.047008
     32          1           0        1.784609   -2.860722   -0.619884
     33          1           0        0.791583   -1.620422    0.160148
     34          1           0        1.204839   -3.103753    1.036651
 ---------------------------------------------------------------------

 SCF Done:  E(RHF) =  -669.535792235     A.U. after   15 cycles
 E2 =    -0.2091089867D+01 EUMP2 =    -0.67162688210229D+03

 The electronic state is 1-A.
 Alpha  occ. eigenvalues --  -20.60878 -20.60866 -15.85899 -11.31261 -11.27830
 Alpha  occ. eigenvalues --  -11.27823 -11.27569 -11.26845 -11.26834 -11.21527
 Alpha  occ. eigenvalues --  -11.21196 -11.21081 -11.21032 -11.21004 -11.20032
 Alpha  occ. eigenvalues --   -1.59932  -1.39488  -1.19433  -1.08829  -1.08140
 Alpha  occ. eigenvalues --   -1.04835  -1.03144  -0.95674  -0.95552  -0.86566
 Alpha  occ. eigenvalues --   -0.86233  -0.82498  -0.79221  -0.77940  -0.77542
 Alpha  occ. eigenvalues --   -0.72123  -0.71247  -0.70541  -0.65088  -0.64840
 Alpha  occ. eigenvalues --   -0.64780  -0.62183  -0.60548  -0.58986  -0.57172
 Alpha  occ. eigenvalues --   -0.55336  -0.54851  -0.53164  -0.52927  -0.52229
 Alpha  occ. eigenvalues --   -0.51972  -0.49526  -0.48883  -0.48876  -0.47520
 Alpha  occ. eigenvalues --   -0.46300  -0.45502  -0.45420  -0.44758  -0.43409
 Alpha  occ. eigenvalues --   -0.37412  -0.36438
 Alpha virt. eigenvalues --    0.04953   0.11197   0.16425   0.21131   0.23046
 Alpha virt. eigenvalues --    0.24450   0.26323   0.27304   0.27627   0.28094
 Alpha virt. eigenvalues --    0.28873   0.30546   0.31606   0.32035   0.32441

 Mulliken charges:
               1
     1  C   -0.170716
     2  C   -0.218494
     3  C   -0.170901
     4  C    0.158557
     5  C   -0.172064
     6  C   -0.218530
     7  H    0.225871
     8  H    0.223734
     9  H    0.275828
    10  H    0.276264
    11  H    0.223747
    12  N    0.488494
    13  O   -0.458626
    14  O   -0.459319
    15  C   -0.297755
    16  C   -0.298800
    17  C   -0.475433
    18  H    0.148080
    19  H    0.150184
    20  H    0.148386
    21  H    0.152490
    22  H    0.155892
    23  H    0.154269
    24  H    0.159177
    25  C   -0.295744
    26  C   -0.301398
    27  C   -0.474780
    28  H    0.142742
    29  H    0.150770
    30  H    0.147930
    31  H    0.150072
    32  H    0.156726
    33  H    0.162709
    34  H    0.160635
 Sum of Mulliken charges =  -0.00000

 Dipole moment (field-independent basis, Debye):
    X=             -1.1251    Y=              4.9738    Z=              0.8251  Tot=              5.1658
 Quadrupole moment (field-independent basis, Debye-Ang):
   XX=            -86.4388   YY=            -94.8602   ZZ=            -94.5552
   XY=            -15.8004   XZ=             -5.5754   YZ=             -1.1427

 Normal termination of Gaussian 16 at Wed May  5 23:45:04 2021.
