 Gaussian 16, Revision A.03,
 Gaussian 16:  EM64L-G16RevA.03 25-Dec-2016

 -------------
 #p 6-31g* mp2
 -------------

 ------------------------------------------------------
 Input file generated by CHIRIPA (05-May-2021 14:57:23)
 ------------------------------------------------------
 Symbolic Z-matrix:
 Charge =  0 Multiplicity = 1

                         Standard orientation:
 ---------------------------------------------------------------------
 Center     Atomic      Atomic             Coordinates (Angstroms)
 Number     Number       Type             X           Y           Z
 ---------------------------------------------------------------------
      1          6           0        3.092448    1.602935    1.055108
      2          6           0        2.284250    1.880442   -0.052287
      3          6           0        1.733919    0.840907   -0.807965
      4          6           0        2.013700   -0.470302   -0.426202
      5          6           0        2.815117   -0.778985    0.671858
      6          6           0        3.354840    0.276445    1.413016
      7          1           0        3.515839    2.416644    1.636497
      8          1           0        2.078776    2.909649   -0.332571
      9          1           0        1.104876    1.027336   -1.669920
     10          1           0        3.002056   -1.815090    0.926728
     11          1           0        3.982145    0.057951    2.272547
     12          7           0        1.436704   -1.579226   -1.218518
     13          8           0        1.698294   -2.725841   -0.861473
     14          8           0        0.733791   -1.280787   -2.181578
     15          6           0       -2.454099   -1.922412    1.463013
     16          6           0       -1.731209   -0.903694    2.092430
     17          6           0       -1.533668    0.324826    1.455040
     18          6           0       -2.075413    0.501188    0.182759
     19          6           0       -2.800275   -0.494396   -0.470447
     20          6           0       -2.985388   -1.714877    0.185836
     21          1           0       -2.602727   -2.873632    1.965491
     22          1           0       -1.317455   -1.062055    3.084283
     23          1           0       -0.978115    1.130592    1.919280
     24          1           0       -3.200631   -0.306898   -1.459374
     25          1           0       -3.547222   -2.504234   -0.305392
     26          7           0       -1.872864    1.797512   -0.502018
     27          8           0       -2.360352    1.927867   -1.622731
     28          8           0       -1.230452    2.658669    0.094935
 ---------------------------------------------------------------------

 SCF Done:  E(RHF) =  -868.339985008     A.U. after   16 cycles
 E2 =    -0.2602523179D+01 EUMP2 =    -0.87094250818639D+03

 The electronic state is 1-A.
 Alpha  occ. eigenvalues --  -20.60967 -20.60914 -20.60720 -20.60697 -15.85950
 Alpha  occ. eigenvalues --  -15.85749 -11.30979 -11.30973 -11.27592 -11.27541
 Alpha  occ. eigenvalues --  -11.27481 -11.27378 -11.27232 -11.27178 -11.26580
 Alpha  occ. eigenvalues --  -11.26525 -11.26401 -11.26331  -1.60017  -1.59783
 Alpha  occ. eigenvalues --   -1.39573  -1.39342  -1.19156  -1.19100  -1.08603
 Alpha  occ. eigenvalues --   -1.08534  -1.04495  -1.04459  -0.95490  -0.95398
 Alpha  occ. eigenvalues --   -0.85914  -0.85868  -0.82347  -0.82201  -0.77427
 Alpha  occ. eigenvalues --   -0.77277  -0.72196  -0.71983  -0.71399  -0.71065
 Alpha  occ. eigenvalues --   -0.70251  -0.70185  -0.64803  -0.64743  -0.64502
 Alpha  occ. eigenvalues --   -0.64432  -0.61851  -0.61785  -0.55020  -0.54980
 Alpha  occ. eigenvalues --   -0.53045  -0.52671  -0.52557  -0.52522  -0.48967
 Alpha  occ. eigenvalues --   -0.48922  -0.48738  -0.48720  -0.45055  -0.44783
 Alpha  occ. eigenvalues --   -0.37313  -0.36968  -0.36053  -0.35937
 Alpha virt. eigenvalues --    0.05037   0.05228   0.11333   0.11830   0.16505
 Alpha virt. eigenvalues --    0.16887   0.21618   0.21857   0.27604   0.27702
 Alpha virt. eigenvalues --    0.28477   0.28676   0.31210   0.31357   0.32617

 Mulliken charges:
               1
     1  C   -0.175656
     2  C   -0.209701
     3  C   -0.180155
     4  C    0.160407
     5  C   -0.175081
     6  C   -0.220337
     7  H    0.225566
     8  H    0.235993
     9  H    0.281391
    10  H    0.271860
    11  H    0.220640
    12  N    0.488714
    13  O   -0.464490
    14  O   -0.460472
    15  C   -0.167669
    16  C   -0.220486
    17  C   -0.171020
    18  C    0.153606
    19  C   -0.161790
    20  C   -0.216025
    21  H    0.226785
    22  H    0.220836
    23  H    0.271969
    24  H    0.278071
    25  H    0.226491
    26  N    0.486323
    27  O   -0.456779
    28  O   -0.468989
 Sum of Mulliken charges =  -0.00000

 Dipole moment (field-independent basis, Debye):
    X=              1.1234    Y=             -0.6309    Z=              5.0136  Tot=              5.1766
 Quadrupole moment (field-independent basis, Debye-Ang):
   XX=            -92.3889   YY=           -111.0393   ZZ=           -102.2493
   XY=             16.5038   XZ=              3.6092   YZ=             -3.5943

 Normal termination of Gaussian 16 at Thu May  6 03:24:36 2021.
