 Gaussian 16, Revision A.03,
 Gaussian 16:  EM64L-G16RevA.03 25-Dec-2016

 -------------
 #p 6-31g* mp2
 -------------

 ------------------------------------------------------
 Input file generated by CHIRIPA (05-May-2021 14:55:26)
 ------------------------------------------------------
 Symbolic Z-matrix:
 Charge =  0 Multiplicity = 1

                         Standard orientation:
 ---------------------------------------------------------------------
 Center     Atomic      Atomic             Coordinates (Angstroms)
 Number     Number       Type             X           Y           Z
 ---------------------------------------------------------------------
      1          6           0        4.100116   -1.376957   -1.383931
      2          6           0        3.932720    0.010224   -1.448955
      3          6           0        3.111672    0.670167   -0.529768
      4          6           0        2.470248   -0.091589    0.445728
      5          6           0        2.616957   -1.474893    0.536482
      6          6           0        3.442859   -2.113789   -0.393167
      7          1           0        4.739810   -1.881443   -2.102040
      8          1           0        4.441913    0.585013   -2.217320
      9          1           0        2.964369    1.742999   -0.557194
     10          1           0        2.096292   -2.020942    1.313756
     11          1           0        3.571004   -3.191206   -0.340266
     12          7           0        1.598473    0.595923    1.424367
     13          8           0        1.044418   -0.097921    2.274215
     14          8           0        1.485737    1.815620    1.323046
     15          6           0       -3.076300    0.859830   -0.756138
     16          6           0       -1.773156    1.421064   -0.186210
     17          6           0       -1.246471    2.616131   -0.981327
     18          1           0       -2.914345    0.563786   -1.801640
     19          1           0       -3.834613    1.654911   -0.770294
     20          1           0       -1.017932    0.624793   -0.171846
     21          1           0       -1.938181    1.715628    0.858114
     22          1           0       -1.979378    3.429416   -0.985228
     23          1           0       -1.053901    2.332383   -2.021041
     24          1           0       -0.314294    3.001522   -0.556615
     25          6           0       -3.615354   -0.335288    0.027981
     26          6           0       -4.918499   -0.896522   -0.541947
     27          6           0       -5.445184   -2.091589    0.253170
     28          1           0       -2.857042   -1.130369    0.042137
     29          1           0       -3.777309   -0.039244    1.073483
     30          1           0       -4.753473   -1.191086   -1.586272
     31          1           0       -5.673723   -0.100252   -0.556310
     32          1           0       -5.637754   -1.807841    1.292884
     33          1           0       -4.712276   -2.904874    0.257070
     34          1           0       -6.377361   -2.476979   -0.171542
 ---------------------------------------------------------------------

 SCF Done:  E(RHF) =  -669.535974737     A.U. after   15 cycles
 E2 =    -0.2092451668D+01 EUMP2 =    -0.67162842640554D+03

 The electronic state is 1-A.
 Alpha  occ. eigenvalues --  -20.60923 -20.60917 -15.85938 -11.31279 -11.27842
 Alpha  occ. eigenvalues --  -11.27838 -11.27580 -11.26849 -11.26838 -11.21121
 Alpha  occ. eigenvalues --  -11.20740 -11.20669 -11.20667 -11.20610 -11.20076
 Alpha  occ. eigenvalues --   -1.59974  -1.39531  -1.19446  -1.08849  -1.07739
 Alpha  occ. eigenvalues --   -1.04842  -1.02819  -0.95694  -0.95280  -0.86311
 Alpha  occ. eigenvalues --   -0.86243  -0.82524  -0.78899  -0.77576  -0.77531
 Alpha  occ. eigenvalues --   -0.72176  -0.71294  -0.70554  -0.65102  -0.64845
 Alpha  occ. eigenvalues --   -0.64383  -0.62190  -0.60236  -0.58641  -0.56846
 Alpha  occ. eigenvalues --   -0.55346  -0.54603  -0.53172  -0.52934  -0.51962
 Alpha  occ. eigenvalues --   -0.51709  -0.49267  -0.48943  -0.48919  -0.47198
 Alpha  occ. eigenvalues --   -0.45949  -0.45073  -0.44995  -0.44889  -0.43062
 Alpha  occ. eigenvalues --   -0.37424  -0.36443
 Alpha virt. eigenvalues --    0.04915   0.11206   0.16368   0.21270   0.23469
 Alpha virt. eigenvalues --    0.24855   0.27152   0.27217   0.27793   0.28188
 Alpha virt. eigenvalues --    0.28893   0.30716   0.31763   0.32009   0.32360

 Mulliken charges:
               1
     1  C   -0.170564
     2  C   -0.218655
     3  C   -0.170408
     4  C    0.156708
     5  C   -0.171281
     6  C   -0.218647
     7  H    0.225959
     8  H    0.223916
     9  H    0.275981
    10  H    0.275929
    11  H    0.223760
    12  N    0.490198
    13  O   -0.458250
    14  O   -0.459462
    15  C   -0.298694
    16  C   -0.293219
    17  C   -0.483738
    18  H    0.144654
    19  H    0.147982
    20  H    0.142184
    21  H    0.164071
    22  H    0.151655
    23  H    0.145106
    24  H    0.176370
    25  C   -0.297201
    26  C   -0.299087
    27  C   -0.475069
    28  H    0.148148
    29  H    0.153183
    30  H    0.149289
    31  H    0.151220
    32  H    0.156203
    33  H    0.153661
    34  H    0.158098
 Sum of Mulliken charges =  -0.00000

 Dipole moment (field-independent basis, Debye):
    X=              3.2597    Y=             -2.3701    Z=             -3.2524  Tot=              5.1790
 Quadrupole moment (field-independent basis, Debye-Ang):
   XX=            -80.4936   YY=            -90.9407   ZZ=            -97.5332
   XY=             -6.3123   XZ=             -8.4521   YZ=             -1.8750

 Normal termination of Gaussian 16 at Thu May  6 00:05:42 2021.
