 Gaussian 16, Revision A.03,
 Gaussian 16:  EM64L-G16RevA.03 25-Dec-2016

 -------------
 #p 6-31g* mp2
 -------------

 ------------------------------------------------------
 Input file generated by CHIRIPA (05-May-2021 14:57:21)
 ------------------------------------------------------
 Symbolic Z-matrix:
 Charge =  0 Multiplicity = 1

                         Standard orientation:
 ---------------------------------------------------------------------
 Center     Atomic      Atomic             Coordinates (Angstroms)
 Number     Number       Type             X           Y           Z
 ---------------------------------------------------------------------
      1          6           0       -5.740562   -0.297005   -0.307664
      2          6           0       -4.951519   -1.353125    0.159822
      3          6           0       -3.571811   -1.192488    0.318405
      4          6           0       -3.011701    0.043340   -0.001437
      5          6           0       -3.771149    1.114591   -0.469357
      6          6           0       -5.148902    0.931317   -0.620210
      7          1           0       -6.811593   -0.430584   -0.427853
      8          1           0       -5.408293   -2.308167    0.403330
      9          1           0       -2.937406   -1.993324    0.678418
     10          1           0       -3.287185    2.054911   -0.703869
     11          1           0       -5.759214    1.753272   -0.983465
     12          7           0       -1.552101    0.225381    0.162357
     13          8           0       -1.082815    1.324036   -0.126372
     14          8           0       -0.904991   -0.734036    0.576366
     15          6           0        2.986352    2.468885    0.394202
     16          6           0        3.751443    1.997259   -0.677583
     17          6           0        3.905630    0.624046   -0.889867
     18          6           0        3.277969   -0.253309   -0.006929
     19          6           0        2.509294    0.185669    1.069977
     20          6           0        2.368808    1.563182    1.263030
     21          1           0        2.871898    3.537300    0.551640
     22          1           0        4.232183    2.698326   -1.353926
     23          1           0        4.492296    0.231650   -1.711613
     24          1           0        2.042141   -0.537571    1.727328
     25          1           0        1.774037    1.926595    2.096231
     26          7           0        3.433946   -1.709344   -0.221486
     27          8           0        2.870783   -2.461710    0.570619
     28          8           0        4.116411   -2.070646   -1.177695
 ---------------------------------------------------------------------

 SCF Done:  E(RHF) =  -868.338889865     A.U. after   16 cycles
 E2 =    -0.2599908397D+01 EUMP2 =    -0.87093879826160D+03

 The electronic state is 1-A.
 Alpha  occ. eigenvalues --  -20.61210 -20.61172 -20.59420 -20.59385 -15.86215
 Alpha  occ. eigenvalues --  -15.84450 -11.31438 -11.29558 -11.28015 -11.27958
 Alpha  occ. eigenvalues --  -11.27712 -11.26990 -11.26950 -11.26239 -11.26031
 Alpha  occ. eigenvalues --  -11.25940 -11.25237 -11.25064  -1.60258  -1.58481
 Alpha  occ. eigenvalues --   -1.39812  -1.38041  -1.19600  -1.17742  -1.09024
 Alpha  occ. eigenvalues --   -1.07208  -1.04979  -1.03120  -0.95880  -0.94078
 Alpha  occ. eigenvalues --   -0.86384  -0.84555  -0.82713  -0.80928  -0.77776
 Alpha  occ. eigenvalues --   -0.75982  -0.72437  -0.71571  -0.70705  -0.70693
 Alpha  occ. eigenvalues --   -0.69788  -0.68919  -0.65253  -0.64980  -0.63430
 Alpha  occ. eigenvalues --   -0.63182  -0.62324  -0.60498  -0.55491  -0.53721
 Alpha  occ. eigenvalues --   -0.53319  -0.53067  -0.51504  -0.51266  -0.49190
 Alpha  occ. eigenvalues --   -0.49129  -0.47448  -0.47422  -0.45248  -0.43502
 Alpha  occ. eigenvalues --   -0.37576  -0.36576  -0.35734  -0.34619
 Alpha virt. eigenvalues --    0.04736   0.06565   0.11080   0.12986   0.16257
 Alpha virt. eigenvalues --    0.18081   0.21241   0.22863   0.27160   0.28119
 Alpha virt. eigenvalues --    0.28770   0.29753   0.30816   0.32271   0.32396

 Mulliken charges:
               1
     1  C   -0.170250
     2  C   -0.218641
     3  C   -0.170596
     4  C    0.157655
     5  C   -0.171084
     6  C   -0.218630
     7  H    0.226608
     8  H    0.225354
     9  H    0.278974
    10  H    0.274005
    11  H    0.223609
    12  N    0.488333
    13  O   -0.463254
    14  O   -0.459360
    15  C   -0.168851
    16  C   -0.219808
    17  C   -0.172716
    18  C    0.154077
    19  C   -0.152030
    20  C   -0.206602
    21  H    0.219266
    22  H    0.216216
    23  H    0.269575
    24  H    0.278360
    25  H    0.219286
    26  N    0.488630
    27  O   -0.460106
    28  O   -0.468017
 Sum of Mulliken charges =  -0.00000

 Dipole moment (field-independent basis, Debye):
    X=             -6.1780    Y=              4.3861    Z=              0.3351  Tot=              7.5840
 Quadrupole moment (field-independent basis, Debye-Ang):
   XX=            -78.2060   YY=           -103.9893   ZZ=           -102.3268
   XY=             19.0407   XZ=              2.3049   YZ=             -2.9111

 Normal termination of Gaussian 16 at Thu May  6 12:49:14 2021.
