 Gaussian 16, Revision A.03,
 Gaussian 16:  EM64L-G16RevA.03 25-Dec-2016

 -------------
 #p 6-31g* mp2
 -------------

 ------------------------------------------------------
 Input file generated by CHIRIPA (05-May-2021 14:55:20)
 ------------------------------------------------------
 Symbolic Z-matrix:
 Charge =  0 Multiplicity = 1

                         Standard orientation:
 ---------------------------------------------------------------------
 Center     Atomic      Atomic             Coordinates (Angstroms)
 Number     Number       Type             X           Y           Z
 ---------------------------------------------------------------------
      1          6           0        3.312537    1.668787   -1.064533
      2          6           0        4.150520    0.700799   -0.501235
      3          6           0        3.616992   -0.474693    0.035528
      4          6           0        2.234766   -0.650334   -0.007947
      5          6           0        1.373702    0.295449   -0.562341
      6          6           0        1.929241    1.463385   -1.093238
      7          1           0        3.735543    2.579003   -1.479225
      8          1           0        5.225177    0.857635   -0.477567
      9          1           0        4.242648   -1.240529    0.477644
     10          1           0        0.306343    0.110840   -0.571437
     11          1           0        1.276033    2.213412   -1.530070
     12          7           0        1.658293   -1.890775    0.557194
     13          8           0        0.437246   -2.021650    0.506653
     14          8           0        2.438415   -2.708670    1.039993
     15          6           0       -3.321347    0.213756   -0.454480
     16          6           0       -4.030519   -1.077834   -0.045999
     17          6           0       -4.704369   -1.780537   -1.224952
     18          1           0       -4.048823    0.892369   -0.920536
     19          1           0       -2.570739   -0.015720   -1.223455
     20          1           0       -4.778612   -0.846199    0.722973
     21          1           0       -3.301310   -1.753375    0.419311
     22          1           0       -3.966918   -2.040053   -1.991385
     23          1           0       -5.452613   -1.127722   -1.685997
     24          1           0       -5.205229   -2.701449   -0.910436
     25          6           0       -2.642877    0.927735    0.713269
     26          6           0       -1.933706    2.219324    0.304789
     27          6           0       -1.259857    2.922028    1.483741
     28          1           0       -3.393487    1.157210    1.482243
     29          1           0       -1.915402    0.249121    1.179325
     30          1           0       -2.662915    2.894865   -0.160523
     31          1           0       -1.185613    1.987689   -0.464184
     32          1           0       -0.511612    2.269213    1.944787
     33          1           0       -1.997307    3.181544    2.250174
     34          1           0       -0.758996    3.842939    1.169226
 ---------------------------------------------------------------------

 SCF Done:  E(RHF) =  -669.535518031     A.U. after   15 cycles
 E2 =    -0.2093293956D+01 EUMP2 =    -0.67162881198704D+03

 The electronic state is 1-A.
 Alpha  occ. eigenvalues --  -20.60893 -20.60884 -15.85931 -11.31236 -11.27803
 Alpha  occ. eigenvalues --  -11.27773 -11.27534 -11.26811 -11.26790 -11.22055
 Alpha  occ. eigenvalues --  -11.21395 -11.21373 -11.21304 -11.21168 -11.20700
 Alpha  occ. eigenvalues --   -1.59955  -1.39512  -1.19407  -1.08812  -1.08440
 Alpha  occ. eigenvalues --   -1.04808  -1.03519  -0.95956  -0.95657  -0.86984
 Alpha  occ. eigenvalues --   -0.86202  -0.82499  -0.79632  -0.78190  -0.77552
 Alpha  occ. eigenvalues --   -0.72155  -0.71272  -0.70537  -0.65231  -0.65048
 Alpha  occ. eigenvalues --   -0.64727  -0.62186  -0.60829  -0.59364  -0.57557
 Alpha  occ. eigenvalues --   -0.55308  -0.55234  -0.53122  -0.52889  -0.52681
 Alpha  occ. eigenvalues --   -0.52371  -0.49913  -0.48915  -0.48902  -0.47923
 Alpha  occ. eigenvalues --   -0.46668  -0.45746  -0.45601  -0.44905  -0.43765
 Alpha  occ. eigenvalues --   -0.37385  -0.36387
 Alpha virt. eigenvalues --    0.04944   0.11214   0.16417   0.19340   0.22931
 Alpha virt. eigenvalues --    0.24144   0.25566   0.26514   0.27356   0.28288
 Alpha virt. eigenvalues --    0.29459   0.31134   0.31478   0.31720   0.32545

 Mulliken charges:
               1
     1  C   -0.170466
     2  C   -0.218845
     3  C   -0.170309
     4  C    0.157182
     5  C   -0.176770
     6  C   -0.221001
     7  H    0.225957
     8  H    0.223704
     9  H    0.275600
    10  H    0.284743
    11  H    0.225777
    12  N    0.488729
    13  O   -0.463259
    14  O   -0.459170
    15  C   -0.297215
    16  C   -0.303264
    17  C   -0.475844
    18  H    0.147588
    19  H    0.144875
    20  H    0.150204
    21  H    0.167279
    22  H    0.156224
    23  H    0.151788
    24  H    0.161588
    25  C   -0.307893
    26  C   -0.301617
    27  C   -0.475730
    28  H    0.152318
    29  H    0.163896
    30  H    0.154063
    31  H    0.136142
    32  H    0.158687
    33  H    0.158886
    34  H    0.156152
 Sum of Mulliken charges =  -0.00000

 Dipole moment (field-independent basis, Debye):
    X=              2.0251    Y=              4.2312    Z=             -1.8512  Tot=              5.0429
 Quadrupole moment (field-independent basis, Debye-Ang):
   XX=            -80.8516   YY=           -100.7286   ZZ=            -95.6904
   XY=              6.4360   XZ=             -4.2034   YZ=              0.4435

 Normal termination of Gaussian 16 at Thu May  6 04:32:35 2021.
