 Gaussian 16, Revision A.03,
 Gaussian 16:  EM64L-G16RevA.03 25-Dec-2016

 -------------
 #p 6-31g* mp2
 -------------

 ------------------------------------------------------
 Input file generated by CHIRIPA (05-May-2021 14:55:24)
 ------------------------------------------------------
 Symbolic Z-matrix:
 Charge =  0 Multiplicity = 1

                         Standard orientation:
 ---------------------------------------------------------------------
 Center     Atomic      Atomic             Coordinates (Angstroms)
 Number     Number       Type             X           Y           Z
 ---------------------------------------------------------------------
      1          6           0        4.968648    0.033537   -1.000071
      2          6           0        3.982364   -0.864346   -1.421462
      3          6           0        2.741855   -0.909623   -0.778317
      4          6           0        2.520559   -0.038826    0.287530
      5          6           0        3.483052    0.866963    0.730750
      6          6           0        4.716289    0.894808    0.072799
      7          1           0        5.929480    0.061939   -1.505432
      8          1           0        4.175562   -1.534394   -2.254382
      9          1           0        1.960513   -1.594848   -1.083916
     10          1           0        3.261093    1.522530    1.564047
     11          1           0        5.480384    1.593153    0.402219
     12          7           0        1.211137   -0.077532    0.976236
     13          8           0        1.040971    0.700084    1.912715
     14          8           0        0.379772   -0.884753    0.566523
     15          6           0       -3.160890    0.724677   -0.219103
     16          6           0       -4.105139    1.876746   -0.564234
     17          6           0       -3.406969    3.236975   -0.552843
     18          1           0       -2.720482    0.904089    0.771249
     19          1           0       -2.327305    0.716009   -0.934963
     20          1           0       -4.937425    1.882388    0.151228
     21          1           0       -4.543497    1.694475   -1.553797
     22          1           0       -2.588084    3.255775   -1.279256
     23          1           0       -2.984250    3.444758    0.435457
     24          1           0       -4.100347    4.046229   -0.802230
     25          6           0       -3.844212   -0.641612   -0.226396
     26          6           0       -2.899962   -1.793681    0.118735
     27          6           0       -3.598133   -3.153910    0.107344
     28          1           0       -4.677797   -0.632945    0.489464
     29          1           0       -4.284620   -0.821024   -1.216747
     30          1           0       -2.461604   -1.611410    1.108298
     31          1           0       -2.067677   -1.799324   -0.596726
     32          1           0       -4.020852   -3.361693   -0.880955
     33          1           0       -4.417018   -3.172711    0.833757
     34          1           0       -2.904755   -3.963164    0.356732
 ---------------------------------------------------------------------

 SCF Done:  E(RHF) =  -669.535640595     A.U. after   15 cycles
 E2 =    -0.2091786266D+01 EUMP2 =    -0.67162742686190D+03

 The electronic state is 1-A.
 Alpha  occ. eigenvalues --  -20.60942 -20.60933 -15.85965 -11.31300 -11.27868
 Alpha  occ. eigenvalues --  -11.27861 -11.27603 -11.26874 -11.26864 -11.20603
 Alpha  occ. eigenvalues --  -11.20236 -11.20092 -11.20009 -11.19892 -11.19831
 Alpha  occ. eigenvalues --   -1.60000  -1.39558  -1.19470  -1.08873  -1.07134
 Alpha  occ. eigenvalues --   -1.04868  -1.02314  -0.95714  -0.94825  -0.86268
 Alpha  occ. eigenvalues --   -0.85847  -0.82555  -0.78360  -0.77604  -0.76865
 Alpha  occ. eigenvalues --   -0.72174  -0.71310  -0.70579  -0.65126  -0.64871
 Alpha  occ. eigenvalues --   -0.63783  -0.62216  -0.59727  -0.58187  -0.56400
 Alpha  occ. eigenvalues --   -0.55372  -0.54139  -0.53199  -0.52960  -0.51559
 Alpha  occ. eigenvalues --   -0.51234  -0.48999  -0.48964  -0.48775  -0.46644
 Alpha  occ. eigenvalues --   -0.45380  -0.45046  -0.44312  -0.44295  -0.42555
 Alpha  occ. eigenvalues --   -0.37448  -0.36470
 Alpha virt. eigenvalues --    0.04918   0.11185   0.16406   0.21287   0.24049
 Alpha virt. eigenvalues --    0.25380   0.27171   0.27726   0.28180   0.28897
 Alpha virt. eigenvalues --    0.29192   0.30903   0.32151   0.32618   0.32967

 Mulliken charges:
               1
     1  C   -0.170630
     2  C   -0.218510
     3  C   -0.170851
     4  C    0.157618
     5  C   -0.170544
     6  C   -0.218553
     7  H    0.226019
     8  H    0.223820
     9  H    0.275336
    10  H    0.275885
    11  H    0.223857
    12  N    0.493083
    13  O   -0.459956
    14  O   -0.462409
    15  C   -0.296554
    16  C   -0.298925
    17  C   -0.474701
    18  H    0.161095
    19  H    0.147425
    20  H    0.149632
    21  H    0.147373
    22  H    0.151840
    23  H    0.157743
    24  H    0.155849
    25  C   -0.299369
    26  C   -0.296018
    27  C   -0.475979
    28  H    0.144764
    29  H    0.142108
    30  H    0.166938
    31  H    0.156309
    32  H    0.148242
    33  H    0.150879
    34  H    0.157184
 Sum of Mulliken charges =  -0.00000

 Dipole moment (field-independent basis, Debye):
    X=              4.9867    Y=              0.1459    Z=             -2.2636  Tot=              5.4783
 Quadrupole moment (field-independent basis, Debye-Ang):
   XX=            -73.2080   YY=            -94.5042   ZZ=            -93.8236
   XY=              0.8958   XZ=             -4.6580   YZ=              3.0207

 Normal termination of Gaussian 16 at Wed May  5 19:07:02 2021.
