 Gaussian 16, Revision A.03,
 Gaussian 16:  EM64L-G16RevA.03 25-Dec-2016

 -------------
 #p 6-31g* mp2
 -------------

 ------------------------------------------------------
 Input file generated by CHIRIPA (05-May-2021 14:57:22)
 ------------------------------------------------------
 Symbolic Z-matrix:
 Charge =  0 Multiplicity = 1

                         Standard orientation:
 ---------------------------------------------------------------------
 Center     Atomic      Atomic             Coordinates (Angstroms)
 Number     Number       Type             X           Y           Z
 ---------------------------------------------------------------------
      1          6           0       -3.734049   -1.905612    0.175327
      2          6           0       -3.798025   -1.042003    1.273784
      3          6           0       -3.236290    0.236411    1.205523
      4          6           0       -2.615425    0.620291    0.017898
      5          6           0       -2.535479   -0.217246   -1.093602
      6          6           0       -3.104091   -1.491208   -1.002783
      7          1           0       -4.173090   -2.896986    0.237115
      8          1           0       -4.286632   -1.361152    2.190000
      9          1           0       -3.271518    0.925194    2.040841
     10          1           0       -2.041805    0.129162   -1.993438
     11          1           0       -3.052908   -2.159781   -1.857438
     12          7           0       -2.017101    1.971334   -0.066307
     13          8           0       -1.475697    2.285670   -1.123998
     14          8           0       -2.100868    2.690363    0.926979
     15          6           0        3.929408    1.805331    0.157407
     16          6           0        4.467290    0.656282    0.746380
     17          6           0        3.802541   -0.569673    0.647913
     18          6           0        2.596539   -0.610596   -0.050066
     19          6           0        2.035054    0.516717   -0.647719
     20          6           0        2.717144    1.732011   -0.536540
     21          1           0        4.452536    2.753541    0.238837
     22          1           0        5.408581    0.710251    1.285917
     23          1           0        4.196378   -1.474682    1.094307
     24          1           0        1.094966    0.431607   -1.179142
     25          1           0        2.297053    2.622758   -0.994947
     26          7           0        1.883620   -1.902815   -0.161037
     27          8           0        0.822617   -1.912436   -0.781374
     28          8           0        2.399337   -2.881570    0.374420
 ---------------------------------------------------------------------

 SCF Done:  E(RHF) =  -868.341025602     A.U. after   16 cycles
 E2 =    -0.2599524784D+01 EUMP2 =    -0.87094055038653D+03

 The electronic state is 1-A.
 Alpha  occ. eigenvalues --  -20.60978 -20.60916 -20.60689 -20.60678 -15.85956
 Alpha  occ. eigenvalues --  -15.85719 -11.30830 -11.30783 -11.27371 -11.27353
 Alpha  occ. eigenvalues --  -11.27335 -11.27213 -11.26987 -11.26985 -11.26329
 Alpha  occ. eigenvalues --  -11.26298 -11.26193 -11.26132  -1.60010  -1.59758
 Alpha  occ. eigenvalues --   -1.39581  -1.39321  -1.18952  -1.18920  -1.08443
 Alpha  occ. eigenvalues --   -1.08377  -1.04280  -1.04254  -0.95365  -0.95259
 Alpha  occ. eigenvalues --   -0.85724  -0.85675  -0.82232  -0.82081  -0.77339
 Alpha  occ. eigenvalues --   -0.77155  -0.72201  -0.71960  -0.71315  -0.71066
 Alpha  occ. eigenvalues --   -0.70082  -0.70023  -0.64623  -0.64563  -0.64312
 Alpha  occ. eigenvalues --   -0.64225  -0.61683  -0.61570  -0.54824  -0.54787
 Alpha  occ. eigenvalues --   -0.52642  -0.52599  -0.52403  -0.52313  -0.48974
 Alpha  occ. eigenvalues --   -0.48902  -0.48719  -0.48678  -0.45086  -0.44789
 Alpha  occ. eigenvalues --   -0.36914  -0.36881  -0.35848  -0.35806
 Alpha virt. eigenvalues --    0.05116   0.05343   0.11711   0.11842   0.16727
 Alpha virt. eigenvalues --    0.16914   0.21503   0.22232   0.26770   0.28060
 Alpha virt. eigenvalues --    0.28421   0.29332   0.31084   0.31705   0.32160

 Mulliken charges:
               1
     1  C   -0.168161
     2  C   -0.218168
     3  C   -0.171652
     4  C    0.155714
     5  C   -0.162851
     6  C   -0.208995
     7  H    0.226552
     8  H    0.222178
     9  H    0.272675
    10  H    0.271533
    11  H    0.227053
    12  N    0.488744
    13  O   -0.472074
    14  O   -0.459007
    15  C   -0.170756
    16  C   -0.218807
    17  C   -0.172140
    18  C    0.158253
    19  C   -0.175413
    20  C   -0.218722
    21  H    0.225923
    22  H    0.221648
    23  H    0.272841
    24  H    0.278353
    25  H    0.235587
    26  N    0.488994
    27  O   -0.467185
    28  O   -0.462118
 Sum of Mulliken charges =  -0.00000

 Dipole moment (field-independent basis, Debye):
    X=              0.2693    Y=             -0.2559    Z=              0.6379  Tot=              0.7382
 Quadrupole moment (field-independent basis, Debye-Ang):
   XX=            -78.7329   YY=           -116.0803   ZZ=            -99.7784
   XY=             20.7109   XZ=              0.7552   YZ=             -0.6006

 Normal termination of Gaussian 16 at Fri May  7 03:16:02 2021.
