 Gaussian 16, Revision A.03,
 Gaussian 16:  EM64L-G16RevA.03 25-Dec-2016

 -------------
 #p 6-31g* mp2
 -------------

 ------------------------------------------------------
 Input file generated by CHIRIPA (05-May-2021 14:55:21)
 ------------------------------------------------------
 Symbolic Z-matrix:
 Charge =  0 Multiplicity = 1

                         Standard orientation:
 ---------------------------------------------------------------------
 Center     Atomic      Atomic             Coordinates (Angstroms)
 Number     Number       Type             X           Y           Z
 ---------------------------------------------------------------------
      1          6           0       -0.805531   -0.021547    0.343998
      2          6           0       -1.499297    0.997412   -0.317012
      3          6           0       -2.880723    0.905461   -0.511319
      4          6           0       -3.539686   -0.224532   -0.029475
      5          6           0       -2.876532   -1.256370    0.632964
      6          6           0       -1.495147   -1.143208    0.816044
      7          1           0        0.267578    0.058121    0.490580
      8          1           0       -0.966333    1.869660   -0.684676
      9          1           0       -3.442575    1.679635   -1.019646
     10          1           0       -3.435220   -2.113733    0.988230
     11          1           0       -0.958955   -1.936082    1.329750
     12          7           0       -5.002119   -0.333103   -0.229236
     13          8           0       -5.559530   -1.338875    0.204758
     14          8           0       -5.563269    0.589626   -0.816021
     15          6           0        4.843802   -0.055696   -0.312026
     16          6           0        4.979058   -1.545178    0.005992
     17          6           0        6.227315   -2.171555   -0.616343
     18          1           0        4.818934    0.079220   -1.402037
     19          1           0        5.738112    0.471635    0.047875
     20          1           0        4.084139   -2.069333   -0.353168
     21          1           0        5.003415   -1.676579    1.095375
     22          1           0        7.131352   -1.674859   -0.249450
     23          1           0        6.206853   -2.069845   -1.706223
     24          1           0        6.304249   -3.236619   -0.376389
     25          6           0        3.600767    0.584688    0.303198
     26          6           0        3.465511    2.074170   -0.014819
     27          6           0        2.217255    2.700547    0.607517
     28          1           0        2.706459    0.057358   -0.056703
     29          1           0        3.625636    0.449773    1.393209
     30          1           0        3.441155    2.205572   -1.104202
     31          1           0        4.360431    2.598325    0.344340
     32          1           0        2.237717    2.598837    1.697397
     33          1           0        1.313217    2.203851    0.240623
     34          1           0        2.140320    3.765613    0.367562
 ---------------------------------------------------------------------

 SCF Done:  E(RHF) =  -669.534715895     A.U. after   15 cycles
 E2 =    -0.2092336681D+01 EUMP2 =    -0.67162705257651D+03

 The electronic state is 1-A.
 Alpha  occ. eigenvalues --  -20.60708 -20.60703 -15.85762 -11.31113 -11.27686
 Alpha  occ. eigenvalues --  -11.27681 -11.27362 -11.26685 -11.26672 -11.22734
 Alpha  occ. eigenvalues --  -11.22606 -11.22414 -11.22396 -11.22289 -11.21715
 Alpha  occ. eigenvalues --   -1.59785  -1.39338  -1.19284  -1.09473  -1.08680
 Alpha  occ. eigenvalues --   -1.04691  -1.04524  -0.96996  -0.95520  -0.88010
 Alpha  occ. eigenvalues --   -0.86089  -0.82358  -0.80606  -0.79283  -0.77405
 Alpha  occ. eigenvalues --   -0.71981  -0.71108  -0.70428  -0.66107  -0.64941
 Alpha  occ. eigenvalues --   -0.64721  -0.62124  -0.61829  -0.60371  -0.58588
 Alpha  occ. eigenvalues --   -0.56299  -0.55208  -0.53649  -0.53435  -0.53005
 Alpha  occ. eigenvalues --   -0.52775  -0.50931  -0.48893  -0.48737  -0.48734
 Alpha  occ. eigenvalues --   -0.47620  -0.46793  -0.46707  -0.44782  -0.44747
 Alpha  occ. eigenvalues --   -0.37253  -0.36294
 Alpha virt. eigenvalues --    0.05127   0.11341   0.16597   0.19363   0.22416
 Alpha virt. eigenvalues --    0.23811   0.25066   0.25521   0.26228   0.27767
 Alpha virt. eigenvalues --    0.29374   0.29591   0.30853   0.31202   0.31369

 Mulliken charges:
               1
     1  C   -0.178357
     2  C   -0.223875
     3  C   -0.170588
     4  C    0.158069
     5  C   -0.170689
     6  C   -0.220962
     7  H    0.237525
     8  H    0.225642
     9  H    0.275395
    10  H    0.275277
    11  H    0.223620
    12  N    0.487979
    13  O   -0.460601
    14  O   -0.460619
    15  C   -0.298264
    16  C   -0.300496
    17  C   -0.476285
    18  H    0.152158
    19  H    0.153066
    20  H    0.150528
    21  H    0.152409
    22  H    0.156810
    23  H    0.156733
    24  H    0.162288
    25  C   -0.303865
    26  C   -0.300495
    27  C   -0.481839
    28  H    0.143303
    29  H    0.151451
    30  H    0.154543
    31  H    0.157594
    32  H    0.160009
    33  H    0.146124
    34  H    0.166412
 Sum of Mulliken charges =  -0.00000

 Dipole moment (field-independent basis, Debye):
    X=              5.4735    Y=              0.4381    Z=              0.7138  Tot=              5.5372
 Quadrupole moment (field-independent basis, Debye-Ang):
   XX=           -131.1039   YY=            -91.1043   ZZ=            -93.7673
   XY=             -1.7217   XZ=             -1.8926   YZ=             -2.5594

 Normal termination of Gaussian 16 at Thu May  6 04:34:44 2021.
