 Gaussian 16, Revision A.03,
 Gaussian 16:  EM64L-G16RevA.03 25-Dec-2016

 -------------
 #p 6-31g* mp2
 -------------

 ------------------------------------------------------
 Input file generated by CHIRIPA (05-May-2021 14:53:17)
 ------------------------------------------------------
 Symbolic Z-matrix:
 Charge =  0 Multiplicity = 1

                         Standard orientation:
 ---------------------------------------------------------------------
 Center     Atomic      Atomic             Coordinates (Angstroms)
 Number     Number       Type             X           Y           Z
 ---------------------------------------------------------------------
      1          6           0        3.519076    1.049656   -0.085877
      2          6           0        2.383387    1.684120    0.717648
      3          6           0        2.204758    3.172191    0.415110
      4          1           0        4.454694    1.583868    0.129017
      5          1           0        3.320720    1.185557   -1.158062
      6          1           0        2.583133    1.545848    1.787974
      7          1           0        1.450399    1.148213    0.500962
      8          1           0        1.980987    3.325514   -0.645559
      9          1           0        3.120157    3.725409    0.648765
     10          1           0        1.387711    3.605591    1.000311
     11          6           0        3.710014   -0.437726    0.205614
     12          6           0        4.845702   -1.072190   -0.597911
     13          6           0        5.024332   -2.560261   -0.295374
     14          1           0        3.908370   -0.573627    1.277799
     15          1           0        2.774395   -0.971938   -0.009280
     16          1           0        5.778691   -0.536283   -0.381226
     17          1           0        4.645957   -0.933919   -1.668238
     18          1           0        4.108932   -3.113479   -0.529029
     19          1           0        5.248102   -2.713584    0.765296
     20          1           0        5.841378   -2.993661   -0.880575
     21          6           0       -2.765849    2.252233   -0.441915
     22          6           0       -1.573029    1.543836   -0.263382
     23          6           0       -1.593195    0.163290   -0.043756
     24          6           0       -2.829472   -0.479881   -0.008571
     25          6           0       -4.034984    0.198077   -0.182932
     26          6           0       -3.990860    1.578282   -0.401191
     27          1           0       -2.740879    3.324542   -0.611994
     28          1           0       -0.620211    2.064618   -0.294510
     29          1           0       -0.684820   -0.409689    0.097560
     30          1           0       -4.969432   -0.348647   -0.146651
     31          1           0       -4.918799    2.125858   -0.539517
     32          7           0       -2.863502   -1.941223    0.223213
     33          8           0       -3.965638   -2.484571    0.249779
     34          8           0       -1.787394   -2.515603    0.373933
 ---------------------------------------------------------------------

 SCF Done:  E(RHF) =  -669.535185578     A.U. after   15 cycles
 E2 =    -0.2092169001D+01 EUMP2 =    -0.67162735457891D+03

 The electronic state is 1-A.
 Alpha  occ. eigenvalues --  -20.60741 -20.60736 -15.85793 -11.31147 -11.27712
 Alpha  occ. eigenvalues --  -11.27701 -11.27441 -11.26727 -11.26660 -11.22544
 Alpha  occ. eigenvalues --  -11.22105 -11.21983 -11.21803 -11.21714 -11.21085
 Alpha  occ. eigenvalues --   -1.59816  -1.39370  -1.19312  -1.08971  -1.08708
 Alpha  occ. eigenvalues --   -1.04722  -1.04070  -0.96508  -0.95549  -0.87523
 Alpha  occ. eigenvalues --   -0.86111  -0.82392  -0.80177  -0.78706  -0.77432
 Alpha  occ. eigenvalues --   -0.72012  -0.71138  -0.70429  -0.65677  -0.64960
 Alpha  occ. eigenvalues --   -0.64715  -0.62237  -0.61312  -0.59906  -0.58087
 Alpha  occ. eigenvalues --   -0.55802  -0.55198  -0.53227  -0.53043  -0.52934
 Alpha  occ. eigenvalues --   -0.52747  -0.50457  -0.48770  -0.48767  -0.48459
 Alpha  occ. eigenvalues --   -0.47222  -0.46246  -0.46133  -0.44778  -0.44302
 Alpha  occ. eigenvalues --   -0.37293  -0.36314
 Alpha virt. eigenvalues --    0.05096   0.11325   0.16575   0.19136   0.22924
 Alpha virt. eigenvalues --    0.23398   0.24356   0.26344   0.26973   0.28666
 Alpha virt. eigenvalues --    0.29837   0.30855   0.31065   0.31300   0.32109

 Mulliken charges:
               1
     1  C   -0.298274
     2  C   -0.305401
     3  C   -0.482088
     4  H    0.152465
     5  H    0.149453
     6  H    0.158956
     7  H    0.144381
     8  H    0.152814
     9  H    0.163284
    10  H    0.158227
    11  C   -0.299940
    12  C   -0.300143
    13  C   -0.476759
    14  H    0.152027
    15  H    0.151372
    16  H    0.151844
    17  H    0.152151
    18  H    0.159598
    19  H    0.156070
    20  H    0.160880
    21  C   -0.172287
    22  C   -0.226262
    23  C   -0.176132
    24  C    0.159512
    25  C   -0.171126
    26  C   -0.218504
    27  H    0.225853
    28  H    0.235731
    29  H    0.276716
    30  H    0.275378
    31  H    0.223228
    32  N    0.488445
    33  O   -0.460554
    34  O   -0.460915
 Sum of Mulliken charges =  -0.00000

 Dipole moment (field-independent basis, Debye):
    X=              0.3348    Y=              5.1198    Z=             -0.7785  Tot=              5.1894
 Quadrupole moment (field-independent basis, Debye-Ang):
   XX=            -89.2354   YY=           -101.2583   ZZ=            -95.0311
   XY=            -14.4581   XZ=              3.3011   YZ=              0.7045

 Normal termination of Gaussian 16 at Wed May  5 17:13:58 2021.
