 Gaussian 16, Revision A.03,
 Gaussian 16:  EM64L-G16RevA.03 25-Dec-2016

 -------------
 #p 6-31g* mp2
 -------------

 ------------------------------------------------------
 Input file generated by CHIRIPA (05-May-2021 14:57:23)
 ------------------------------------------------------
 Symbolic Z-matrix:
 Charge =  0 Multiplicity = 1

                         Standard orientation:
 ---------------------------------------------------------------------
 Center     Atomic      Atomic             Coordinates (Angstroms)
 Number     Number       Type             X           Y           Z
 ---------------------------------------------------------------------
      1          6           0       -5.865924    0.332632    0.703213
      2          6           0       -4.959286    1.393697    0.796322
      3          6           0       -3.633633    1.233290    0.382243
      4          6           0       -3.246904   -0.007351   -0.122276
      5          6           0       -4.126619   -1.083592   -0.227625
      6          6           0       -5.447435   -0.900452    0.192438
      7          1           0       -6.893845    0.466070    1.027204
      8          1           0       -5.281495    2.352444    1.192592
      9          1           0       -2.910927    2.037900    0.443222
     10          1           0       -3.775971   -2.027537   -0.626914
     11          1           0       -6.149360   -1.726253    0.118965
     12          7           0       -1.846055   -0.189200   -0.563810
     13          8           0       -1.530213   -1.292154   -1.004689
     14          8           0       -1.090436    0.774664   -0.460645
     15          6           0        3.726732    2.469811   -0.253373
     16          6           0        2.727780    1.776921   -0.945124
     17          6           0        2.580626    0.395889   -0.784991
     18          6           0        3.453713   -0.263579    0.078788
     19          6           0        4.458820    0.398702    0.781947
     20          6           0        4.587546    1.779707    0.606439
     21          1           0        3.833886    3.542619   -0.383739
     22          1           0        2.057832    2.310266   -1.613523
     23          1           0        1.815941   -0.165286   -1.308210
     24          1           0        5.111614   -0.160349    1.441296
     25          1           0        5.364255    2.315219    1.144952
     26          7           0        3.307682   -1.725601    0.256451
     27          8           0        4.089575   -2.283471    1.023304
     28          8           0        2.414096   -2.285981   -0.374512
 ---------------------------------------------------------------------

 SCF Done:  E(RHF) =  -868.339215135     A.U. after   16 cycles
 E2 =    -0.2599453511D+01 EUMP2 =    -0.87093866864599D+03

 The electronic state is 1-A.
 Alpha  occ. eigenvalues --  -20.61151 -20.61073 -20.59501 -20.59437 -15.86114
 Alpha  occ. eigenvalues --  -15.84518 -11.31368 -11.29800 -11.27948 -11.27889
 Alpha  occ. eigenvalues --  -11.27648 -11.26928 -11.26889 -11.26513 -11.26251
 Alpha  occ. eigenvalues --  -11.26196 -11.25540 -11.25323  -1.60161  -1.58556
 Alpha  occ. eigenvalues --   -1.39716  -1.38103  -1.19528  -1.18012  -1.08949
 Alpha  occ. eigenvalues --   -1.07452  -1.04913  -1.03381  -0.95802  -0.94276
 Alpha  occ. eigenvalues --   -0.86317  -0.84806  -0.82637  -0.81091  -0.77699
 Alpha  occ. eigenvalues --   -0.76119  -0.72337  -0.71458  -0.70741  -0.70638
 Alpha  occ. eigenvalues --   -0.69882  -0.69150  -0.65184  -0.64919  -0.63667
 Alpha  occ. eigenvalues --   -0.63408  -0.62261  -0.60705  -0.55425  -0.53981
 Alpha  occ. eigenvalues --   -0.53249  -0.53005  -0.51762  -0.51484  -0.49121
 Alpha  occ. eigenvalues --   -0.49069  -0.47523  -0.47475  -0.45138  -0.43525
 Alpha  occ. eigenvalues --   -0.37503  -0.36510  -0.36066  -0.34958
 Alpha virt. eigenvalues --    0.04833   0.06386   0.11146   0.12664   0.16351
 Alpha virt. eigenvalues --    0.17844   0.21285   0.22703   0.27205   0.28148
 Alpha virt. eigenvalues --    0.28665   0.29653   0.30869   0.32136   0.32423

 Mulliken charges:
               1
     1  C   -0.170317
     2  C   -0.218557
     3  C   -0.170866
     4  C    0.158659
     5  C   -0.170060
     6  C   -0.218607
     7  H    0.226302
     8  H    0.223246
     9  H    0.273450
    10  H    0.278555
    11  H    0.224932
    12  N    0.489138
    13  O   -0.450930
    14  O   -0.471333
    15  C   -0.172391
    16  C   -0.218440
    17  C   -0.162691
    18  C    0.153384
    19  C   -0.172676
    20  C   -0.220373
    21  H    0.219645
    22  H    0.224836
    23  H    0.291523
    24  H    0.270881
    25  H    0.217348
    26  N    0.487048
    27  O   -0.468579
    28  O   -0.453128
 Sum of Mulliken charges =  -0.00000

 Dipole moment (field-independent basis, Debye):
    X=             -4.9833    Y=              5.5777    Z=              0.7485  Tot=              7.5169
 Quadrupole moment (field-independent basis, Debye-Ang):
   XX=            -68.5645   YY=           -104.1314   ZZ=           -104.2974
   XY=             16.8197   XZ=             -4.1310   YZ=              2.0327

 Normal termination of Gaussian 16 at Fri May  7 00:18:16 2021.
