 Gaussian 16, Revision A.03,
 Gaussian 16:  EM64L-G16RevA.03 25-Dec-2016

 -------------
 #p 6-31g* mp2
 -------------

 ------------------------------------------------------
 Input file generated by CHIRIPA (05-May-2021 14:53:15)
 ------------------------------------------------------
 Symbolic Z-matrix:
 Charge =  0 Multiplicity = 1

                         Standard orientation:
 ---------------------------------------------------------------------
 Center     Atomic      Atomic             Coordinates (Angstroms)
 Number     Number       Type             X           Y           Z
 ---------------------------------------------------------------------
      1          6           0       -4.122851    0.681023   -0.328788
      2          6           0       -2.927112    1.575036   -0.658839
      3          6           0       -3.342854    2.975181   -1.111104
      4          1           0       -4.770813    0.605066   -1.212711
      5          1           0       -4.722644    1.158595    0.458339
      6          1           0       -2.328994    1.095263   -1.444136
      7          1           0       -2.281821    1.648717    0.225913
      8          1           0       -3.920913    3.477040   -0.328424
      9          1           0       -3.968354    2.920441   -2.007962
     10          1           0       -2.472580    3.597446   -1.341905
     11          6           0       -3.723358   -0.721948    0.124873
     12          6           0       -4.919098   -1.615960    0.454924
     13          6           0       -4.503355   -3.016106    0.907189
     14          1           0       -3.123566   -1.199520   -0.662254
     15          1           0       -3.075396   -0.645991    1.008796
     16          1           0       -5.564388   -1.689642   -0.429828
     17          1           0       -5.517215   -1.136188    1.240221
     18          1           0       -3.877855   -2.961366    1.804047
     19          1           0       -3.925297   -3.517965    0.124509
     20          1           0       -5.373629   -3.638371    1.137990
     21          6           0        1.734443    1.926351    1.052406
     22          6           0        3.108590    1.834370    1.296908
     23          6           0        3.855749    0.780207    0.763017
     24          6           0        3.193552   -0.168701   -0.014388
     25          6           0        1.825793   -0.104533   -0.275938
     26          6           0        1.098552    0.958312    0.268147
     27          1           0        1.161768    2.748623    1.471105
     28          1           0        3.605081    2.584721    1.905607
     29          1           0        4.920748    0.684756    0.936466
     30          1           0        1.358781   -0.867698   -0.886592
     31          1           0        0.031494    1.027204    0.076602
     32          7           0        3.973993   -1.289292   -0.584990
     33          8           0        3.367028   -2.112467   -1.266616
     34          8           0        5.177889   -1.323218   -0.339796
 ---------------------------------------------------------------------

 SCF Done:  E(RHF) =  -669.535584852     A.U. after   15 cycles
 E2 =    -0.2091286953D+01 EUMP2 =    -0.67162687180456D+03

 The electronic state is 1-A.
 Alpha  occ. eigenvalues --  -20.60702 -20.60697 -15.85753 -11.31100 -11.27668
 Alpha  occ. eigenvalues --  -11.27645 -11.27397 -11.26689 -11.26590 -11.22753
 Alpha  occ. eigenvalues --  -11.22202 -11.22122 -11.22060 -11.21983 -11.21435
 Alpha  occ. eigenvalues --   -1.59778  -1.39332  -1.19265  -1.09215  -1.08665
 Alpha  occ. eigenvalues --   -1.04662  -1.04274  -0.96678  -0.95506  -0.87700
 Alpha  occ. eigenvalues --   -0.86066  -0.82339  -0.80402  -0.79019  -0.77378
 Alpha  occ. eigenvalues --   -0.71973  -0.71100  -0.70382  -0.65845  -0.64915
 Alpha  occ. eigenvalues --   -0.64672  -0.62042  -0.61650  -0.60072  -0.58300
 Alpha  occ. eigenvalues --   -0.55943  -0.55173  -0.53400  -0.53113  -0.52998
 Alpha  occ. eigenvalues --   -0.52744  -0.50620  -0.48789  -0.48729  -0.48595
 Alpha  occ. eigenvalues --   -0.47428  -0.46526  -0.46443  -0.44741  -0.44521
 Alpha  occ. eigenvalues --   -0.37252  -0.36264
 Alpha virt. eigenvalues --    0.05141   0.11373   0.16633   0.20110   0.22524
 Alpha virt. eigenvalues --    0.23759   0.25252   0.25696   0.27283   0.28294
 Alpha virt. eigenvalues --    0.29007   0.30460   0.30727   0.31273   0.31972

 Mulliken charges:
               1
     1  C   -0.297123
     2  C   -0.307202
     3  C   -0.475525
     4  H    0.153744
     5  H    0.151800
     6  H    0.152399
     7  H    0.144861
     8  H    0.157477
     9  H    0.160248
    10  H    0.159671
    11  C   -0.300124
    12  C   -0.300124
    13  C   -0.476488
    14  H    0.149627
    15  H    0.147904
    16  H    0.153754
    17  H    0.152754
    18  H    0.155755
    19  H    0.157122
    20  H    0.162334
    21  C   -0.173711
    22  C   -0.218382
    23  C   -0.171647
    24  C    0.159039
    25  C   -0.173672
    26  C   -0.227792
    27  H    0.224878
    28  H    0.222903
    29  H    0.275190
    30  H    0.275608
    31  H    0.238121
    32  N    0.488024
    33  O   -0.460650
    34  O   -0.460775
 Sum of Mulliken charges =  -0.00000

 Dipole moment (field-independent basis, Debye):
    X=             -3.0287    Y=              3.9282    Z=              1.9702  Tot=              5.3372
 Quadrupole moment (field-independent basis, Debye-Ang):
   XX=           -108.1851   YY=            -96.7968   ZZ=            -93.7136
   XY=             15.0487   XZ=              8.6988   YZ=              1.1042

 Normal termination of Gaussian 16 at Thu May  6 07:28:03 2021.
