 Gaussian 16, Revision A.03,
 Gaussian 16:  EM64L-G16RevA.03 25-Dec-2016

 -------------
 #p 6-31g* mp2
 -------------

 ------------------------------------------------------
 Input file generated by CHIRIPA (05-May-2021 14:51:08)
 ------------------------------------------------------
 Symbolic Z-matrix:
 Charge =  0 Multiplicity = 1

                         Standard orientation:
 ---------------------------------------------------------------------
 Center     Atomic      Atomic             Coordinates (Angstroms)
 Number     Number       Type             X           Y           Z
 ---------------------------------------------------------------------
      1          6           0       -3.344564    0.654200   -0.006853
      2          6           0       -2.778039    2.036465    0.319303
      3          6           0       -3.849239    3.016114    0.799525
      4          1           0       -4.122008    0.755826   -0.776397
      5          1           0       -3.839865    0.248559    0.886190
      6          1           0       -2.282750    2.438790   -0.573692
      7          1           0       -2.001719    1.931515    1.088022
      8          1           0       -4.337159    2.640174    1.704624
      9          1           0       -4.619787    3.150332    0.033469
     10          1           0       -3.422398    3.997898    1.027049
     11          6           0       -2.285828   -0.336275   -0.488273
     12          6           0       -2.852353   -1.718540   -0.814429
     13          6           0       -1.781153   -2.698188   -1.294651
     14          1           0       -1.790527    0.069366   -1.381316
     15          1           0       -1.508384   -0.437900    0.281271
     16          1           0       -3.628673   -1.613590   -1.583148
     17          1           0       -3.347642   -2.120865    0.078566
     18          1           0       -1.010605   -2.832406   -0.528595
     19          1           0       -1.293233   -2.322249   -2.199750
     20          1           0       -2.207994   -3.679972   -1.522175
     21          6           0        3.082979    0.235066   -0.349485
     22          6           0        3.915674    1.453008    0.052036
     23          6           0        4.444381    2.231062   -1.153324
     24          1           0        3.694121   -0.428395   -0.976597
     25          1           0        2.240123    0.565083   -0.972446
     26          1           0        4.755923    1.120950    0.675201
     27          1           0        3.302539    2.113554    0.678424
     28          1           0        3.616565    2.590180   -1.773288
     29          1           0        5.078208    1.591936   -1.776529
     30          1           0        5.036843    3.097546   -0.843395
     31          6           0        2.547414   -0.552991    0.844611
     32          6           0        1.714718   -1.770933    0.443089
     33          6           0        1.186010   -2.548987    1.648451
     34          1           0        3.390268   -0.883008    1.467572
     35          1           0        1.936271    0.110470    1.471723
     36          1           0        2.327853   -2.431478   -0.183298
     37          1           0        0.874468   -1.438875   -0.180075
     38          1           0        0.552185   -1.909861    2.271655
     39          1           0        2.013828   -2.908105    2.268414
     40          1           0        0.593550   -3.415471    1.338522
 ---------------------------------------------------------------------

 SCF Done:  E(RHF) =  -470.732440163     A.U. after   11 cycles
 E2 =    -0.1584183056D+01 EUMP2 =    -0.47231662321875D+03

 The electronic state is 1-A.
 Alpha  occ. eigenvalues --  -11.21656 -11.21615 -11.21581 -11.21519 -11.21456
 Alpha  occ. eigenvalues --  -11.21396 -11.21379 -11.21320 -11.21120 -11.21110
 Alpha  occ. eigenvalues --  -11.21057 -11.21007  -1.08488  -1.08396  -1.03606
 Alpha  occ. eigenvalues --   -1.03481  -0.96046  -0.95947  -0.87037  -0.86985
 Alpha  occ. eigenvalues --   -0.79702  -0.79522  -0.78360  -0.78152  -0.65220
 Alpha  occ. eigenvalues --   -0.64948  -0.61156  -0.60781  -0.59470  -0.59272
 Alpha  occ. eigenvalues --   -0.57789  -0.57442  -0.55336  -0.55207  -0.52713
 Alpha  occ. eigenvalues --   -0.52687  -0.52486  -0.52319  -0.49928  -0.49922
 Alpha  occ. eigenvalues --   -0.48091  -0.47807  -0.46785  -0.46526  -0.46010
 Alpha  occ. eigenvalues --   -0.45765  -0.45729  -0.45324  -0.43817  -0.43772
 Alpha virt. eigenvalues --    0.20557   0.23310   0.23388   0.24770   0.25841
 Alpha virt. eigenvalues --    0.26547   0.26713   0.27707   0.28274   0.29361
 Alpha virt. eigenvalues --    0.30252   0.31340   0.31655   0.31724   0.32207

 Mulliken charges:
               1
     1  C   -0.298152
     2  C   -0.299586
     3  C   -0.475727
     4  H    0.150022
     5  H    0.149790
     6  H    0.151789
     7  H    0.151347
     8  H    0.155346
     9  H    0.155376
    10  H    0.160339
    11  C   -0.302411
    12  C   -0.298899
    13  C   -0.484573
    14  H    0.149018
    15  H    0.152970
    16  H    0.151880
    17  H    0.151886
    18  H    0.166043
    19  H    0.154744
    20  H    0.159942
    21  C   -0.298386
    22  C   -0.299640
    23  C   -0.475687
    24  H    0.149576
    25  H    0.150036
    26  H    0.151825
    27  H    0.151960
    28  H    0.155138
    29  H    0.155125
    30  H    0.160173
    31  C   -0.297629
    32  C   -0.307853
    33  C   -0.479495
    34  H    0.149224
    35  H    0.148943
    36  H    0.152155
    37  H    0.161066
    38  H    0.154596
    39  H    0.156405
    40  H    0.161323
 Sum of Mulliken charges =  -0.00000

 Dipole moment (field-independent basis, Debye):
    X=             -0.0118    Y=             -0.0082    Z=             -0.0053  Tot=              0.0154
 Quadrupole moment (field-independent basis, Debye-Ang):
   XX=            -84.7210   YY=            -85.4837   ZZ=            -84.6155
   XY=             -0.3566   XZ=              0.6941   YZ=             -0.0872

 Normal termination of Gaussian 16 at Thu May  6 08:27:23 2021.
