 Gaussian 16, Revision A.03,
 Gaussian 16:  EM64L-G16RevA.03 25-Dec-2016

 -------------
 #p 6-31g* mp2
 -------------

 ------------------------------------------------------
 Input file generated by CHIRIPA (05-May-2021 14:53:12)
 ------------------------------------------------------
 Symbolic Z-matrix:
 Charge =  0 Multiplicity = 1

                         Standard orientation:
 ---------------------------------------------------------------------
 Center     Atomic      Atomic             Coordinates (Angstroms)
 Number     Number       Type             X           Y           Z
 ---------------------------------------------------------------------
      1          6           0        4.096559    0.285829    0.541418
      2          6           0        2.788767   -0.502253    0.622601
      3          6           0        1.648776    0.306415    1.242496
      4          1           0        4.383411    0.612846    1.550240
      5          1           0        3.930620    1.198458   -0.047622
      6          1           0        2.957469   -1.413815    1.210147
      7          1           0        2.505096   -0.827596   -0.386507
      8          1           0        1.451762    1.208265    0.653893
      9          1           0        1.906706    0.618715    2.259620
     10          1           0        0.723427   -0.276040    1.290820
     11          6           0        5.245633   -0.509214   -0.076048
     12          6           0        6.553425    0.278869   -0.157231
     13          6           0        7.693416   -0.529799   -0.777125
     14          1           0        5.411572   -1.421843    0.512992
     15          1           0        4.958781   -0.836231   -1.084869
     16          1           0        6.837096    0.604211    0.851877
     17          1           0        6.384723    1.190430   -0.744777
     18          1           0        7.435486   -0.842100   -1.794250
     19          1           0        7.890430   -1.431650   -0.188523
     20          1           0        8.618765    0.052655   -0.825450
     21          6           0       -1.538970    1.436383   -0.485630
     22          6           0       -2.755581    2.084045   -0.247062
     23          6           0       -3.931133    1.346641   -0.077177
     24          6           0       -3.853312   -0.043169   -0.152411
     25          6           0       -2.656376   -0.717533   -0.388774
     26          6           0       -1.493331    0.040123   -0.555601
     27          1           0       -0.630631    2.017082   -0.616413
     28          1           0       -2.794016    3.168277   -0.192211
     29          1           0       -4.886407    1.822377    0.108685
     30          1           0       -2.649589   -1.799633   -0.438074
     31          1           0       -0.549902   -0.465549   -0.740753
     32          7           0       -5.091197   -0.834544    0.025820
     33          8           0       -4.996018   -2.057885   -0.045002
     34          8           0       -6.133189   -0.216499    0.232965
 ---------------------------------------------------------------------

 SCF Done:  E(RHF) =  -669.534183316     A.U. after   15 cycles
 E2 =    -0.2092316021D+01 EUMP2 =    -0.67162649933691D+03

 The electronic state is 1-A.
 Alpha  occ. eigenvalues --  -20.60727 -20.60722 -15.85780 -11.31138 -11.27708
 Alpha  occ. eigenvalues --  -11.27698 -11.27425 -11.26718 -11.26668 -11.22572
 Alpha  occ. eigenvalues --  -11.22173 -11.22129 -11.22107 -11.21996 -11.21506
 Alpha  occ. eigenvalues --   -1.59803  -1.39357  -1.19312  -1.09172  -1.08705
 Alpha  occ. eigenvalues --   -1.04726  -1.04280  -0.96742  -0.95538  -0.87767
 Alpha  occ. eigenvalues --   -0.86101  -0.82379  -0.80360  -0.78948  -0.77428
 Alpha  occ. eigenvalues --   -0.72000  -0.71126  -0.70430  -0.65825  -0.64962
 Alpha  occ. eigenvalues --   -0.64765  -0.62159  -0.61632  -0.60078  -0.58337
 Alpha  occ. eigenvalues --   -0.56050  -0.55205  -0.53595  -0.53187  -0.52942
 Alpha  occ. eigenvalues --   -0.52639  -0.50664  -0.48771  -0.48754  -0.48642
 Alpha  occ. eigenvalues --   -0.47397  -0.46494  -0.46401  -0.44765  -0.44518
 Alpha  occ. eigenvalues --   -0.37249  -0.36297
 Alpha virt. eigenvalues --    0.05097   0.11260   0.16519   0.19596   0.22572
 Alpha virt. eigenvalues --    0.23957   0.25297   0.25757   0.26741   0.27650
 Alpha virt. eigenvalues --    0.29116   0.29794   0.31035   0.31393   0.31812

 Mulliken charges:
               1
     1  C   -0.298111
     2  C   -0.302567
     3  C   -0.481846
     4  H    0.152464
     5  H    0.147793
     6  H    0.157049
     7  H    0.147006
     8  H    0.145732
     9  H    0.162066
    10  H    0.164535
    11  C   -0.298819
    12  C   -0.300115
    13  C   -0.476096
    14  H    0.151414
    15  H    0.149595
    16  H    0.153006
    17  H    0.151746
    18  H    0.155570
    19  H    0.156253
    20  H    0.161709
    21  C   -0.169817
    22  C   -0.219048
    23  C   -0.170859
    24  C    0.158593
    25  C   -0.173319
    26  C   -0.219642
    27  H    0.226479
    28  H    0.223249
    29  H    0.275396
    30  H    0.275409
    31  H    0.228280
    32  N    0.488103
    33  O   -0.460615
    34  O   -0.460593
 Sum of Mulliken charges =  -0.00000

 Dipole moment (field-independent basis, Debye):
    X=              4.5478    Y=              2.7713    Z=             -0.5542  Tot=              5.3545
 Quadrupole moment (field-independent basis, Debye-Ang):
   XX=           -127.6412   YY=            -91.7322   ZZ=            -94.5400
   XY=            -13.3573   XZ=              2.1889   YZ=             -0.3214

 Normal termination of Gaussian 16 at Wed May  5 16:57:35 2021.
