 Gaussian 16, Revision A.03,
 Gaussian 16:  EM64L-G16RevA.03 25-Dec-2016

 -------------
 #p 6-31g* mp2
 -------------

 ------------------------------------------------------
 Input file generated by CHIRIPA (05-May-2021 14:51:10)
 ------------------------------------------------------
 Symbolic Z-matrix:
 Charge =  0 Multiplicity = 1

                         Standard orientation:
 ---------------------------------------------------------------------
 Center     Atomic      Atomic             Coordinates (Angstroms)
 Number     Number       Type             X           Y           Z
 ---------------------------------------------------------------------
      1          6           0        2.772319   -0.127606   -0.182685
      2          6           0        3.568268   -0.625839   -1.389422
      3          6           0        4.041618   -2.070899   -1.229619
      4          1           0        3.393599   -0.213820    0.719270
      5          1           0        1.904522   -0.783739   -0.028369
      6          1           0        4.433542    0.031854   -1.542255
      7          1           0        2.945088   -0.538249   -2.288638
      8          1           0        3.187841   -2.743826   -1.099867
      9          1           0        4.684752   -2.170483   -0.349242
     10          1           0        4.608465   -2.406649   -2.103584
     11          6           0        2.292241    1.315405   -0.327504
     12          6           0        1.496292    1.813639    0.879233
     13          6           0        1.022942    3.258698    0.719430
     14          1           0        3.160038    1.971538   -0.481819
     15          1           0        1.670961    1.401620   -1.229459
     16          1           0        2.119472    1.726049    1.778449
     17          1           0        0.631018    1.155946    1.032066
     18          1           0        0.379808    3.358283   -0.160947
     19          1           0        1.876719    3.931625    0.589678
     20          1           0        0.456094    3.594449    1.593395
     21          6           0       -3.100113   -0.137987    0.024571
     22          6           0       -3.496341   -0.354266   -1.436323
     23          6           0       -4.633572    0.565099   -1.882719
     24          1           0       -3.978282   -0.301569    0.664107
     25          1           0       -2.802044    0.910258    0.165044
     26          1           0       -3.792253   -1.402128   -1.574307
     27          1           0       -2.617081   -0.190338   -2.072440
     28          1           0       -4.345109    1.615570   -1.773627
     29          1           0       -5.526958    0.396895   -1.272663
     30          1           0       -4.900781    0.393672   -2.930131
     31          6           0       -1.964447   -1.049812    0.485618
     32          6           0       -1.568219   -0.833533    1.946512
     33          6           0       -0.430988   -1.752898    2.392908
     34          1           0       -2.262516   -2.098057    0.345146
     35          1           0       -1.086278   -0.886230   -0.153917
     36          1           0       -2.447479   -0.997461    2.582630
     37          1           0       -1.272307    0.214328    2.084496
     38          1           0        0.462398   -1.584695    1.782852
     39          1           0       -0.719451   -2.803369    2.283816
     40          1           0       -0.163779   -1.581471    3.440320
 ---------------------------------------------------------------------

 SCF Done:  E(RHF) =  -470.732674744     A.U. after   11 cycles
 E2 =    -0.1584679439D+01 EUMP2 =    -0.47231735418351D+03

 The electronic state is 1-A.
 Alpha  occ. eigenvalues --  -11.21642 -11.21641 -11.21621 -11.21605 -11.21462
 Alpha  occ. eigenvalues --  -11.21456 -11.21403 -11.21395 -11.21128 -11.21100
 Alpha  occ. eigenvalues --  -11.21089 -11.21026  -1.08525  -1.08436  -1.03601
 Alpha  occ. eigenvalues --   -1.03530  -0.96030  -0.95997  -0.87054  -0.87004
 Alpha  occ. eigenvalues --   -0.79701  -0.79561  -0.78334  -0.78270  -0.65435
 Alpha  occ. eigenvalues --   -0.64844  -0.61157  -0.60781  -0.59401  -0.59352
 Alpha  occ. eigenvalues --   -0.57698  -0.57557  -0.55355  -0.55268  -0.52714
 Alpha  occ. eigenvalues --   -0.52686  -0.52491  -0.52390  -0.50094  -0.49840
 Alpha  occ. eigenvalues --   -0.48026  -0.47942  -0.46886  -0.46441  -0.46108
 Alpha  occ. eigenvalues --   -0.45804  -0.45700  -0.45380  -0.43831  -0.43808
 Alpha virt. eigenvalues --    0.19510   0.23016   0.23712   0.24283   0.25745
 Alpha virt. eigenvalues --    0.26463   0.26803   0.28173   0.28548   0.29642
 Alpha virt. eigenvalues --    0.30724   0.31422   0.31664   0.31838   0.32229

 Mulliken charges:
               1
     1  C   -0.306255
     2  C   -0.299072
     3  C   -0.475919
     4  H    0.150197
     5  H    0.155882
     6  H    0.152221
     7  H    0.151825
     8  H    0.155479
     9  H    0.155385
    10  H    0.160421
    11  C   -0.297273
    12  C   -0.309642
    13  C   -0.475647
    14  H    0.149942
    15  H    0.148884
    16  H    0.152308
    17  H    0.162201
    18  H    0.154633
    19  H    0.155697
    20  H    0.160237
    21  C   -0.298425
    22  C   -0.299599
    23  C   -0.475752
    24  H    0.150145
    25  H    0.149684
    26  H    0.152071
    27  H    0.151468
    28  H    0.155291
    29  H    0.155348
    30  H    0.160348
    31  C   -0.301395
    32  C   -0.303567
    33  C   -0.482332
    34  H    0.150126
    35  H    0.150140
    36  H    0.153110
    37  H    0.154404
    38  H    0.162018
    39  H    0.154880
    40  H    0.160533
 Sum of Mulliken charges =  -0.00000

 Dipole moment (field-independent basis, Debye):
    X=              0.0125    Y=             -0.0027    Z=              0.0078  Tot=              0.0150
 Quadrupole moment (field-independent basis, Debye-Ang):
   XX=            -84.2845   YY=            -85.6199   ZZ=            -84.7431
   XY=              1.6693   XZ=             -0.1691   YZ=              0.2139

 Normal termination of Gaussian 16 at Thu May  6 03:47:10 2021.
