 Gaussian 16, Revision A.03,
 Gaussian 16:  EM64L-G16RevA.03 25-Dec-2016

 -------------
 #p 6-31g* mp2
 -------------

 ------------------------------------------------------
 Input file generated by CHIRIPA (05-May-2021 14:51:11)
 ------------------------------------------------------
 Symbolic Z-matrix:
 Charge =  0 Multiplicity = 1

                         Standard orientation:
 ---------------------------------------------------------------------
 Center     Atomic      Atomic             Coordinates (Angstroms)
 Number     Number       Type             X           Y           Z
 ---------------------------------------------------------------------
      1          6           0       -2.833967    0.087967   -0.077875
      2          6           0       -3.586338   -0.454010    1.137931
      3          6           0       -4.093009   -1.881743    0.931397
      4          1           0       -3.495033    0.055215   -0.954724
      5          1           0       -1.986017   -0.574363   -0.300796
      6          1           0       -4.431802    0.209908    1.359334
      7          1           0       -2.923466   -0.419785    2.012028
      8          1           0       -3.258318   -2.561786    0.732817
      9          1           0       -4.775224   -1.928516    0.076415
     10          1           0       -4.627838   -2.249366    1.812687
     11          6           0       -2.321258    1.514258    0.113313
     12          6           0       -1.568888    2.056235   -1.102493
     13          6           0       -1.062217    3.483968   -0.895960
     14          1           0       -3.169209    2.176588    0.336233
     15          1           0       -1.660192    1.547010    0.990162
     16          1           0       -2.231759    2.022010   -1.976590
     17          1           0       -0.723423    1.392317   -1.323896
     18          1           0       -0.380001    3.530741   -0.040978
     19          1           0       -1.896907    4.164011   -0.697380
     20          1           0       -0.527388    3.851591   -1.777250
     21          6           0        2.430928   -1.372697   -0.502700
     22          6           0        1.060888   -2.015893   -0.285276
     23          6           0        0.782022   -3.157763   -1.263112
     24          1           0        2.493617   -0.998102   -1.533571
     25          1           0        3.209402   -2.141566   -0.401642
     26          1           0        0.285320   -1.245766   -0.385348
     27          1           0        1.001383   -2.388829    0.745255
     28          1           0        1.534316   -3.946337   -1.159168
     29          1           0        0.814184   -2.796780   -2.296194
     30          1           0       -0.202572   -3.603216   -1.089886
     31          6           0        2.724297   -0.229528    0.467263
     32          6           0        4.094338    0.413668    0.249839
     33          6           0        4.373204    1.555538    1.227674
     34          1           0        1.945823    0.539341    0.366205
     35          1           0        2.661609   -0.604123    1.498134
     36          1           0        4.153842    0.786604   -0.780692
     37          1           0        4.869905   -0.356459    0.349910
     38          1           0        4.341041    1.194555    2.260756
     39          1           0        3.620910    2.344113    1.123730
     40          1           0        5.357796    2.000992    1.054449
 ---------------------------------------------------------------------

 SCF Done:  E(RHF) =  -470.733373232     A.U. after   11 cycles
 E2 =    -0.1583589114D+01 EUMP2 =    -0.47231696234555D+03

 The electronic state is 1-A.
 Alpha  occ. eigenvalues --  -11.21664 -11.21661 -11.21640 -11.21594 -11.21464
 Alpha  occ. eigenvalues --  -11.21413 -11.21405 -11.21342 -11.21127 -11.21124
 Alpha  occ. eigenvalues --  -11.21101 -11.21068  -1.08499  -1.08438  -1.03584
 Alpha  occ. eigenvalues --   -1.03550  -0.96030  -0.95996  -0.87044  -0.87013
 Alpha  occ. eigenvalues --   -0.79664  -0.79606  -0.78369  -0.78198  -0.65290
 Alpha  occ. eigenvalues --   -0.64929  -0.60999  -0.60935  -0.59405  -0.59359
 Alpha  occ. eigenvalues --   -0.57660  -0.57592  -0.55360  -0.55243  -0.52723
 Alpha  occ. eigenvalues --   -0.52694  -0.52459  -0.52418  -0.50010  -0.49909
 Alpha  occ. eigenvalues --   -0.48004  -0.47919  -0.46814  -0.46638  -0.46106
 Alpha  occ. eigenvalues --   -0.45811  -0.45768  -0.45260  -0.43835  -0.43800
 Alpha virt. eigenvalues --    0.19369   0.22489   0.23732   0.24497   0.25795
 Alpha virt. eigenvalues --    0.26859   0.27040   0.27199   0.28127   0.29537
 Alpha virt. eigenvalues --    0.30664   0.31504   0.31767   0.31967   0.32373

 Mulliken charges:
               1
     1  C   -0.306821
     2  C   -0.299084
     3  C   -0.475927
     4  H    0.149612
     5  H    0.157827
     6  H    0.151842
     7  H    0.152238
     8  H    0.155196
     9  H    0.155153
    10  H    0.160266
    11  C   -0.298068
    12  C   -0.302241
    13  C   -0.475805
    14  H    0.149799
    15  H    0.149996
    16  H    0.152386
    17  H    0.152543
    18  H    0.154970
    19  H    0.155715
    20  H    0.160260
    21  C   -0.297326
    22  C   -0.309574
    23  C   -0.475661
    24  H    0.149779
    25  H    0.149926
    26  H    0.159695
    27  H    0.151946
    28  H    0.155671
    29  H    0.155592
    30  H    0.160337
    31  C   -0.299599
    32  C   -0.299639
    33  C   -0.475776
    34  H    0.149791
    35  H    0.149744
    36  H    0.152224
    37  H    0.152134
    38  H    0.155155
    39  H    0.155218
    40  H    0.160508
 Sum of Mulliken charges =  -0.00000

 Dipole moment (field-independent basis, Debye):
    X=              0.0092    Y=             -0.0062    Z=             -0.0025  Tot=              0.0113
 Quadrupole moment (field-independent basis, Debye-Ang):
   XX=            -84.0856   YY=            -85.9511   ZZ=            -84.5937
   XY=             -1.3738   XZ=              0.3927   YZ=             -1.1111

 Normal termination of Gaussian 16 at Thu May  6 07:03:35 2021.
