 Gaussian 16, Revision A.03,
 Gaussian 16:  EM64L-G16RevA.03 25-Dec-2016

 -------------
 #p 6-31g* mp2
 -------------

 ------------------------------------------------------
 Input file generated by CHIRIPA (05-May-2021 14:57:24)
 ------------------------------------------------------
 Symbolic Z-matrix:
 Charge =  0 Multiplicity = 1

                         Standard orientation:
 ---------------------------------------------------------------------
 Center     Atomic      Atomic             Coordinates (Angstroms)
 Number     Number       Type             X           Y           Z
 ---------------------------------------------------------------------
      1          6           0       -2.295776    2.394554    0.017632
      2          6           0       -1.670054    1.264925   -0.519889
      3          6           0       -2.366605    0.059160   -0.644374
      4          6           0       -3.693638    0.018403   -0.219388
      5          6           0       -4.344726    1.126649    0.320210
      6          6           0       -3.628766    2.321939    0.435230
      7          1           0       -1.747140    3.327153    0.110658
      8          1           0       -0.634935    1.318397   -0.845026
      9          1           0       -1.906603   -0.830566   -1.056929
     10          1           0       -5.377615    1.042558    0.635627
     11          1           0       -4.117269    3.197631    0.853050
     12          7           0       -4.441320   -1.252541   -0.346165
     13          8           0       -5.609568   -1.262455    0.035589
     14          8           0       -3.844948   -2.214728   -0.824885
     15          6           0        5.684435    0.656414   -0.857380
     16          6           0        5.496579   -0.722395   -0.715538
     17          6           0        4.329181   -1.223596   -0.131992
     18          6           0        3.366035   -0.313360    0.300572
     19          6           0        3.523966    1.065816    0.173201
     20          6           0        4.699265    1.544553   -0.413340
     21          1           0        6.594367    1.037033   -1.311855
     22          1           0        6.259974   -1.414481   -1.059475
     23          1           0        4.157954   -2.286227   -0.009875
     24          1           0        2.745042    1.731005    0.525648
     25          1           0        4.842453    2.615856   -0.522206
     26          7           0        2.125980   -0.832068    0.919932
     27          8           0        1.292589   -0.009282    1.292921
     28          8           0        2.010897   -2.051594    1.020668
 ---------------------------------------------------------------------

 SCF Done:  E(RHF) =  -868.337993708     A.U. after   16 cycles
 E2 =    -0.2599339544D+01 EUMP2 =    -0.87093733325138D+03

 The electronic state is 1-A.
 Alpha  occ. eigenvalues --  -20.61457 -20.61408 -20.59971 -20.59953 -15.86466
 Alpha  occ. eigenvalues --  -15.85014 -11.31794 -11.30294 -11.28401 -11.28305
 Alpha  occ. eigenvalues --  -11.28051 -11.27368 -11.27306 -11.26890 -11.26795
 Alpha  occ. eigenvalues --  -11.26636 -11.25939 -11.25826  -1.60504  -1.59040
 Alpha  occ. eigenvalues --   -1.40059  -1.38595  -1.19954  -1.18460  -1.09350
 Alpha  occ. eigenvalues --   -1.07890  -1.05348  -1.03847  -0.96193  -0.94738
 Alpha  occ. eigenvalues --   -0.86746  -0.85268  -0.83025  -0.81568  -0.78091
 Alpha  occ. eigenvalues --   -0.76615  -0.72675  -0.71834  -0.71241  -0.71050
 Alpha  occ. eigenvalues --   -0.70355  -0.69619  -0.65603  -0.65341  -0.64129
 Alpha  occ. eigenvalues --   -0.63876  -0.62699  -0.61208  -0.55830  -0.54420
 Alpha  occ. eigenvalues --   -0.53680  -0.53435  -0.52173  -0.51967  -0.49452
 Alpha  occ. eigenvalues --   -0.49423  -0.47998  -0.47989  -0.45462  -0.44019
 Alpha  occ. eigenvalues --   -0.37922  -0.36951  -0.36455  -0.35399
 Alpha virt. eigenvalues --    0.04412   0.05922   0.10689   0.12226   0.15919
 Alpha virt. eigenvalues --    0.17437   0.20739   0.22149   0.26489   0.27317
 Alpha virt. eigenvalues --    0.28413   0.29057   0.30428   0.31356   0.32421

 Mulliken charges:
               1
     1  C   -0.171293
     2  C   -0.205208
     3  C   -0.166266
     4  C    0.157788
     5  C   -0.172076
     6  C   -0.218479
     7  H    0.219638
     8  H    0.220450
     9  H    0.276451
    10  H    0.272806
    11  H    0.219542
    12  N    0.488270
    13  O   -0.463619
    14  O   -0.459796
    15  C   -0.170426
    16  C   -0.218099
    17  C   -0.170471
    18  C    0.157999
    19  C   -0.173649
    20  C   -0.217922
    21  H    0.227603
    22  H    0.226074
    23  H    0.278165
    24  H    0.270792
    25  H    0.223719
    26  N    0.487063
    27  O   -0.465104
    28  O   -0.453952
 Sum of Mulliken charges =  -0.00000

 Dipole moment (field-independent basis, Debye):
    X=              7.3827    Y=              6.1109    Z=             -1.7289  Tot=              9.7384
 Quadrupole moment (field-independent basis, Debye-Ang):
   XX=            -91.8383   YY=           -101.2117   ZZ=           -107.0750
   XY=            -15.5188   XZ=            -10.7007   YZ=              1.8866

 Normal termination of Gaussian 16 at Fri May  7 09:34:34 2021.
