 Gaussian 16, Revision A.03,
 Gaussian 16:  EM64L-G16RevA.03 25-Dec-2016

 -------------
 #p 6-31g* mp2
 -------------

 ------------------------------------------------------
 Input file generated by CHIRIPA (05-May-2021 14:55:19)
 ------------------------------------------------------
 Symbolic Z-matrix:
 Charge =  0 Multiplicity = 1

                         Standard orientation:
 ---------------------------------------------------------------------
 Center     Atomic      Atomic             Coordinates (Angstroms)
 Number     Number       Type             X           Y           Z
 ---------------------------------------------------------------------
      1          6           0       -5.584345   -1.508970    0.072634
      2          6           0       -5.358414   -0.583321    1.096670
      3          6           0       -4.221134    0.229630    1.080732
      4          6           0       -3.326606    0.089846    0.020746
      5          6           0       -3.523822   -0.823054   -1.014150
      6          6           0       -4.667944   -1.625676   -0.977657
      7          1           0       -6.470469   -2.136477    0.092999
      8          1           0       -6.068392   -0.490511    1.913593
      9          1           0       -4.021621    0.954482    1.860605
     10          1           0       -2.798046   -0.892664   -1.815288
     11          1           0       -4.840826   -2.343682   -1.774289
     12          7           0       -2.118998    0.945014   -0.007008
     13          8           0       -1.346144    0.802524   -0.952011
     14          8           0       -1.968194    1.741590    0.916767
     15          6           0        4.807704   -0.639043   -0.017314
     16          6           0        6.270332   -0.674722    0.427020
     17          6           0        6.846148   -2.090913    0.452152
     18          1           0        4.210597   -1.267250    0.657790
     19          1           0        4.724394   -1.087524   -1.016974
     20          1           0        6.351063   -0.225052    1.424966
     21          1           0        6.863996   -0.046204   -0.249106
     22          1           0        6.794805   -2.545359   -0.542556
     23          1           0        6.278959   -2.725223    1.141027
     24          1           0        7.892663   -2.093160    0.772562
     25          6           0        4.217921    0.769848   -0.047505
     26          6           0        2.755293    0.805526   -0.491839
     27          6           0        2.179477    2.221718   -0.516971
     28          1           0        4.301230    1.218328    0.952155
     29          1           0        4.815028    1.398054   -0.722609
     30          1           0        2.161630    0.177009    0.184286
     31          1           0        2.674562    0.355856   -1.489785
     32          1           0        2.746666    2.856027   -1.205846
     33          1           0        2.230820    2.676164    0.477737
     34          1           0        1.132963    2.223964   -0.837380
 ---------------------------------------------------------------------

 SCF Done:  E(RHF) =  -669.536571011     A.U. after   15 cycles
 E2 =    -0.2091125584D+01 EUMP2 =    -0.67162769659479D+03

 The electronic state is 1-A.
 Alpha  occ. eigenvalues --  -20.61047 -20.61022 -15.86045 -11.31342 -11.27897
 Alpha  occ. eigenvalues --  -11.27894 -11.27630 -11.26897 -11.26888 -11.20957
 Alpha  occ. eigenvalues --  -11.20569 -11.20563 -11.20294 -11.20134 -11.19119
 Alpha  occ. eigenvalues --   -1.60080  -1.39637  -1.19504  -1.08914  -1.07444
 Alpha  occ. eigenvalues --   -1.04895  -1.02421  -0.95761  -0.94857  -0.86297
 Alpha  occ. eigenvalues --   -0.85884  -0.82594  -0.78554  -0.77651  -0.77191
 Alpha  occ. eigenvalues --   -0.72262  -0.71388  -0.70612  -0.65159  -0.64898
 Alpha  occ. eigenvalues --   -0.64093  -0.62242  -0.59840  -0.58308  -0.56426
 Alpha  occ. eigenvalues --   -0.55397  -0.54184  -0.53228  -0.52986  -0.51529
 Alpha  occ. eigenvalues --   -0.51309  -0.49018  -0.48959  -0.48846  -0.46808
 Alpha  occ. eigenvalues --   -0.45633  -0.45058  -0.44731  -0.44643  -0.42637
 Alpha  occ. eigenvalues --   -0.37482  -0.36494
 Alpha virt. eigenvalues --    0.04879   0.11162   0.16385   0.21300   0.23749
 Alpha virt. eigenvalues --    0.25502   0.27221   0.27558   0.28169   0.28421
 Alpha virt. eigenvalues --    0.29215   0.30871   0.32400   0.32417   0.32618

 Mulliken charges:
               1
     1  C   -0.170473
     2  C   -0.218609
     3  C   -0.170670
     4  C    0.157936
     5  C   -0.170680
     6  C   -0.218563
     7  H    0.226169
     8  H    0.223982
     9  H    0.275974
    10  H    0.276039
    11  H    0.224024
    12  N    0.488960
    13  O   -0.459475
    14  O   -0.458299
    15  C   -0.297030
    16  C   -0.298759
    17  C   -0.475047
    18  H    0.147820
    19  H    0.147493
    20  H    0.151087
    21  H    0.150935
    22  H    0.153967
    23  H    0.153914
    24  H    0.158209
    25  C   -0.297425
    26  C   -0.295327
    27  C   -0.485973
    28  H    0.147620
    29  H    0.146696
    30  H    0.152000
    31  H    0.148178
    32  H    0.144145
    33  H    0.150675
    34  H    0.190509
 Sum of Mulliken charges =  -0.00000

 Dipole moment (field-independent basis, Debye):
    X=             -4.7171    Y=             -2.9920    Z=              0.0917  Tot=              5.5867
 Quadrupole moment (field-independent basis, Debye-Ang):
   XX=            -68.2848   YY=            -96.1428   ZZ=            -90.4006
   XY=              9.7508   XZ=             -2.2150   YZ=              2.1491

 Normal termination of Gaussian 16 at Wed May  5 20:30:31 2021.
