 Gaussian 16, Revision A.03,
 Gaussian 16:  EM64L-G16RevA.03 25-Dec-2016

 -------------
 #p 6-31g* mp2
 -------------

 ------------------------------------------------------
 Input file generated by CHIRIPA (05-May-2021 14:55:21)
 ------------------------------------------------------
 Symbolic Z-matrix:
 Charge =  0 Multiplicity = 1

                         Standard orientation:
 ---------------------------------------------------------------------
 Center     Atomic      Atomic             Coordinates (Angstroms)
 Number     Number       Type             X           Y           Z
 ---------------------------------------------------------------------
      1          6           0       -3.819617    2.120070   -0.396843
      2          6           0       -3.071517    2.025285    0.781241
      3          6           0       -2.361843    0.858310    1.079702
      4          6           0       -2.422731   -0.199321    0.173612
      5          6           0       -3.159092   -0.135396   -1.008326
      6          6           0       -3.860944    1.041329   -1.286299
      7          1           0       -4.367871    3.030392   -0.620737
      8          1           0       -3.037599    2.861464    1.473845
      9          1           0       -1.774757    0.758007    1.984515
     10          1           0       -3.173692   -0.985650   -1.679350
     11          1           0       -4.441097    1.112119   -2.201971
     12          7           0       -1.675571   -1.439907    0.478734
     13          8           0       -1.745433   -2.357574   -0.335909
     14          8           0       -1.034232   -1.471120    1.526755
     15          6           0        3.845123    0.482648   -0.143255
     16          6           0        3.411740    1.946060   -0.050593
     17          6           0        4.596078    2.912672   -0.022325
     18          1           0        4.494408    0.244392    0.710330
     19          1           0        4.454107    0.344387   -1.047367
     20          1           0        2.802601    2.081223    0.852344
     21          1           0        2.763256    2.180807   -0.904396
     22          1           0        5.201278    2.807021   -0.928510
     23          1           0        5.240846    2.706871    0.838211
     24          1           0        4.263493    3.953265    0.044112
     25          6           0        2.672309   -0.495811   -0.172454
     26          6           0        3.105692   -1.959224   -0.265115
     27          6           0        1.921354   -2.925836   -0.293384
     28          1           0        2.063324   -0.357550    0.731658
     29          1           0        2.023024   -0.257556   -1.026039
     30          1           0        3.754176   -2.193970    0.588687
     31          1           0        3.714831   -2.094387   -1.168054
     32          1           0        1.276587   -2.720035   -1.153920
     33          1           0        1.316154   -2.820184    0.612801
     34          1           0        2.253938   -3.966428   -0.359820
 ---------------------------------------------------------------------

 SCF Done:  E(RHF) =  -669.536601447     A.U. after   15 cycles
 E2 =    -0.2092256737D+01 EUMP2 =    -0.67162885818365D+03

 The electronic state is 1-A.
 Alpha  occ. eigenvalues --  -20.61005 -20.60999 -15.85996 -11.31303 -11.27860
 Alpha  occ. eigenvalues --  -11.27857 -11.27593 -11.26862 -11.26852 -11.21264
 Alpha  occ. eigenvalues --  -11.20831 -11.20802 -11.20521 -11.20438 -11.19273
 Alpha  occ. eigenvalues --   -1.60031  -1.39592  -1.19464  -1.08873  -1.07699
 Alpha  occ. eigenvalues --   -1.04858  -1.02692  -0.95722  -0.95101  -0.86260
 Alpha  occ. eigenvalues --   -0.86113  -0.82558  -0.78819  -0.77614  -0.77444
 Alpha  occ. eigenvalues --   -0.72223  -0.71327  -0.70576  -0.65123  -0.64863
 Alpha  occ. eigenvalues --   -0.64339  -0.62207  -0.60092  -0.58597  -0.56715
 Alpha  occ. eigenvalues --   -0.55366  -0.54381  -0.53191  -0.52951  -0.51812
 Alpha  occ. eigenvalues --   -0.51539  -0.49224  -0.48986  -0.48819  -0.47023
 Alpha  occ. eigenvalues --   -0.45892  -0.45199  -0.44964  -0.44589  -0.42962
 Alpha  occ. eigenvalues --   -0.37438  -0.36456
 Alpha virt. eigenvalues --    0.04883   0.11197   0.16364   0.21314   0.23510
 Alpha virt. eigenvalues --    0.25234   0.27154   0.27389   0.27911   0.28420
 Alpha virt. eigenvalues --    0.29075   0.30930   0.32160   0.32339   0.32597

 Mulliken charges:
               1
     1  C   -0.170496
     2  C   -0.218453
     3  C   -0.170237
     4  C    0.159830
     5  C   -0.170953
     6  C   -0.218599
     7  H    0.226047
     8  H    0.223895
     9  H    0.275523
    10  H    0.275760
    11  H    0.223828
    12  N    0.489434
    13  O   -0.457445
    14  O   -0.460596
    15  C   -0.297269
    16  C   -0.298494
    17  C   -0.475043
    18  H    0.149192
    19  H    0.147835
    20  H    0.149441
    21  H    0.149330
    22  H    0.154924
    23  H    0.155262
    24  H    0.157022
    25  C   -0.300108
    26  C   -0.299300
    27  C   -0.483932
    28  H    0.155892
    29  H    0.144097
    30  H    0.148420
    31  H    0.145674
    32  H    0.155911
    33  H    0.180577
    34  H    0.153029
 Sum of Mulliken charges =  -0.00000

 Dipole moment (field-independent basis, Debye):
    X=             -2.9565    Y=              4.2793    Z=             -0.9783  Tot=              5.2924
 Quadrupole moment (field-independent basis, Debye-Ang):
   XX=            -83.5207   YY=            -97.0565   ZZ=            -90.6973
   XY=            -10.1336   XZ=              4.1468   YZ=              2.7180

 Normal termination of Gaussian 16 at Thu May  6 06:10:51 2021.
