 Gaussian 16, Revision A.03,
 Gaussian 16:  EM64L-G16RevA.03 25-Dec-2016

 -------------
 #p 6-31g* mp2
 -------------

 ------------------------------------------------------
 Input file generated by CHIRIPA (05-May-2021 14:55:24)
 ------------------------------------------------------
 Symbolic Z-matrix:
 Charge =  0 Multiplicity = 1

                         Standard orientation:
 ---------------------------------------------------------------------
 Center     Atomic      Atomic             Coordinates (Angstroms)
 Number     Number       Type             X           Y           Z
 ---------------------------------------------------------------------
      1          6           0       -3.135529    2.092465    1.088842
      2          6           0       -2.061913    1.367144    1.615891
      3          6           0       -1.662790    0.162482    1.029343
      4          6           0       -2.362785   -0.289463   -0.088263
      5          6           0       -3.436445    0.410388   -0.636672
      6          6           0       -3.818165    1.612618   -0.033778
      7          1           0       -3.438818    3.027330    1.550836
      8          1           0       -1.529932    1.737382    2.487650
      9          1           0       -0.835153   -0.419158    1.416808
     10          1           0       -3.947388    0.015843   -1.506551
     11          1           0       -4.652318    2.173802   -0.445245
     12          7           0       -1.949463   -1.563497   -0.717868
     13          8           0       -2.582507   -1.940154   -1.701749
     14          8           0       -1.000285   -2.161304   -0.215549
     15          6           0        2.912247   -0.623370   -0.153705
     16          6           0        3.086651   -1.534444    1.061823
     17          6           0        2.683792   -2.981903    0.778340
     18          1           0        1.864131   -0.656321   -0.481288
     19          1           0        3.512442   -1.015639   -0.986344
     20          1           0        2.487392   -1.139800    1.892342
     21          1           0        4.134433   -1.499172    1.386667
     22          1           0        3.289513   -3.398539   -0.032905
     23          1           0        1.633113   -3.037127    0.475643
     24          1           0        2.816408   -3.615701    1.660707
     25          6           0        3.310871    0.826855    0.114018
     26          6           0        3.136467    1.737930   -1.101512
     27          6           0        3.539326    3.185387   -0.818028
     28          1           0        2.710677    1.219124    0.946655
     29          1           0        4.358988    0.859806    0.441599
     30          1           0        2.088684    1.702656   -1.426356
     31          1           0        3.735726    1.343286   -1.932031
     32          1           0        4.590005    3.240612   -0.515333
     33          1           0        2.933605    3.602025   -0.006784
     34          1           0        3.406710    3.819186   -1.700397
 ---------------------------------------------------------------------

 SCF Done:  E(RHF) =  -669.536405466     A.U. after   15 cycles
 E2 =    -0.2091879874D+01 EUMP2 =    -0.67162828533997D+03

 The electronic state is 1-A.
 Alpha  occ. eigenvalues --  -20.61023 -20.61010 -15.86049 -11.31338 -11.27898
 Alpha  occ. eigenvalues --  -11.27892 -11.27626 -11.26899 -11.26889 -11.21473
 Alpha  occ. eigenvalues --  -11.21194 -11.21092 -11.21064 -11.20861 -11.20042
 Alpha  occ. eigenvalues --   -1.60072  -1.39631  -1.19503  -1.08912  -1.08089
 Alpha  occ. eigenvalues --   -1.04895  -1.03131  -0.95761  -0.95554  -0.86566
 Alpha  occ. eigenvalues --   -0.86296  -0.82598  -0.79228  -0.77881  -0.77639
 Alpha  occ. eigenvalues --   -0.72280  -0.71381  -0.70610  -0.65166  -0.64910
 Alpha  occ. eigenvalues --   -0.64715  -0.62242  -0.60524  -0.58971  -0.57163
 Alpha  occ. eigenvalues --   -0.55398  -0.54831  -0.53227  -0.52986  -0.52258
 Alpha  occ. eigenvalues --   -0.51960  -0.49488  -0.49036  -0.49001  -0.47516
 Alpha  occ. eigenvalues --   -0.46275  -0.45467  -0.45408  -0.44869  -0.43398
 Alpha  occ. eigenvalues --   -0.37479  -0.36494
 Alpha virt. eigenvalues --    0.04849   0.11128   0.16340   0.20390   0.22825
 Alpha virt. eigenvalues --    0.24260   0.26369   0.27420   0.27851   0.28486
 Alpha virt. eigenvalues --    0.28895   0.30618   0.31554   0.32059   0.32355

 Mulliken charges:
               1
     1  C   -0.170452
     2  C   -0.218677
     3  C   -0.172064
     4  C    0.157446
     5  C   -0.170598
     6  C   -0.218528
     7  H    0.226286
     8  H    0.224208
     9  H    0.277061
    10  H    0.275974
    11  H    0.224052
    12  N    0.495499
    13  O   -0.457822
    14  O   -0.467947
    15  C   -0.302551
    16  C   -0.296327
    17  C   -0.487868
    18  H    0.157615
    19  H    0.150656
    20  H    0.141691
    21  H    0.148633
    22  H    0.152814
    23  H    0.184549
    24  H    0.154758
    25  C   -0.296504
    26  C   -0.299178
    27  C   -0.474931
    28  H    0.141490
    29  H    0.149099
    30  H    0.151380
    31  H    0.153709
    32  H    0.155401
    33  H    0.151400
    34  H    0.159727
 Sum of Mulliken charges =  -0.00000

 Dipole moment (field-independent basis, Debye):
    X=             -1.6891    Y=              4.3817    Z=              2.0853  Tot=              5.1382
 Quadrupole moment (field-independent basis, Debye-Ang):
   XX=            -85.1268   YY=            -99.0860   ZZ=            -93.3181
   XY=            -11.3655   XZ=             -2.9564   YZ=             -1.1397

 Normal termination of Gaussian 16 at Wed May  5 16:06:00 2021.
