 Gaussian 16, Revision A.03,
 Gaussian 16:  EM64L-G16RevA.03 25-Dec-2016

 -------------
 #p 6-31g* mp2
 -------------

 ------------------------------------------------------
 Input file generated by CHIRIPA (05-May-2021 14:53:15)
 ------------------------------------------------------
 Symbolic Z-matrix:
 Charge =  0 Multiplicity = 1

                         Standard orientation:
 ---------------------------------------------------------------------
 Center     Atomic      Atomic             Coordinates (Angstroms)
 Number     Number       Type             X           Y           Z
 ---------------------------------------------------------------------
      1          6           0        4.530030    0.068168   -0.258793
      2          6           0        4.600307   -1.316360    0.386286
      3          6           0        5.930309   -2.023701    0.124453
      4          1           0        4.687616   -0.030379   -1.341568
      5          1           0        5.355677    0.684943    0.122376
      6          1           0        3.773955   -1.929894    0.005056
      7          1           0        4.442344   -1.214527    1.467625
      8          1           0        6.764176   -1.435108    0.520463
      9          1           0        6.091990   -2.154540   -0.950415
     10          1           0        5.958968   -3.011641    0.594573
     11          6           0        3.206454    0.787847   -0.005931
     12          6           0        3.136178    2.172375   -0.651011
     13          6           0        1.806176    2.879716   -0.389178
     14          1           0        2.380807    0.171072   -0.387101
     15          1           0        3.048868    0.886394    1.076843
     16          1           0        3.294140    2.070542   -1.732350
     17          1           0        3.962529    2.785909   -0.269781
     18          1           0        1.644494    3.010555    0.685691
     19          1           0        0.972308    2.291123   -0.785188
     20          1           0        1.777517    3.867656   -0.859298
     21          6           0       -0.559932   -0.686187    0.527747
     22          6           0       -1.295776    0.174577    1.348809
     23          6           0       -2.660528    0.377070    1.122992
     24          6           0       -3.260094   -0.300369    0.062384
     25          6           0       -2.553979   -1.164373   -0.773194
     26          6           0       -1.190272   -1.351741   -0.528771
     27          1           0        0.499835   -0.837614    0.710394
     28          1           0       -0.808878    0.692780    2.170053
     29          1           0       -3.254038    1.037794    1.743159
     30          1           0       -3.067077   -1.666978   -1.584080
     31          1           0       -0.621306   -2.020813   -1.168040
     32          7           0       -4.704344   -0.094005   -0.186527
     33          8           0       -5.209147   -0.702621   -1.127482
     34          8           0       -5.304196    0.672451    0.564046
 ---------------------------------------------------------------------

 SCF Done:  E(RHF) =  -669.535604129     A.U. after   15 cycles
 E2 =    -0.2091888596D+01 EUMP2 =    -0.67162749272453D+03

 The electronic state is 1-A.
 Alpha  occ. eigenvalues --  -20.60734 -20.60728 -15.85788 -11.31149 -11.27723
 Alpha  occ. eigenvalues --  -11.27713 -11.27406 -11.26735 -11.26717 -11.22548
 Alpha  occ. eigenvalues --  -11.22490 -11.22387 -11.22270 -11.21814 -11.21749
 Alpha  occ. eigenvalues --   -1.59809  -1.39363  -1.19321  -1.09364  -1.08710
 Alpha  occ. eigenvalues --   -1.04724  -1.04357  -0.96802  -0.95548  -0.87813
 Alpha  occ. eigenvalues --   -0.86118  -0.82386  -0.80431  -0.79233  -0.77432
 Alpha  occ. eigenvalues --   -0.72005  -0.71133  -0.70423  -0.65987  -0.64970
 Alpha  occ. eigenvalues --   -0.64726  -0.62073  -0.61746  -0.60171  -0.58434
 Alpha  occ. eigenvalues --   -0.56103  -0.55226  -0.53452  -0.53218  -0.53044
 Alpha  occ. eigenvalues --   -0.52813  -0.50736  -0.48767  -0.48761  -0.48733
 Alpha  occ. eigenvalues --   -0.47465  -0.46711  -0.46664  -0.44770  -0.44644
 Alpha  occ. eigenvalues --   -0.37268  -0.36330
 Alpha virt. eigenvalues --    0.05073   0.11298   0.16470   0.20100   0.22565
 Alpha virt. eigenvalues --    0.23415   0.25021   0.25693   0.26889   0.27738
 Alpha virt. eigenvalues --    0.29734   0.30668   0.30738   0.31300   0.31985

 Mulliken charges:
               1
     1  C   -0.298014
     2  C   -0.300397
     3  C   -0.475981
     4  H    0.152310
     5  H    0.153284
     6  H    0.146032
     7  H    0.151653
     8  H    0.157730
     9  H    0.156914
    10  H    0.162025
    11  C   -0.302761
    12  C   -0.299561
    13  C   -0.478673
    14  H    0.144237
    15  H    0.146349
    16  H    0.154739
    17  H    0.154781
    18  H    0.151269
    19  H    0.159253
    20  H    0.164491
    21  C   -0.173300
    22  C   -0.219239
    23  C   -0.170989
    24  C    0.158377
    25  C   -0.170785
    26  C   -0.221015
    27  H    0.232847
    28  H    0.223785
    29  H    0.275512
    30  H    0.275378
    31  H    0.222747
    32  N    0.488089
    33  O   -0.460627
    34  O   -0.460459
 Sum of Mulliken charges =  -0.00000

 Dipole moment (field-independent basis, Debye):
    X=              5.2800    Y=             -0.6537    Z=              0.8346  Tot=              5.3854
 Quadrupole moment (field-independent basis, Debye-Ang):
   XX=           -128.4377   YY=            -92.8383   ZZ=            -91.2206
   XY=              1.4805   XZ=             -2.4988   YZ=              2.7234

 Normal termination of Gaussian 16 at Wed May  5 15:37:31 2021.
