 Gaussian 16, Revision A.03,
 Gaussian 16:  EM64L-G16RevA.03 25-Dec-2016

 -------------
 #p 6-31g* mp2
 -------------

 ------------------------------------------------------
 Input file generated by CHIRIPA (05-May-2021 14:51:08)
 ------------------------------------------------------
 Symbolic Z-matrix:
 Charge =  0 Multiplicity = 1

                         Standard orientation:
 ---------------------------------------------------------------------
 Center     Atomic      Atomic             Coordinates (Angstroms)
 Number     Number       Type             X           Y           Z
 ---------------------------------------------------------------------
      1          6           0       -3.452447    0.880112   -0.231762
      2          6           0       -2.735068    2.018041    0.495197
      3          6           0       -3.566123    3.300208    0.551686
      4          1           0       -3.699790    1.203693   -1.252086
      5          1           0       -4.407665    0.677132    0.271977
      6          1           0       -1.780852    2.217885   -0.008936
      7          1           0       -2.489234    1.691646    1.513847
      8          1           0       -4.512307    3.123339    1.073274
      9          1           0       -3.799901    3.652567   -0.458161
     10          1           0       -3.034348    4.100549    1.075642
     11          6           0       -2.634311   -0.408375   -0.296445
     12          6           0       -3.351690   -1.546304   -1.023404
     13          6           0       -2.520635   -2.828471   -1.079894
     14          1           0       -1.679093   -0.205394   -0.800184
     15          1           0       -2.386968   -0.731956    0.723879
     16          1           0       -3.597524   -1.219909   -2.042054
     17          1           0       -4.305906   -1.746148   -0.519271
     18          1           0       -2.286857   -3.180830   -0.070046
     19          1           0       -1.574451   -2.651602   -1.601481
     20          1           0       -3.052410   -3.628812   -1.603849
     21          6           0        3.724355    0.109924    0.275579
     22          6           0        4.078221    0.796255   -1.044161
     23          6           0        5.443475    1.483558   -1.005565
     24          1           0        3.739254    0.853793    1.083899
     25          1           0        4.501188   -0.628948    0.516397
     26          1           0        3.300237    1.532635   -1.283117
     27          1           0        4.062291    0.050702   -1.849464
     28          1           0        6.234407    0.757444   -0.791588
     29          1           0        5.468024    2.247797   -0.222023
     30          1           0        5.676312    1.967705   -1.959111
     31          6           0        2.362403   -0.581661    0.252628
     32          6           0        2.008536   -1.267992    1.572368
     33          6           0        0.643283   -1.955296    1.533772
     34          1           0        1.585570    0.157211    0.011809
     35          1           0        2.347504   -1.325530   -0.555693
     36          1           0        2.024468   -0.522439    2.377672
     37          1           0        2.786521   -2.004372    1.811324
     38          1           0        0.618735   -2.719534    0.750231
     39          1           0       -0.147648   -1.229181    1.319795
     40          1           0        0.410446   -2.439441    2.487318
 ---------------------------------------------------------------------

 SCF Done:  E(RHF) =  -470.732924861     A.U. after   11 cycles
 E2 =    -0.1583476110D+01 EUMP2 =    -0.47231640097092D+03

 The electronic state is 1-A.
 Alpha  occ. eigenvalues --  -11.21649 -11.21596 -11.21589 -11.21535 -11.21412
 Alpha  occ. eigenvalues --  -11.21380 -11.21348 -11.21320 -11.21104 -11.21066
 Alpha  occ. eigenvalues --  -11.21012 -11.20905  -1.08454  -1.08390  -1.03546
 Alpha  occ. eigenvalues --   -1.03473  -0.95982  -0.95933  -0.87000  -0.86953
 Alpha  occ. eigenvalues --   -0.79675  -0.79500  -0.78344  -0.78127  -0.65083
 Alpha  occ. eigenvalues --   -0.65023  -0.60943  -0.60878  -0.59376  -0.59288
 Alpha  occ. eigenvalues --   -0.57606  -0.57543  -0.55324  -0.55171  -0.52684
 Alpha  occ. eigenvalues --   -0.52629  -0.52425  -0.52362  -0.49981  -0.49811
 Alpha  occ. eigenvalues --   -0.48123  -0.47713  -0.46678  -0.46604  -0.45986
 Alpha  occ. eigenvalues --   -0.45708  -0.45701  -0.45332  -0.43792  -0.43746
 Alpha virt. eigenvalues --    0.21581   0.23150   0.23652   0.24408   0.25640
 Alpha virt. eigenvalues --    0.25697   0.26682   0.27651   0.28476   0.29590
 Alpha virt. eigenvalues --    0.30964   0.31161   0.31711   0.31807   0.32245

 Mulliken charges:
               1
     1  C   -0.297391
     2  C   -0.300097
     3  C   -0.475588
     4  H    0.149709
     5  H    0.149590
     6  H    0.151264
     7  H    0.151633
     8  H    0.155411
     9  H    0.155376
    10  H    0.160233
    11  C   -0.303692
    12  C   -0.299386
    13  C   -0.477124
    14  H    0.150879
    15  H    0.154043
    16  H    0.151713
    17  H    0.151713
    18  H    0.158271
    19  H    0.155410
    20  H    0.159538
    21  C   -0.298218
    22  C   -0.299591
    23  C   -0.475678
    24  H    0.149673
    25  H    0.149597
    26  H    0.151595
    27  H    0.151815
    28  H    0.155226
    29  H    0.155198
    30  H    0.160147
    31  C   -0.298826
    32  C   -0.299522
    33  C   -0.483779
    34  H    0.149747
    35  H    0.149253
    36  H    0.151435
    37  H    0.151409
    38  H    0.156420
    39  H    0.164226
    40  H    0.158366
 Sum of Mulliken charges =  -0.00000

 Dipole moment (field-independent basis, Debye):
    X=             -0.0433    Y=             -0.0018    Z=             -0.0060  Tot=              0.0438
 Quadrupole moment (field-independent basis, Debye-Ang):
   XX=            -85.5932   YY=            -85.2713   ZZ=            -83.9848
   XY=             -0.2670   XZ=             -0.3939   YZ=             -0.0073

 Normal termination of Gaussian 16 at Thu May  6 16:32:11 2021.
