 Gaussian 16, Revision A.03,
 Gaussian 16:  EM64L-G16RevA.03 25-Dec-2016

 -------------
 #p 6-31g* mp2
 -------------

 ------------------------------------------------------
 Input file generated by CHIRIPA (05-May-2021 14:57:24)
 ------------------------------------------------------
 Symbolic Z-matrix:
 Charge =  0 Multiplicity = 1

                         Standard orientation:
 ---------------------------------------------------------------------
 Center     Atomic      Atomic             Coordinates (Angstroms)
 Number     Number       Type             X           Y           Z
 ---------------------------------------------------------------------
      1          6           0        1.476303    0.079549    1.395672
      2          6           0        2.177093    1.225175    1.004576
      3          6           0        3.376793    1.115997    0.295105
      4          6           0        3.848843   -0.160201   -0.007846
      5          6           0        3.173637   -1.320465    0.367883
      6          6           0        1.975931   -1.187381    1.076640
      7          1           0        0.545122    0.173647    1.946529
      8          1           0        1.791457    2.210377    1.250962
      9          1           0        3.939623    1.986269   -0.019960
     10          1           0        3.583144   -2.288994    0.107744
     11          1           0        1.433816   -2.078832    1.379082
     12          7           0        5.117856   -0.288437   -0.758554
     13          8           0        5.512553   -1.424225   -1.013187
     14          8           0        5.693782    0.749267   -1.078110
     15          6           0       -4.837042   -2.072120   -0.323100
     16          6           0       -3.892810   -1.879694    0.690764
     17          6           0       -3.223312   -0.658682    0.815059
     18          6           0       -3.523939    0.352835   -0.095846
     19          6           0       -4.459525    0.191750   -1.116641
     20          6           0       -5.116893   -1.037607   -1.221981
     21          1           0       -5.352413   -3.023873   -0.412292
     22          1           0       -3.673458   -2.681336    1.390265
     23          1           0       -2.487753   -0.482684    1.590554
     24          1           0       -4.656936    1.009571   -1.799001
     25          1           0       -5.849717   -1.184213   -2.010346
     26          7           0       -2.821592    1.649883    0.025706
     27          8           0       -3.104386    2.525238   -0.789412
     28          8           0       -2.001599    1.766595    0.933796
 ---------------------------------------------------------------------

 SCF Done:  E(RHF) =  -868.339116829     A.U. after   16 cycles
 E2 =    -0.2599026706D+01 EUMP2 =    -0.87093814353419D+03

 The electronic state is 1-A.
 Alpha  occ. eigenvalues --  -20.61752 -20.61692 -20.60367 -20.60354 -15.86763
 Alpha  occ. eigenvalues --  -15.85413 -11.31982 -11.30669 -11.28608 -11.28477
 Alpha  occ. eigenvalues --  -11.28207 -11.27534 -11.27457 -11.27285 -11.27168
 Alpha  occ. eigenvalues --  -11.26865 -11.26293 -11.26058  -1.60778  -1.59442
 Alpha  occ. eigenvalues --   -1.40344  -1.38998  -1.20130  -1.18822  -1.09542
 Alpha  occ. eigenvalues --   -1.08219  -1.05519  -1.04210  -0.96411  -0.95076
 Alpha  occ. eigenvalues --   -0.86921  -0.85600  -0.83258  -0.81917  -0.78333
 Alpha  occ. eigenvalues --   -0.76995  -0.73003  -0.72082  -0.71633  -0.71238
 Alpha  occ. eigenvalues --   -0.70764  -0.69879  -0.65789  -0.65519  -0.64465
 Alpha  occ. eigenvalues --   -0.64196  -0.62883  -0.61559  -0.56002  -0.54656
 Alpha  occ. eigenvalues --   -0.53840  -0.53609  -0.52546  -0.52288  -0.49760
 Alpha  occ. eigenvalues --   -0.49714  -0.48395  -0.48380  -0.45777  -0.44429
 Alpha  occ. eigenvalues --   -0.38079  -0.37113  -0.36767  -0.35819
 Alpha virt. eigenvalues --    0.04192   0.05542   0.10538   0.11841   0.15724
 Alpha virt. eigenvalues --    0.17061   0.19805   0.21967   0.25514   0.27030
 Alpha virt. eigenvalues --    0.27895   0.28917   0.30548   0.31096   0.32978

 Mulliken charges:
               1
     1  C   -0.171891
     2  C   -0.218170
     3  C   -0.171967
     4  C    0.157766
     5  C   -0.171812
     6  C   -0.219981
     7  H    0.232790
     8  H    0.233643
     9  H    0.275295
    10  H    0.272500
    11  H    0.215769
    12  N    0.488179
    13  O   -0.463025
    14  O   -0.460693
    15  C   -0.169810
    16  C   -0.218408
    17  C   -0.170670
    18  C    0.159712
    19  C   -0.169782
    20  C   -0.217992
    21  H    0.228354
    22  H    0.223575
    23  H    0.267862
    24  H    0.277800
    25  H    0.226561
    26  N    0.490740
    27  O   -0.454403
    28  O   -0.471943
 Sum of Mulliken charges =  -0.00000

 Dipole moment (field-independent basis, Debye):
    X=             -7.3390    Y=             -3.9509    Z=              2.1024  Tot=              8.5959
 Quadrupole moment (field-independent basis, Debye-Ang):
   XX=           -121.3059   YY=           -102.9451   ZZ=           -102.7659
   XY=             17.9991   XZ=             14.9497   YZ=             -1.8057

 Normal termination of Gaussian 16 at Thu May  6 16:18:50 2021.
