 Gaussian 16, Revision A.03,
 Gaussian 16:  EM64L-G16RevA.03 25-Dec-2016

 -------------
 #p 6-31g* mp2
 -------------

 ------------------------------------------------------
 Input file generated by CHIRIPA (05-May-2021 14:57:21)
 ------------------------------------------------------
 Symbolic Z-matrix:
 Charge =  0 Multiplicity = 1

                         Standard orientation:
 ---------------------------------------------------------------------
 Center     Atomic      Atomic             Coordinates (Angstroms)
 Number     Number       Type             X           Y           Z
 ---------------------------------------------------------------------
      1          6           0       -1.807639    1.343192    1.063435
      2          6           0       -2.848231    1.991131    0.389740
      3          6           0       -3.922250    1.260919   -0.127776
      4          6           0       -3.923487   -0.122061    0.047310
      5          6           0       -2.901592   -0.796508    0.713749
      6          6           0       -1.837587   -0.046110    1.223008
      7          1           0       -0.977205    1.918279    1.462247
      8          1           0       -2.827618    3.069968    0.264325
      9          1           0       -4.740965    1.737039   -0.653545
     10          1           0       -2.950015   -1.873133    0.823080
     11          1           0       -1.030825   -0.551979    1.745766
     12          7           0       -5.055201   -0.905788   -0.496191
     13          8           0       -5.032757   -2.123194   -0.328694
     14          8           0       -5.943254   -0.287828   -1.079392
     15          6           0        4.869583   -2.253341    0.056862
     16          6           0        3.482911   -2.153017    0.210482
     17          6           0        2.844719   -0.913593    0.105185
     18          6           0        3.627469    0.210050   -0.155616
     19          6           0        5.010851    0.142506   -0.313672
     20          6           0        5.627790   -1.107280   -0.204265
     21          1           0        5.357091   -3.220180    0.140256
     22          1           0        2.891550   -3.041379    0.413335
     23          1           0        1.772799   -0.807327    0.219701
     24          1           0        5.573715    1.045812   -0.515268
     25          1           0        6.704864   -1.182195   -0.324031
     26          7           0        2.963093    1.527657   -0.269265
     27          8           0        3.675184    2.502610   -0.499553
     28          8           0        1.742845    1.560497   -0.125903
 ---------------------------------------------------------------------

 SCF Done:  E(RHF) =  -868.339329754     A.U. after   16 cycles
 E2 =    -0.2598880816D+01 EUMP2 =    -0.87093821056981D+03

 The electronic state is 1-A.
 Alpha  occ. eigenvalues --  -20.61655 -20.61599 -20.60396 -20.60384 -15.86672
 Alpha  occ. eigenvalues --  -15.85447 -11.31869 -11.30650 -11.28453 -11.28385
 Alpha  occ. eigenvalues --  -11.28096 -11.27394 -11.27357 -11.27308 -11.27218
 Alpha  occ. eigenvalues --  -11.26783 -11.26235 -11.26075  -1.60696  -1.59474
 Alpha  occ. eigenvalues --   -1.40258  -1.39033  -1.20018  -1.18814  -1.09438
 Alpha  occ. eigenvalues --   -1.08190  -1.05399  -1.04223  -0.96307  -0.95054
 Alpha  occ. eigenvalues --   -0.86802  -0.85603  -0.83150  -0.81919  -0.78222
 Alpha  occ. eigenvalues --   -0.77028  -0.72912  -0.72006  -0.71666  -0.71121
 Alpha  occ. eigenvalues --   -0.70798  -0.69799  -0.65673  -0.65397  -0.64455
 Alpha  occ. eigenvalues --   -0.64227  -0.62755  -0.61596  -0.55887  -0.54559
 Alpha  occ. eigenvalues --   -0.53730  -0.53489  -0.52518  -0.52314  -0.49665
 Alpha  occ. eigenvalues --   -0.49629  -0.48431  -0.48408  -0.45700  -0.44476
 Alpha  occ. eigenvalues --   -0.37974  -0.36994  -0.36683  -0.35850
 Alpha virt. eigenvalues --    0.04297   0.05551   0.10661   0.11749   0.15825
 Alpha virt. eigenvalues --    0.17081   0.20178   0.22066   0.25699   0.27201
 Alpha virt. eigenvalues --    0.28547   0.29162   0.30561   0.31153   0.32403

 Mulliken charges:
               1
     1  C   -0.161230
     2  C   -0.219991
     3  C   -0.170610
     4  C    0.157017
     5  C   -0.171970
     6  C   -0.222690
     7  H    0.240197
     8  H    0.225623
     9  H    0.274311
    10  H    0.270693
    11  H    0.215303
    12  N    0.488393
    13  O   -0.463888
    14  O   -0.461271
    15  C   -0.169897
    16  C   -0.218246
    17  C   -0.172434
    18  C    0.158275
    19  C   -0.170240
    20  C   -0.218299
    21  H    0.228253
    22  H    0.224733
    23  H    0.271546
    24  H    0.276846
    25  H    0.225818
    26  N    0.490547
    27  O   -0.456506
    28  O   -0.470284
 Sum of Mulliken charges =  -0.00000

 Dipole moment (field-independent basis, Debye):
    X=              6.7212    Y=             -1.6972    Z=              2.2953  Tot=              7.3023
 Quadrupole moment (field-independent basis, Debye-Ang):
   XX=           -114.7000   YY=           -103.2204   ZZ=           -105.6667
   XY=            -28.4874   XZ=             -6.4222   YZ=             -1.2495

 Normal termination of Gaussian 16 at Thu May  6 14:30:18 2021.
