 Gaussian 16, Revision A.03,
 Gaussian 16:  EM64L-G16RevA.03 25-Dec-2016

 -------------
 #p 6-31g* mp2
 -------------

 ------------------------------------------------------
 Input file generated by CHIRIPA (05-May-2021 14:53:15)
 ------------------------------------------------------
 Symbolic Z-matrix:
 Charge =  0 Multiplicity = 1

                         Standard orientation:
 ---------------------------------------------------------------------
 Center     Atomic      Atomic             Coordinates (Angstroms)
 Number     Number       Type             X           Y           Z
 ---------------------------------------------------------------------
      1          6           0        2.107131    1.599311   -0.005010
      2          6           0        1.206837    2.175480   -1.098393
      3          6           0        0.792977    3.621288   -0.822436
      4          1           0        1.583515    1.654655    0.959204
      5          1           0        3.004208    2.226701    0.090001
      6          1           0        0.312376    1.546399   -1.192264
      7          1           0        1.732582    2.118581   -2.060147
      8          1           0        1.674085    4.266999   -0.749592
      9          1           0        0.245809    3.691565    0.123222
     10          1           0        0.149801    4.013298   -1.616484
     11          6           0        2.529265    0.154644   -0.266675
     12          6           0        3.429558   -0.421525    0.826708
     13          6           0        3.843419   -1.867333    0.550751
     14          1           0        1.632187   -0.472747   -0.361686
     15          1           0        3.052880    0.099300   -1.230889
     16          1           0        2.903813   -0.364626    1.788462
     17          1           0        4.324019    0.207556    0.920579
     18          1           0        4.390586   -1.937610   -0.394907
     19          1           0        2.962310   -2.513044    0.477906
     20          1           0        4.486594   -2.259343    1.344799
     21          6           0       -2.929130    1.280192    1.225678
     22          6           0       -3.280794    0.925798   -0.080944
     23          6           0       -2.667864   -0.161270   -0.711139
     24          6           0       -1.703004   -0.875140   -0.002107
     25          6           0       -1.331045   -0.546785    1.300629
     26          6           0       -1.957092    0.544066    1.911085
     27          1           0       -3.410363    2.126121    1.707562
     28          1           0       -4.035357    1.495674   -0.615659
     29          1           0       -2.921061   -0.457456   -1.721874
     30          1           0       -0.575345   -1.133919    1.808180
     31          1           0       -1.681989    0.817004    2.925909
     32          7           0       -1.047180   -2.027973   -0.658819
     33          8           0       -0.200105   -2.640806   -0.012649
     34          8           0       -1.392638   -2.296901   -1.807284
 ---------------------------------------------------------------------

 SCF Done:  E(RHF) =  -669.536444398     A.U. after   15 cycles
 E2 =    -0.2094553990D+01 EUMP2 =    -0.67163099838864D+03

 The electronic state is 1-A.
 Alpha  occ. eigenvalues --  -20.61067 -20.61061 -15.86071 -11.31388 -11.27949
 Alpha  occ. eigenvalues --  -11.27945 -11.27670 -11.26950 -11.26938 -11.21475
 Alpha  occ. eigenvalues --  -11.21183 -11.21145 -11.21142 -11.20863 -11.20237
 Alpha  occ. eigenvalues --   -1.60112  -1.39670  -1.19556  -1.08957  -1.08113
 Alpha  occ. eigenvalues --   -1.04944  -1.03191  -0.95801  -0.95632  -0.86645
 Alpha  occ. eigenvalues --   -0.86342  -0.82634  -0.79287  -0.77918  -0.77681
 Alpha  occ. eigenvalues --   -0.72302  -0.71435  -0.70650  -0.65212  -0.64950
 Alpha  occ. eigenvalues --   -0.64739  -0.62287  -0.60595  -0.59039  -0.57238
 Alpha  occ. eigenvalues --   -0.55441  -0.54913  -0.53268  -0.53029  -0.52342
 Alpha  occ. eigenvalues --   -0.52044  -0.49564  -0.49069  -0.49052  -0.47585
 Alpha  occ. eigenvalues --   -0.46347  -0.45697  -0.45445  -0.44651  -0.43451
 Alpha  occ. eigenvalues --   -0.37502  -0.36524
 Alpha virt. eigenvalues --    0.04797   0.11052   0.16245   0.20873   0.22835
 Alpha virt. eigenvalues --    0.24317   0.26348   0.27019   0.27764   0.28311
 Alpha virt. eigenvalues --    0.28521   0.30707   0.31409   0.31948   0.32233

 Mulliken charges:
               1
     1  C   -0.296803
     2  C   -0.300836
     3  C   -0.474373
     4  H    0.142749
     5  H    0.148214
     6  H    0.152089
     7  H    0.153549
     8  H    0.155308
     9  H    0.150553
    10  H    0.157801
    11  C   -0.304705
    12  C   -0.296323
    13  C   -0.482524
    14  H    0.156696
    15  H    0.150956
    16  H    0.143415
    17  H    0.148810
    18  H    0.154051
    19  H    0.175290
    20  H    0.155353
    21  C   -0.170302
    22  C   -0.217525
    23  C   -0.171744
    24  C    0.158519
    25  C   -0.171603
    26  C   -0.218643
    27  H    0.226790
    28  H    0.224607
    29  H    0.276492
    30  H    0.276476
    31  H    0.224583
    32  N    0.489359
    33  O   -0.459661
    34  O   -0.456618
 Sum of Mulliken charges =  -0.00000

 Dipole moment (field-independent basis, Debye):
    X=             -2.5175    Y=              3.8518    Z=              2.2322  Tot=              5.1144
 Quadrupole moment (field-independent basis, Debye-Ang):
   XX=            -85.5289   YY=           -103.5286   ZZ=            -91.3703
   XY=             -5.1227   XZ=             -2.0865   YZ=             -2.8624

 Normal termination of Gaussian 16 at Thu May  6 09:02:35 2021.
