 Gaussian 16, Revision A.03,
 Gaussian 16:  EM64L-G16RevA.03 25-Dec-2016

 -------------
 #p 6-31g* mp2
 -------------

 ------------------------------------------------------
 Input file generated by CHIRIPA (05-May-2021 14:53:14)
 ------------------------------------------------------
 Symbolic Z-matrix:
 Charge =  0 Multiplicity = 1

                         Standard orientation:
 ---------------------------------------------------------------------
 Center     Atomic      Atomic             Coordinates (Angstroms)
 Number     Number       Type             X           Y           Z
 ---------------------------------------------------------------------
      1          6           0       -4.118444   -0.634456   -0.118578
      2          6           0       -4.672142    0.789536   -0.058155
      3          6           0       -6.199673    0.828033   -0.003734
      4          1           0       -4.531132   -1.144443   -0.999797
      5          1           0       -4.469216   -1.194365    0.759406
      6          1           0       -4.319298    1.347001   -0.935281
      7          1           0       -4.257938    1.296255    0.822917
      8          1           0       -6.567214    0.295904    0.879642
      9          1           0       -6.628923    0.346938   -0.888546
     10          1           0       -6.574101    1.855573    0.038991
     11          6           0       -2.592763   -0.689398   -0.173409
     12          6           0       -2.039065   -2.113390   -0.233833
     13          6           0       -0.511535   -2.151888   -0.288254
     14          1           0       -2.241991   -0.129489   -1.051394
     15          1           0       -2.180075   -0.179411    0.707810
     16          1           0       -2.453269   -2.620109   -1.114905
     17          1           0       -2.391909   -2.670855    0.643293
     18          1           0       -0.082284   -1.670793    0.596558
     19          1           0       -0.143993   -1.619758   -1.171630
     20          1           0       -0.137106   -3.179428   -0.330979
     21          6           0        0.965246    2.412243    0.290356
     22          6           0        1.934532    2.421252   -0.718072
     23          6           0        2.857325    1.376499   -0.825264
     24          6           0        2.781692    0.333918    0.097014
     25          6           0        1.827706    0.296324    1.112783
     26          6           0        0.915016    1.351678    1.200959
     27          1           0        0.252323    3.227949    0.366239
     28          1           0        1.975909    3.243599   -1.426647
     29          1           0        3.618069    1.358223   -1.596206
     30          1           0        1.811395   -0.537160    1.804488
     31          1           0        0.163341    1.342034    1.985138
     32          7           0        3.753264   -0.777726   -0.006400
     33          8           0        3.665579   -1.684650    0.818486
     34          8           0        4.584070   -0.721061   -0.910384
 ---------------------------------------------------------------------

 SCF Done:  E(RHF) =  -669.534355090     A.U. after   15 cycles
 E2 =    -0.2093172227D+01 EUMP2 =    -0.67162752731640D+03

 The electronic state is 1-A.
 Alpha  occ. eigenvalues --  -20.60734 -20.60725 -15.85787 -11.31151 -11.27750
 Alpha  occ. eigenvalues --  -11.27745 -11.27493 -11.26751 -11.26741 -11.22085
 Alpha  occ. eigenvalues --  -11.21817 -11.21773 -11.21726 -11.21471 -11.21078
 Alpha  occ. eigenvalues --   -1.59806  -1.39359  -1.19348  -1.08789  -1.08730
 Alpha  occ. eigenvalues --   -1.04770  -1.03828  -0.96272  -0.95567  -0.87291
 Alpha  occ. eigenvalues --   -0.86148  -0.82408  -0.79912  -0.78617  -0.77446
 Alpha  occ. eigenvalues --   -0.72007  -0.71127  -0.70468  -0.65430  -0.65002
 Alpha  occ. eigenvalues --   -0.64771  -0.62148  -0.61216  -0.59638  -0.57898
 Alpha  occ. eigenvalues --   -0.55585  -0.55248  -0.53278  -0.52940  -0.52870
 Alpha  occ. eigenvalues --   -0.52495  -0.50211  -0.48766  -0.48760  -0.48199
 Alpha  occ. eigenvalues --   -0.46958  -0.46151  -0.46075  -0.44758  -0.44087
 Alpha  occ. eigenvalues --   -0.37310  -0.36262
 Alpha virt. eigenvalues --    0.05070   0.11205   0.16475   0.20570   0.22717
 Alpha virt. eigenvalues --    0.24031   0.25523   0.26772   0.26910   0.28485
 Alpha virt. eigenvalues --    0.28624   0.30445   0.31315   0.31602   0.31757

 Mulliken charges:
               1
     1  C   -0.298452
     2  C   -0.298929
     3  C   -0.475702
     4  H    0.151754
     5  H    0.150176
     6  H    0.150908
     7  H    0.147301
     8  H    0.156114
     9  H    0.156823
    10  H    0.159929
    11  C   -0.296409
    12  C   -0.301014
    13  C   -0.474460
    14  H    0.149974
    15  H    0.141436
    16  H    0.153471
    17  H    0.151722
    18  H    0.149863
    19  H    0.155658
    20  H    0.166572
    21  C   -0.170326
    22  C   -0.219087
    23  C   -0.171481
    24  C    0.159681
    25  C   -0.169509
    26  C   -0.216008
    27  H    0.225893
    28  H    0.223216
    29  H    0.275551
    30  H    0.275426
    31  H    0.222914
    32  N    0.488284
    33  O   -0.460433
    34  O   -0.460855
 Sum of Mulliken charges =  -0.00000

 Dipole moment (field-independent basis, Debye):
    X=             -3.4154    Y=              3.8541    Z=              0.3052  Tot=              5.1587
 Quadrupole moment (field-independent basis, Debye-Ang):
   XX=           -114.7800   YY=            -91.5902   ZZ=            -90.8429
   XY=             11.1561   XZ=             -1.0433   YZ=             -1.5294

 Normal termination of Gaussian 16 at Thu May  6 08:57:33 2021.
