 Gaussian 16, Revision A.03,
 Gaussian 16:  EM64L-G16RevA.03 25-Dec-2016

 -------------
 #p 6-31g* mp2
 -------------

 ------------------------------------------------------
 Input file generated by CHIRIPA (05-May-2021 14:51:10)
 ------------------------------------------------------
 Symbolic Z-matrix:
 Charge =  0 Multiplicity = 1

                         Standard orientation:
 ---------------------------------------------------------------------
 Center     Atomic      Atomic             Coordinates (Angstroms)
 Number     Number       Type             X           Y           Z
 ---------------------------------------------------------------------
      1          6           0        4.067001   -0.486623   -0.459277
      2          6           0        3.921655   -1.761645    0.372095
      3          6           0        4.734985   -2.928753   -0.188394
      4          1           0        3.752823   -0.691936   -1.491790
      5          1           0        5.128461   -0.206322   -0.505423
      6          1           0        2.860630   -2.038685    0.417813
      7          1           0        4.236034   -1.553223    1.402794
      8          1           0        5.799999   -2.676865   -0.218352
      9          1           0        4.416780   -3.165087   -1.208929
     10          1           0        4.616534   -3.829990    0.421197
     11          6           0        3.259804    0.689036    0.088433
     12          6           0        3.405150    1.964057   -0.742938
     13          6           0        2.591820    3.131165   -0.182450
     14          1           0        2.198344    0.408735    0.134579
     15          1           0        3.573982    0.894348    1.120947
     16          1           0        3.090771    1.755635   -1.773638
     17          1           0        4.466175    2.241098   -0.788657
     18          1           0        2.910025    3.367499    0.838086
     19          1           0        1.526805    2.879278   -0.152492
     20          1           0        2.710271    4.032403   -0.792040
     21          6           0       -4.412985    0.026193    0.258409
     22          6           0       -5.258674   -0.724493   -0.770798
     23          6           0       -6.756110   -0.459471   -0.611921
     24          1           0       -4.733042   -0.264121    1.268471
     25          1           0       -4.607349    1.103775    0.166571
     26          1           0       -5.061733   -1.800232   -0.677975
     27          1           0       -4.936436   -0.432503   -1.778528
     28          1           0       -6.972667    0.607658   -0.725673
     29          1           0       -7.098677   -0.767842    0.381133
     30          1           0       -7.341867   -1.005896   -1.357687
     31          6           0       -2.913820   -0.228605    0.112434
     32          6           0       -2.068131    0.522080    1.141642
     33          6           0       -0.570695    0.257058    0.982765
     34          1           0       -2.719455   -1.306188    0.204273
     35          1           0       -2.593762    0.061708   -0.897627
     36          1           0       -2.390369    0.230090    2.149372
     37          1           0       -2.265071    1.597820    1.048819
     38          1           0       -0.228129    0.565429   -0.010290
     39          1           0       -0.354138   -0.810071    1.096517
     40          1           0        0.015062    0.803484    1.728531
 ---------------------------------------------------------------------

 SCF Done:  E(RHF) =  -470.732852152     A.U. after   11 cycles
 E2 =    -0.1583211764D+01 EUMP2 =    -0.47231606391583D+03

 The electronic state is 1-A.
 Alpha  occ. eigenvalues --  -11.21650 -11.21629 -11.21532 -11.21518 -11.21448
 Alpha  occ. eigenvalues --  -11.21386 -11.21289 -11.21172 -11.21154 -11.21092
 Alpha  occ. eigenvalues --  -11.21021 -11.21007  -1.08477  -1.08331  -1.03585
 Alpha  occ. eigenvalues --   -1.03452  -0.96042  -0.95897  -0.87074  -0.86910
 Alpha  occ. eigenvalues --   -0.79696  -0.79491  -0.78310  -0.78100  -0.65124
 Alpha  occ. eigenvalues --   -0.64959  -0.61042  -0.60803  -0.59422  -0.59243
 Alpha  occ. eigenvalues --   -0.57650  -0.57505  -0.55327  -0.55198  -0.52784
 Alpha  occ. eigenvalues --   -0.52595  -0.52488  -0.52289  -0.50006  -0.49844
 Alpha  occ. eigenvalues --   -0.47993  -0.47825  -0.46758  -0.46479  -0.45943
 Alpha  occ. eigenvalues --   -0.45753  -0.45672  -0.45403  -0.43776  -0.43689
 Alpha virt. eigenvalues --    0.21409   0.22983   0.23731   0.24753   0.25651
 Alpha virt. eigenvalues --    0.26552   0.27097   0.27499   0.28024   0.29594
 Alpha virt. eigenvalues --    0.30145   0.31072   0.31688   0.32014   0.32159

 Mulliken charges:
               1
     1  C   -0.297366
     2  C   -0.299842
     3  C   -0.475617
     4  H    0.148886
     5  H    0.148900
     6  H    0.152089
     7  H    0.151705
     8  H    0.155083
     9  H    0.155000
    10  H    0.159876
    11  C   -0.309985
    12  C   -0.298872
    13  C   -0.478002
    14  H    0.165835
    15  H    0.148136
    16  H    0.150824
    17  H    0.151457
    18  H    0.154776
    19  H    0.157334
    20  H    0.159661
    21  C   -0.298339
    22  C   -0.299662
    23  C   -0.475737
    24  H    0.149805
    25  H    0.149682
    26  H    0.151946
    27  H    0.151933
    28  H    0.155258
    29  H    0.155243
    30  H    0.160339
    31  C   -0.298563
    32  C   -0.300622
    33  C   -0.479079
    34  H    0.149516
    35  H    0.149529
    36  H    0.152311
    37  H    0.152356
    38  H    0.155040
    39  H    0.155586
    40  H    0.163579
 Sum of Mulliken charges =  -0.00000

 Dipole moment (field-independent basis, Debye):
    X=             -0.0676    Y=             -0.0090    Z=              0.0268  Tot=              0.0733
 Quadrupole moment (field-independent basis, Debye-Ang):
   XX=            -85.9318   YY=            -85.0793   ZZ=            -84.1191
   XY=              0.8487   XZ=              0.5853   YZ=             -0.5968

 Normal termination of Gaussian 16 at Thu May  6 05:23:14 2021.
