 Gaussian 16, Revision A.03,
 Gaussian 16:  EM64L-G16RevA.03 25-Dec-2016

 -------------
 #p 6-31g* mp2
 -------------

 ------------------------------------------------------
 Input file generated by CHIRIPA (05-May-2021 14:55:25)
 ------------------------------------------------------
 Symbolic Z-matrix:
 Charge =  0 Multiplicity = 1

                         Standard orientation:
 ---------------------------------------------------------------------
 Center     Atomic      Atomic             Coordinates (Angstroms)
 Number     Number       Type             X           Y           Z
 ---------------------------------------------------------------------
      1          6           0        4.053140    1.515635   -1.211436
      2          6           0        2.705342    1.674122   -0.872552
      3          6           0        2.010427    0.647810   -0.225771
      4          6           0        2.697433   -0.528952    0.068412
      5          6           0        4.040000   -0.717041   -0.256284
      6          6           0        4.715000    0.322663   -0.902765
      7          1           0        4.585231    2.318101   -1.713755
      8          1           0        2.188781    2.599506   -1.111035
      9          1           0        0.966761    0.743871    0.048003
     10          1           0        4.528056   -1.651035   -0.005537
     11          1           0        5.761693    0.196788   -1.164750
     12          7           0        1.972299   -1.622551    0.752971
     13          8           0        2.600244   -2.649549    1.001159
     14          8           0        0.789725   -1.432008    1.028379
     15          6           0       -3.435126    0.991224    0.564249
     16          6           0       -1.968644    1.422023    0.521483
     17          6           0       -1.642894    2.512670    1.542351
     18          1           0       -4.073362    1.866985    0.383581
     19          1           0       -3.675349    0.632501    1.574696
     20          1           0       -1.730889    1.778531   -0.488957
     21          1           0       -1.333819    0.545098    0.702085
     22          1           0       -1.852341    2.163908    2.558765
     23          1           0       -2.251667    3.404349    1.360957
     24          1           0       -0.589444    2.805615    1.494523
     25          6           0       -3.776251   -0.098518   -0.450555
     26          6           0       -5.242733   -0.529316   -0.407790
     27          6           0       -5.568483   -1.619963   -1.428657
     28          1           0       -3.536027    0.260206   -1.461003
     29          1           0       -3.138014   -0.974278   -0.269887
     30          1           0       -5.877558    0.347609   -0.588390
     31          1           0       -5.480488   -0.885824    0.602651
     32          1           0       -4.959709   -2.511642   -1.247263
     33          1           0       -5.359035   -1.271201   -2.445071
     34          1           0       -6.621932   -1.912908   -1.380829
 ---------------------------------------------------------------------

 SCF Done:  E(RHF) =  -669.535965147     A.U. after   15 cycles
 E2 =    -0.2092172272D+01 EUMP2 =    -0.67162813741921D+03

 The electronic state is 1-A.
 Alpha  occ. eigenvalues --  -20.60870 -20.60862 -15.85910 -11.31190 -11.27770
 Alpha  occ. eigenvalues --  -11.27708 -11.27507 -11.26773 -11.26752 -11.21511
 Alpha  occ. eigenvalues --  -11.21286 -11.21183 -11.21175 -11.21015 -11.20753
 Alpha  occ. eigenvalues --   -1.59935  -1.39492  -1.19366  -1.08780  -1.08202
 Alpha  occ. eigenvalues --   -1.04760  -1.03371  -0.95819  -0.95622  -0.86827
 Alpha  occ. eigenvalues --   -0.86165  -0.82462  -0.79467  -0.78039  -0.77477
 Alpha  occ. eigenvalues --   -0.72138  -0.71248  -0.70483  -0.65036  -0.64856
 Alpha  occ. eigenvalues --   -0.64717  -0.62148  -0.60733  -0.59199  -0.57438
 Alpha  occ. eigenvalues --   -0.55267  -0.55070  -0.53096  -0.52852  -0.52534
 Alpha  occ. eigenvalues --   -0.52245  -0.49736  -0.48918  -0.48878  -0.47740
 Alpha  occ. eigenvalues --   -0.46413  -0.45547  -0.45409  -0.44911  -0.43603
 Alpha  occ. eigenvalues --   -0.37353  -0.36358
 Alpha virt. eigenvalues --    0.05009   0.11287   0.16507   0.20469   0.23228
 Alpha virt. eigenvalues --    0.24035   0.26358   0.26794   0.27703   0.28080
 Alpha virt. eigenvalues --    0.29545   0.30596   0.31578   0.31706   0.32083

 Mulliken charges:
               1
     1  C   -0.170063
     2  C   -0.224310
     3  C   -0.177239
     4  C    0.154615
     5  C   -0.169536
     6  C   -0.219401
     7  H    0.225670
     8  H    0.224184
     9  H    0.294536
    10  H    0.275480
    11  H    0.223430
    12  N    0.490695
    13  O   -0.459517
    14  O   -0.466900
    15  C   -0.295110
    16  C   -0.322173
    17  C   -0.474811
    18  H    0.147139
    19  H    0.153215
    20  H    0.142860
    21  H    0.177468
    22  H    0.161514
    23  H    0.154683
    24  H    0.150534
    25  C   -0.301096
    26  C   -0.299682
    27  C   -0.475956
    28  H    0.145972
    29  H    0.159861
    30  H    0.149730
    31  H    0.153283
    32  H    0.158100
    33  H    0.153529
    34  H    0.159297
 Sum of Mulliken charges =  -0.00000

 Dipole moment (field-independent basis, Debye):
    X=              2.5500    Y=              3.6860    Z=             -2.3298  Tot=              5.0515
 Quadrupole moment (field-independent basis, Debye-Ang):
   XX=            -77.8039   YY=            -98.1879   ZZ=            -95.8818
   XY=              6.3248   XZ=             -6.9890   YZ=              0.4495

 Normal termination of Gaussian 16 at Thu May  6 01:37:53 2021.
