 Gaussian 16, Revision A.03,
 Gaussian 16:  EM64L-G16RevA.03 25-Dec-2016

 -------------
 #p 6-31g* mp2
 -------------

 ------------------------------------------------------
 Input file generated by CHIRIPA (05-May-2021 14:51:12)
 ------------------------------------------------------
 Symbolic Z-matrix:
 Charge =  0 Multiplicity = 1

                         Standard orientation:
 ---------------------------------------------------------------------
 Center     Atomic      Atomic             Coordinates (Angstroms)
 Number     Number       Type             X           Y           Z
 ---------------------------------------------------------------------
      1          6           0       -3.791801    0.054243    0.282272
      2          6           0       -4.907593    0.164174   -0.757396
      3          6           0       -5.945003    1.229269   -0.400819
      4          1           0       -4.233279   -0.175265    1.261746
      5          1           0       -3.296930    1.030087    0.383396
      6          1           0       -5.399309   -0.811943   -0.857534
      7          1           0       -4.463391    0.393258   -1.734546
      8          1           0       -5.473900    2.214263   -0.320513
      9          1           0       -6.415135    1.002215    0.561482
     10          1           0       -6.733424    1.290958   -1.157422
     11          6           0       -2.746996   -1.006333   -0.060202
     12          6           0       -1.631204   -1.116264    0.979466
     13          6           0       -0.593794   -2.181358    0.622889
     14          1           0       -3.241867   -1.982176   -0.161326
     15          1           0       -2.305518   -0.776824   -1.039676
     16          1           0       -2.075406   -1.345348    1.956615
     17          1           0       -1.139488   -0.140147    1.079604
     18          1           0       -0.123662   -1.954304   -0.339412
     19          1           0       -1.064897   -3.166352    0.542583
     20          1           0        0.194627   -2.243048    1.379491
     21          6           0        2.808993    1.031057    0.140800
     22          6           0        3.340085    2.436032   -0.145508
     23          6           0        2.407983    3.535616    0.364291
     24          1           0        1.819204    0.918648   -0.322479
     25          1           0        2.662193    0.915722    1.223640
     26          1           0        3.487149    2.548212   -1.227359
     27          1           0        4.328808    2.545044    0.318345
     28          1           0        2.269705    3.452051    1.447109
     29          1           0        1.423264    3.455238   -0.107377
     30          1           0        2.806929    4.531806    0.149100
     31          6           0        3.729804   -0.078968   -0.362870
     32          6           0        3.198712   -1.483942   -0.076562
     33          6           0        4.130814   -2.583527   -0.586360
     34          1           0        3.876603    0.036369   -1.445710
     35          1           0        4.719592    0.033442    0.100408
     36          1           0        2.209989   -1.592954   -0.540414
     37          1           0        3.051648   -1.596123    1.005290
     38          1           0        5.115533   -2.503148   -0.114693
     39          1           0        4.269091   -2.499962   -1.669179
     40          1           0        3.731868   -3.579717   -0.371169
 ---------------------------------------------------------------------

 SCF Done:  E(RHF) =  -470.732795218     A.U. after   11 cycles
 E2 =    -0.1583112331D+01 EUMP2 =    -0.47231590754880D+03

 The electronic state is 1-A.
 Alpha  occ. eigenvalues --  -11.21615 -11.21602 -11.21573 -11.21496 -11.21402
 Alpha  occ. eigenvalues --  -11.21401 -11.21342 -11.21330 -11.21094 -11.21070
 Alpha  occ. eigenvalues --  -11.21017 -11.21009  -1.08436  -1.08403  -1.03544
 Alpha  occ. eigenvalues --   -1.03481  -0.95982  -0.95950  -0.87030  -0.86939
 Alpha  occ. eigenvalues --   -0.79693  -0.79470  -0.78260  -0.78200  -0.65121
 Alpha  occ. eigenvalues --   -0.64992  -0.61022  -0.60821  -0.59424  -0.59245
 Alpha  occ. eigenvalues --   -0.57576  -0.57572  -0.55303  -0.55225  -0.52721
 Alpha  occ. eigenvalues --   -0.52610  -0.52399  -0.52373  -0.50043  -0.49830
 Alpha  occ. eigenvalues --   -0.47920  -0.47874  -0.46770  -0.46443  -0.45860
 Alpha  occ. eigenvalues --   -0.45730  -0.45707  -0.45525  -0.43795  -0.43717
 Alpha virt. eigenvalues --    0.21282   0.23212   0.23832   0.24352   0.25599
 Alpha virt. eigenvalues --    0.26483   0.27164   0.27501   0.27948   0.29449
 Alpha virt. eigenvalues --    0.30085   0.31027   0.31667   0.32085   0.32281

 Mulliken charges:
               1
     1  C   -0.298270
     2  C   -0.299619
     3  C   -0.475705
     4  H    0.149725
     5  H    0.149547
     6  H    0.151927
     7  H    0.151758
     8  H    0.155217
     9  H    0.155214
    10  H    0.160225
    11  C   -0.298390
    12  C   -0.300809
    13  C   -0.477746
    14  H    0.149536
    15  H    0.149087
    16  H    0.151762
    17  H    0.152979
    18  H    0.156340
    19  H    0.154384
    20  H    0.162959
    21  C   -0.298807
    22  C   -0.299598
    23  C   -0.475639
    24  H    0.149319
    25  H    0.149551
    26  H    0.151887
    27  H    0.152178
    28  H    0.155273
    29  H    0.154629
    30  H    0.160375
    31  C   -0.298149
    32  C   -0.304447
    33  C   -0.475617
    34  H    0.149034
    35  H    0.149386
    36  H    0.159502
    37  H    0.151175
    38  H    0.154695
    39  H    0.154635
    40  H    0.160498
 Sum of Mulliken charges =  -0.00000

 Dipole moment (field-independent basis, Debye):
    X=             -0.0038    Y=             -0.0119    Z=              0.0109  Tot=              0.0166
 Quadrupole moment (field-independent basis, Debye-Ang):
   XX=            -85.4140   YY=            -85.6711   ZZ=            -83.8149
   XY=              1.5117   XZ=              0.4484   YZ=             -0.7465

 Normal termination of Gaussian 16 at Wed May  5 19:56:24 2021.
