 Gaussian 16, Revision A.03,
 Gaussian 16:  EM64L-G16RevA.03 25-Dec-2016

 -------------
 #p 6-31g* mp2
 -------------

 ------------------------------------------------------
 Input file generated by CHIRIPA (05-May-2021 14:51:10)
 ------------------------------------------------------
 Symbolic Z-matrix:
 Charge =  0 Multiplicity = 1

                         Standard orientation:
 ---------------------------------------------------------------------
 Center     Atomic      Atomic             Coordinates (Angstroms)
 Number     Number       Type             X           Y           Z
 ---------------------------------------------------------------------
      1          6           0       -3.839275    0.136135    0.318254
      2          6           0       -4.749216    0.639328   -0.802812
      3          6           0       -5.730009    1.713214   -0.330997
      4          1           0       -4.458533   -0.263340    1.133045
      5          1           0       -3.281335    0.985071    0.737069
      6          1           0       -5.304250   -0.210522   -1.220315
      7          1           0       -4.127715    1.037477   -1.615111
      8          1           0       -5.191053    2.579093    0.066973
      9          1           0       -6.374273    1.324004    0.464013
     10          1           0       -6.370737    2.058708   -1.148286
     11          6           0       -2.853186   -0.937783   -0.137878
     12          6           0       -1.943246   -1.440976    0.983188
     13          6           0       -0.962453   -2.514862    0.511373
     14          1           0       -3.411126   -1.786719   -0.556693
     15          1           0       -2.233929   -0.538308   -0.952669
     16          1           0       -2.564747   -1.839125    1.795487
     17          1           0       -1.388211   -0.591126    1.400691
     18          1           0       -0.318189   -2.125652   -0.283637
     19          1           0       -1.501409   -3.380741    0.113403
     20          1           0       -0.321725   -2.860356    1.328662
     21          6           0        3.694750   -0.213093   -0.381859
     22          6           0        2.996846   -1.528581   -0.034863
     23          6           0        3.705912   -2.747674   -0.625481
     24          1           0        3.751394   -0.112503   -1.474387
     25          1           0        4.730653   -0.248330   -0.017087
     26          1           0        1.962154   -1.490330   -0.398960
     27          1           0        2.941686   -1.625960    1.056967
     28          1           0        4.733287   -2.813734   -0.253008
     29          1           0        3.748190   -2.677333   -1.717207
     30          1           0        3.190223   -3.677267   -0.365129
     31          6           0        2.997711    1.014741    0.201482
     32          6           0        3.695616    2.330229   -0.145513
     33          6           0        2.986550    3.549322    0.445105
     34          1           0        1.961808    1.049978   -0.163289
     35          1           0        2.941068    0.914152    1.294011
     36          1           0        3.750776    2.427607   -1.237342
     37          1           0        4.730308    2.291979    0.218584
     38          1           0        2.944271    3.478981    1.536831
     39          1           0        1.959175    3.615381    0.072632
     40          1           0        3.502239    4.478915    0.184753
 ---------------------------------------------------------------------

 SCF Done:  E(RHF) =  -470.733130387     A.U. after   11 cycles
 E2 =    -0.1582662041D+01 EUMP2 =    -0.47231579242810D+03

 The electronic state is 1-A.
 Alpha  occ. eigenvalues --  -11.21617 -11.21610 -11.21593 -11.21538 -11.21413
 Alpha  occ. eigenvalues --  -11.21410 -11.21354 -11.21343 -11.21093 -11.21076
 Alpha  occ. eigenvalues --  -11.21041 -11.21033  -1.08441  -1.08420  -1.03550
 Alpha  occ. eigenvalues --   -1.03500  -0.95995  -0.95957  -0.87019  -0.86968
 Alpha  occ. eigenvalues --   -0.79665  -0.79516  -0.78270  -0.78216  -0.65123
 Alpha  occ. eigenvalues --   -0.65012  -0.61049  -0.60819  -0.59385  -0.59300
 Alpha  occ. eigenvalues --   -0.57598  -0.57575  -0.55333  -0.55208  -0.52692
 Alpha  occ. eigenvalues --   -0.52641  -0.52419  -0.52386  -0.50049  -0.49835
 Alpha  occ. eigenvalues --   -0.47973  -0.47843  -0.46784  -0.46460  -0.45859
 Alpha  occ. eigenvalues --   -0.45754  -0.45732  -0.45546  -0.43795  -0.43761
 Alpha virt. eigenvalues --    0.21505   0.23195   0.23641   0.24677   0.25925
 Alpha virt. eigenvalues --    0.26793   0.27067   0.27570   0.27973   0.29005
 Alpha virt. eigenvalues --    0.30289   0.31261   0.31711   0.31908   0.32420

 Mulliken charges:
               1
     1  C   -0.298334
     2  C   -0.299630
     3  C   -0.475718
     4  H    0.149750
     5  H    0.149619
     6  H    0.151947
     7  H    0.151755
     8  H    0.155235
     9  H    0.155227
    10  H    0.160254
    11  C   -0.298253
    12  C   -0.300111
    13  C   -0.478889
    14  H    0.149586
    15  H    0.148982
    16  H    0.151930
    17  H    0.152547
    18  H    0.158499
    19  H    0.154807
    20  H    0.161036
    21  C   -0.297949
    22  C   -0.305050
    23  C   -0.475725
    24  H    0.149294
    25  H    0.149444
    26  H    0.158365
    27  H    0.151559
    28  H    0.154925
    29  H    0.154733
    30  H    0.160926
    31  C   -0.298042
    32  C   -0.299616
    33  C   -0.475669
    34  H    0.148411
    35  H    0.149709
    36  H    0.151927
    37  H    0.152124
    38  H    0.155215
    39  H    0.154817
    40  H    0.160364
 Sum of Mulliken charges =  -0.00000

 Dipole moment (field-independent basis, Debye):
    X=             -0.0057    Y=             -0.0129    Z=              0.0101  Tot=              0.0174
 Quadrupole moment (field-independent basis, Debye-Ang):
   XX=            -84.8039   YY=            -85.8232   ZZ=            -84.1751
   XY=              1.4444   XZ=              0.6219   YZ=             -0.7473

 Normal termination of Gaussian 16 at Wed May  5 21:25:00 2021.
