 Gaussian 16, Revision A.03,
 Gaussian 16:  EM64L-G16RevA.03 25-Dec-2016

 -------------
 #p 6-31g* mp2
 -------------

 ------------------------------------------------------
 Input file generated by CHIRIPA (05-May-2021 14:55:23)
 ------------------------------------------------------
 Symbolic Z-matrix:
 Charge =  0 Multiplicity = 1

                         Standard orientation:
 ---------------------------------------------------------------------
 Center     Atomic      Atomic             Coordinates (Angstroms)
 Number     Number       Type             X           Y           Z
 ---------------------------------------------------------------------
      1          6           0        0.507373   -0.877753   -0.026052
      2          6           0        0.849265    0.435563   -0.364920
      3          6           0        2.186623    0.843015   -0.367244
      4          6           0        3.160807   -0.093167   -0.023995
      5          6           0        2.851907   -1.408740    0.318259
      6          6           0        1.508021   -1.794097    0.313857
      7          1           0       -0.534054   -1.185690   -0.026859
      8          1           0        0.074256    1.149354   -0.629323
      9          1           0        2.479306    1.853489   -0.625499
     10          1           0        3.646680   -2.097668    0.577356
     11          1           0        1.245439   -2.814691    0.577456
     12          7           0        4.580063    0.326489   -0.022896
     13          8           0        5.419572   -0.517381    0.283283
     14          8           0        4.826093    1.491339   -0.328233
     15          6           0       -3.750368    0.905486   -0.279906
     16          6           0       -3.387589    2.012587    0.710397
     17          6           0       -3.399780    3.402618    0.073640
     18          1           0       -3.045778    0.930594   -1.122443
     19          1           0       -4.745638    1.109302   -0.698582
     20          1           0       -2.393883    1.806007    1.128116
     21          1           0       -4.093008    1.984718    1.550768
     22          1           0       -4.391894    3.633980   -0.327336
     23          1           0       -2.683115    3.454254   -0.752390
     24          1           0       -3.137637    4.178909    0.799251
     25          6           0       -3.742486   -0.489918    0.341799
     26          6           0       -4.105265   -1.597019   -0.648506
     27          6           0       -4.093075   -2.987050   -0.011747
     28          1           0       -2.747216   -0.693734    0.760475
     29          1           0       -4.447077   -0.515025    1.184336
     30          1           0       -3.399846   -1.569150   -1.488877
     31          1           0       -5.098971   -1.390439   -1.066223
     32          1           0       -4.809739   -3.038686    0.814282
     33          1           0       -3.100960   -3.218412    0.389229
     34          1           0       -4.355217   -3.763341   -0.737360
 ---------------------------------------------------------------------

 SCF Done:  E(RHF) =  -669.535450972     A.U. after   15 cycles
 E2 =    -0.2091983176D+01 EUMP2 =    -0.67162743414751D+03

 The electronic state is 1-A.
 Alpha  occ. eigenvalues --  -20.60760 -20.60755 -15.85814 -11.31187 -11.27758
 Alpha  occ. eigenvalues --  -11.27754 -11.27480 -11.26776 -11.26764 -11.22710
 Alpha  occ. eigenvalues --  -11.22609 -11.22592 -11.22492 -11.22119 -11.21935
 Alpha  occ. eigenvalues --   -1.59836  -1.39389  -1.19360  -1.09562  -1.08751
 Alpha  occ. eigenvalues --   -1.04764  -1.04572  -0.97018  -0.95588  -0.88027
 Alpha  occ. eigenvalues --   -0.86161  -0.82422  -0.80621  -0.79364  -0.77466
 Alpha  occ. eigenvalues --   -0.72032  -0.71159  -0.70510  -0.66244  -0.65009
 Alpha  occ. eigenvalues --   -0.64735  -0.62156  -0.61943  -0.60372  -0.58614
 Alpha  occ. eigenvalues --   -0.56361  -0.55249  -0.53664  -0.53419  -0.53091
 Alpha  occ. eigenvalues --   -0.52856  -0.50967  -0.48932  -0.48787  -0.48785
 Alpha  occ. eigenvalues --   -0.47678  -0.46874  -0.46850  -0.44842  -0.44793
 Alpha  occ. eigenvalues --   -0.37336  -0.36368
 Alpha virt. eigenvalues --    0.05058   0.11242   0.16502   0.17338   0.21434
 Alpha virt. eigenvalues --    0.23575   0.25184   0.26133   0.26855   0.27688
 Alpha virt. eigenvalues --    0.29425   0.30360   0.30844   0.31573   0.32602

 Mulliken charges:
               1
     1  C   -0.177463
     2  C   -0.223661
     3  C   -0.170776
     4  C    0.158556
     5  C   -0.170652
     6  C   -0.219795
     7  H    0.235144
     8  H    0.225896
     9  H    0.275794
    10  H    0.275628
    11  H    0.223763
    12  N    0.488008
    13  O   -0.460386
    14  O   -0.460392
    15  C   -0.299924
    16  C   -0.302530
    17  C   -0.476030
    18  H    0.144610
    19  H    0.155254
    20  H    0.149662
    21  H    0.156575
    22  H    0.158729
    23  H    0.151826
    24  H    0.164495
    25  C   -0.302946
    26  C   -0.302384
    27  C   -0.474980
    28  H    0.141932
    29  H    0.156281
    30  H    0.150016
    31  H    0.157501
    32  H    0.159413
    33  H    0.148233
    34  H    0.164603
 Sum of Mulliken charges =  -0.00000

 Dipole moment (field-independent basis, Debye):
    X=             -5.2775    Y=             -1.4415    Z=              0.0212  Tot=              5.4708
 Quadrupole moment (field-independent basis, Debye-Ang):
   XX=           -124.1402   YY=            -91.0394   ZZ=            -95.2244
   XY=             -5.8924   XZ=              0.2307   YZ=             -1.0146

 Normal termination of Gaussian 16 at Thu May  6 20:49:03 2021.
