 Gaussian 16, Revision A.03,
 Gaussian 16:  EM64L-G16RevA.03 25-Dec-2016

 -------------
 #p 6-31g* mp2
 -------------

 ------------------------------------------------------
 Input file generated by CHIRIPA (05-May-2021 14:55:20)
 ------------------------------------------------------
 Symbolic Z-matrix:
 Charge =  0 Multiplicity = 1

                         Standard orientation:
 ---------------------------------------------------------------------
 Center     Atomic      Atomic             Coordinates (Angstroms)
 Number     Number       Type             X           Y           Z
 ---------------------------------------------------------------------
      1          6           0        3.291576    2.522462    0.448929
      2          6           0        4.256613    1.922953   -0.367046
      3          6           0        4.147118    0.575613   -0.723744
      4          6           0        3.054756   -0.145750   -0.244505
      5          6           0        2.076910    0.423116    0.570049
      6          6           0        2.206717    1.771953    0.914052
      7          1           0        3.384524    3.569689    0.721090
      8          1           0        5.100191    2.503368   -0.729730
      9          1           0        4.879785    0.086401   -1.354053
     10          1           0        1.247187   -0.181185    0.916167
     11          1           0        1.455744    2.234909    1.547895
     12          7           0        2.928087   -1.572911   -0.615405
     13          8           0        1.956261   -2.186722   -0.180174
     14          8           0        3.803029   -2.050685   -1.334326
     15          6           0       -3.436476   -0.002634    0.800920
     16          6           0       -2.574626   -1.229770    1.099817
     17          6           0       -1.578610   -0.990357    2.234906
     18          1           0       -2.783240    0.842848    0.545212
     19          1           0       -3.979388    0.286098    1.711565
     20          1           0       -2.034561   -1.516935    0.188509
     21          1           0       -3.229999   -2.072480    1.354656
     22          1           0       -2.103457   -0.725833    3.158574
     23          1           0       -0.901228   -0.167131    1.985801
     24          1           0       -0.972858   -1.880373    2.431874
     25          6           0       -4.437144   -0.226391   -0.331478
     26          6           0       -5.298994    1.000745   -0.630374
     27          6           0       -6.295010    0.761331   -1.765463
     28          1           0       -3.894232   -0.515123   -1.242123
     29          1           0       -5.090380   -1.071873   -0.075770
     30          1           0       -4.643622    1.843455   -0.885214
     31          1           0       -5.839059    1.287909    0.280934
     32          1           0       -6.972393   -0.061894   -1.516359
     33          1           0       -5.770164    0.496808   -2.689132
     34          1           0       -6.900762    1.651348   -1.962432
 ---------------------------------------------------------------------

 SCF Done:  E(RHF) =  -669.535601874     A.U. after   15 cycles
 E2 =    -0.2091191166D+01 EUMP2 =    -0.67162679304005D+03

 The electronic state is 1-A.
 Alpha  occ. eigenvalues --  -20.60768 -20.60763 -15.85818 -11.31161 -11.27742
 Alpha  occ. eigenvalues --  -11.27695 -11.27489 -11.26756 -11.26742 -11.21662
 Alpha  occ. eigenvalues --  -11.21611 -11.21494 -11.21393 -11.21358 -11.21093
 Alpha  occ. eigenvalues --   -1.59842  -1.39395  -1.19340  -1.08741  -1.08499
 Alpha  occ. eigenvalues --   -1.04744  -1.03614  -0.96092  -0.95576  -0.87113
 Alpha  occ. eigenvalues --   -0.86140  -0.82411  -0.79672  -0.78305  -0.77457
 Alpha  occ. eigenvalues --   -0.72039  -0.71164  -0.70460  -0.65149  -0.64994
 Alpha  occ. eigenvalues --   -0.64744  -0.62148  -0.60979  -0.59426  -0.57675
 Alpha  occ. eigenvalues --   -0.55486  -0.55177  -0.53074  -0.52877  -0.52729
 Alpha  occ. eigenvalues --   -0.52497  -0.50038  -0.48794  -0.48791  -0.47987
 Alpha  occ. eigenvalues --   -0.46696  -0.45860  -0.45760  -0.44805  -0.43855
 Alpha  occ. eigenvalues --   -0.37327  -0.36346
 Alpha virt. eigenvalues --    0.05072   0.11304   0.16564   0.19994   0.22903
 Alpha virt. eigenvalues --    0.23882   0.25848   0.26972   0.27427   0.27931
 Alpha virt. eigenvalues --    0.29214   0.30825   0.31607   0.31893   0.32006

 Mulliken charges:
               1
     1  C   -0.170585
     2  C   -0.219116
     3  C   -0.170188
     4  C    0.158806
     5  C   -0.180414
     6  C   -0.221760
     7  H    0.225543
     8  H    0.223380
     9  H    0.275472
    10  H    0.288371
    11  H    0.223419
    12  N    0.487496
    13  O   -0.460850
    14  O   -0.460383
    15  C   -0.297839
    16  C   -0.302236
    17  C   -0.477749
    18  H    0.144898
    19  H    0.148557
    20  H    0.161467
    21  H    0.154952
    22  H    0.155920
    23  H    0.138757
    24  H    0.171682
    25  C   -0.298732
    26  C   -0.299484
    27  C   -0.475816
    28  H    0.151962
    29  H    0.150967
    30  H    0.150399
    31  H    0.151323
    32  H    0.155879
    33  H    0.156113
    34  H    0.159788
 Sum of Mulliken charges =  -0.00000

 Dipole moment (field-independent basis, Debye):
    X=              0.3716    Y=              4.8897    Z=              1.2844  Tot=              5.0692
 Quadrupole moment (field-independent basis, Debye-Ang):
   XX=            -88.6314   YY=            -96.5533   ZZ=            -94.8360
   XY=             16.3774   XZ=              0.2452   YZ=             -1.9866

 Normal termination of Gaussian 16 at Thu May  6 09:17:08 2021.
