 Gaussian 16, Revision A.03,
 Gaussian 16:  EM64L-G16RevA.03 25-Dec-2016

 -------------
 #p 6-31g* mp2
 -------------

 ------------------------------------------------------
 Input file generated by CHIRIPA (05-May-2021 14:55:20)
 ------------------------------------------------------
 Symbolic Z-matrix:
 Charge =  0 Multiplicity = 1

                         Standard orientation:
 ---------------------------------------------------------------------
 Center     Atomic      Atomic             Coordinates (Angstroms)
 Number     Number       Type             X           Y           Z
 ---------------------------------------------------------------------
      1          6           0        2.074692   -1.688329    1.888211
      2          6           0        1.215883   -0.723913    1.350746
      3          6           0        1.637584    0.095479    0.299407
      4          6           0        2.930436   -0.077465   -0.192440
      5          6           0        3.809488   -1.029352    0.321825
      6          6           0        3.366477   -1.837707    1.372944
      7          1           0        1.738827   -2.320565    2.704831
      8          1           0        0.212128   -0.605674    1.748918
      9          1           0        0.993369    0.850025   -0.135410
     10          1           0        4.804413   -1.123717   -0.096072
     11          1           0        4.035603   -2.585854    1.788384
     12          7           0        3.388152    0.784147   -1.305329
     13          8           0        4.531942    0.611941   -1.720934
     14          8           0        2.594454    1.615368   -1.740933
     15          6           0       -3.623009   -0.354708   -0.410855
     16          6           0       -4.999020   -0.943927   -0.722942
     17          6           0       -4.919716   -2.215219   -1.568709
     18          1           0       -3.101693   -0.137908   -1.353283
     19          1           0       -3.019609   -1.108299    0.113933
     20          1           0       -5.600124   -0.188975   -1.245760
     21          1           0       -5.517198   -1.159170    0.220338
     22          1           0       -4.342615   -2.987590   -1.050058
     23          1           0       -4.426012   -2.011884   -2.524488
     24          1           0       -5.914567   -2.619550   -1.780005
     25          6           0       -3.685788    0.916547    0.433952
     26          6           0       -2.309777    1.505767    0.746040
     27          6           0       -2.389082    2.777059    1.591806
     28          1           0       -4.289188    1.670139   -0.090836
     29          1           0       -4.207106    0.699748    1.376382
     30          1           0       -1.791599    1.721010   -0.197241
     31          1           0       -1.708674    0.750815    1.268857
     32          1           0       -2.882785    2.573724    2.547585
     33          1           0       -2.966183    3.549431    1.073156
     34          1           0       -1.394230    3.181390    1.803103
 ---------------------------------------------------------------------

 SCF Done:  E(RHF) =  -669.535502941     A.U. after   15 cycles
 E2 =    -0.2091615177D+01 EUMP2 =    -0.67162711811794D+03

 The electronic state is 1-A.
 Alpha  occ. eigenvalues --  -20.60720 -20.60715 -15.85773 -11.31115 -11.27694
 Alpha  occ. eigenvalues --  -11.27657 -11.27437 -11.26709 -11.26670 -11.22463
 Alpha  occ. eigenvalues --  -11.22003 -11.21983 -11.21882 -11.21655 -11.21384
 Alpha  occ. eigenvalues --   -1.59796  -1.39350  -1.19290  -1.09007  -1.08693
 Alpha  occ. eigenvalues --   -1.04691  -1.04076  -0.96483  -0.95529  -0.87501
 Alpha  occ. eigenvalues --   -0.86093  -0.82369  -0.80183  -0.78826  -0.77397
 Alpha  occ. eigenvalues --   -0.71992  -0.71118  -0.70403  -0.65665  -0.64942
 Alpha  occ. eigenvalues --   -0.64692  -0.62085  -0.61446  -0.59854  -0.58104
 Alpha  occ. eigenvalues --   -0.55756  -0.55203  -0.53185  -0.53023  -0.52907
 Alpha  occ. eigenvalues --   -0.52796  -0.50419  -0.48757  -0.48748  -0.48460
 Alpha  occ. eigenvalues --   -0.47205  -0.46344  -0.46258  -0.44760  -0.44323
 Alpha  occ. eigenvalues --   -0.37279  -0.36290
 Alpha virt. eigenvalues --    0.05121   0.11356   0.16607   0.19500   0.22726
 Alpha virt. eigenvalues --    0.23754   0.24623   0.25570   0.27378   0.28317
 Alpha virt. eigenvalues --    0.29190   0.29603   0.31426   0.31459   0.32047

 Mulliken charges:
               1
     1  C   -0.171186
     2  C   -0.224384
     3  C   -0.175018
     4  C    0.158538
     5  C   -0.170711
     6  C   -0.218783
     7  H    0.225503
     8  H    0.229543
     9  H    0.279602
    10  H    0.275304
    11  H    0.223069
    12  N    0.488038
    13  O   -0.460709
    14  O   -0.460735
    15  C   -0.298934
    16  C   -0.300110
    17  C   -0.476076
    18  H    0.153435
    19  H    0.144442
    20  H    0.154139
    21  H    0.151682
    22  H    0.154117
    23  H    0.157423
    24  H    0.161642
    25  C   -0.297791
    26  C   -0.308978
    27  C   -0.475715
    28  H    0.154149
    29  H    0.150118
    30  H    0.157625
    31  H    0.142505
    32  H    0.155572
    33  H    0.160485
    34  H    0.162200
 Sum of Mulliken charges =  -0.00000

 Dipole moment (field-independent basis, Debye):
    X=             -1.8080    Y=             -2.9486    Z=              3.8545  Tot=              5.1788
 Quadrupole moment (field-independent basis, Debye-Ang):
   XX=            -99.8209   YY=            -94.0494   ZZ=            -96.6507
   XY=            -11.6259   XZ=             12.1134   YZ=             -0.8076

 Normal termination of Gaussian 16 at Thu May  6 06:09:11 2021.
