 Gaussian 16, Revision A.03,
 Gaussian 16:  EM64L-G16RevA.03 25-Dec-2016

 -------------
 #p 6-31g* mp2
 -------------

 ------------------------------------------------------
 Input file generated by CHIRIPA (05-May-2021 14:57:22)
 ------------------------------------------------------
 Symbolic Z-matrix:
 Charge =  0 Multiplicity = 1

                         Standard orientation:
 ---------------------------------------------------------------------
 Center     Atomic      Atomic             Coordinates (Angstroms)
 Number     Number       Type             X           Y           Z
 ---------------------------------------------------------------------
      1          6           0        1.738181    0.160148    1.715642
      2          6           0        1.717751   -0.882272    0.783192
      3          6           0        2.791888   -1.074213   -0.090843
      4          6           0        3.875177   -0.201099   -0.004544
      5          6           0        3.925108    0.846698    0.913561
      6          6           0        2.839852    1.019791    1.777741
      7          1           0        0.899448    0.301932    2.390786
      8          1           0        0.863505   -1.551420    0.732706
      9          1           0        2.802169   -1.873095   -0.822348
     10          1           0        4.790632    1.497531    0.940082
     11          1           0        2.858454    1.830200    2.500885
     12          7           0        5.018203   -0.394321   -0.924629
     13          8           0        5.960788    0.388577   -0.828501
     14          8           0        4.949878   -1.325008   -1.724499
     15          6           0       -2.334470    2.277138   -0.453644
     16          6           0       -1.844666    1.241788    0.349266
     17          6           0       -2.585397    0.069376    0.526233
     18          6           0       -3.817530   -0.034529   -0.117461
     19          6           0       -4.332520    0.979386   -0.923719
     20          6           0       -3.574646    2.142869   -1.086459
     21          1           0       -1.752395    3.184427   -0.585590
     22          1           0       -0.881851    1.343301    0.841940
     23          1           0       -2.230020   -0.747711    1.142263
     24          1           0       -5.295699    0.849083   -1.401970
     25          1           0       -3.957531    2.945305   -1.710592
     26          7           0       -4.610781   -1.270983    0.062355
     27          8           0       -5.693424   -1.337947   -0.515606
     28          8           0       -4.134870   -2.149738    0.777851
 ---------------------------------------------------------------------

 SCF Done:  E(RHF) =  -868.336861627     A.U. after   16 cycles
 E2 =    -0.2600707407D+01 EUMP2 =    -0.87093756903406D+03

 The electronic state is 1-A.
 Alpha  occ. eigenvalues --  -20.61341 -20.61322 -20.61282 -20.61274 -15.86391
 Alpha  occ. eigenvalues --  -15.86337 -11.31880 -11.31822 -11.28475 -11.28435
 Alpha  occ. eigenvalues --  -11.28406 -11.28333 -11.28310 -11.28090 -11.27556
 Alpha  occ. eigenvalues --  -11.27532 -11.27431 -11.27348  -1.60407  -1.60352
 Alpha  occ. eigenvalues --   -1.39961  -1.39899  -1.20071  -1.19984  -1.09471
 Alpha  occ. eigenvalues --   -1.09351  -1.05480  -1.05407  -0.96265  -0.96188
 Alpha  occ. eigenvalues --   -0.86885  -0.86795  -0.83100  -0.83005  -0.78112
 Alpha  occ. eigenvalues --   -0.78039  -0.72606  -0.72552  -0.71732  -0.71676
 Alpha  occ. eigenvalues --   -0.71259  -0.71076  -0.65734  -0.65644  -0.65497
 Alpha  occ. eigenvalues --   -0.65391  -0.62858  -0.62712  -0.56105  -0.55842
 Alpha  occ. eigenvalues --   -0.53920  -0.53714  -0.53560  -0.53380  -0.49372
 Alpha  occ. eigenvalues --   -0.49357  -0.49325  -0.49296  -0.45353  -0.45264
 Alpha  occ. eigenvalues --   -0.38129  -0.37925  -0.37134  -0.36925
 Alpha virt. eigenvalues --    0.04379   0.04464   0.10463   0.10718   0.15636
 Alpha virt. eigenvalues --    0.15957   0.18630   0.21986   0.25027   0.26156
 Alpha virt. eigenvalues --    0.27861   0.29150   0.29967   0.31332   0.32019

 Mulliken charges:
               1
     1  C   -0.179841
     2  C   -0.217669
     3  C   -0.170139
     4  C    0.160015
     5  C   -0.170887
     6  C   -0.219635
     7  H    0.221651
     8  H    0.227181
     9  H    0.279637
    10  H    0.277628
    11  H    0.224802
    12  N    0.487764
    13  O   -0.458921
    14  O   -0.457509
    15  C   -0.171614
    16  C   -0.219251
    17  C   -0.175413
    18  C    0.159930
    19  C   -0.170318
    20  C   -0.217678
    21  H    0.228131
    22  H    0.221727
    23  H    0.268014
    24  H    0.277715
    25  H    0.226143
    26  N    0.488208
    27  O   -0.457519
    28  O   -0.462149
 Sum of Mulliken charges =  -0.00000

 Dipole moment (field-independent basis, Debye):
    X=             -1.1285    Y=              5.0505    Z=              2.4142  Tot=              5.7105
 Quadrupole moment (field-independent basis, Debye-Ang):
   XX=           -153.1556   YY=           -102.1879   ZZ=           -103.3092
   XY=            -13.1543   XZ=             18.5222   YZ=             -0.6438

 Normal termination of Gaussian 16 at Wed May  5 22:37:02 2021.
