 Gaussian 16, Revision A.03,
 Gaussian 16:  EM64L-G16RevA.03 25-Dec-2016

 -------------
 #p 6-31g* mp2
 -------------

 ------------------------------------------------------
 Input file generated by CHIRIPA (05-May-2021 14:55:19)
 ------------------------------------------------------
 Symbolic Z-matrix:
 Charge =  0 Multiplicity = 1

                         Standard orientation:
 ---------------------------------------------------------------------
 Center     Atomic      Atomic             Coordinates (Angstroms)
 Number     Number       Type             X           Y           Z
 ---------------------------------------------------------------------
      1          6           0        4.499494    1.503228    0.035426
      2          6           0        3.780602    1.255148    1.209381
      3          6           0        2.726049    0.337310    1.215620
      4          6           0        2.416027   -0.317578    0.024697
      5          6           0        3.113478   -0.092004   -1.161038
      6          6           0        4.164229    0.830047   -1.143958
      7          1           0        5.317220    2.217863    0.039637
      8          1           0        4.038753    1.776486    2.126774
      9          1           0        2.152919    0.126201    2.110255
     10          1           0        2.832741   -0.627116   -2.060071
     11          1           0        4.720792    1.020712   -2.057155
     12          7           0        1.301631   -1.291483    0.018958
     13          8           0        1.048257   -1.855424   -1.043308
     14          8           0        0.702644   -1.472447    1.076835
     15          6           0       -2.845042   -0.390808   -0.049307
     16          6           0       -3.536746   -1.742382    0.131740
     17          6           0       -2.558195   -2.916685    0.096459
     18          1           0       -2.302116   -0.388958   -1.004385
     19          1           0       -2.090501   -0.264357    0.739408
     20          1           0       -4.290718   -1.865645   -0.656265
     21          1           0       -4.078246   -1.740947    1.086408
     22          1           0       -1.812723   -2.820987    0.892522
     23          1           0       -2.026401   -2.946393   -0.860052
     24          1           0       -3.073881   -3.873076    0.227768
     25          6           0       -3.810172    0.792900   -0.016338
     26          6           0       -3.118466    2.144474   -0.197385
     27          6           0       -4.097018    3.318776   -0.162105
     28          1           0       -4.564712    0.666449   -0.805054
     29          1           0       -4.353097    0.791050    0.938740
     30          1           0       -2.576967    2.143038   -1.152053
     31          1           0       -2.364495    2.267737    0.590618
     32          1           0       -4.628812    3.348485    0.794407
     33          1           0       -4.842490    3.223078   -0.958167
     34          1           0       -3.581331    4.275167   -0.293414
 ---------------------------------------------------------------------

 SCF Done:  E(RHF) =  -669.536550985     A.U. after   15 cycles
 E2 =    -0.2092426614D+01 EUMP2 =    -0.67162897759930D+03

 The electronic state is 1-A.
 Alpha  occ. eigenvalues --  -20.61056 -20.61051 -15.86057 -11.31345 -11.27901
 Alpha  occ. eigenvalues --  -11.27897 -11.27630 -11.26899 -11.26889 -11.20989
 Alpha  occ. eigenvalues --  -11.20615 -11.20468 -11.20133 -11.20002 -11.18934
 Alpha  occ. eigenvalues --   -1.60083  -1.39646  -1.19505  -1.08916  -1.07345
 Alpha  occ. eigenvalues --   -1.04897  -1.02370  -0.95766  -0.94786  -0.86299
 Alpha  occ. eigenvalues --   -0.85797  -0.82604  -0.78527  -0.77659  -0.77048
 Alpha  occ. eigenvalues --   -0.72283  -0.71378  -0.70615  -0.65164  -0.64900
 Alpha  occ. eigenvalues --   -0.63991  -0.62245  -0.59776  -0.58290  -0.56388
 Alpha  occ. eigenvalues --   -0.55399  -0.54066  -0.53228  -0.52989  -0.51534
 Alpha  occ. eigenvalues --   -0.51204  -0.49142  -0.49045  -0.48635  -0.46718
 Alpha  occ. eigenvalues --   -0.45576  -0.45201  -0.44551  -0.44260  -0.42634
 Alpha  occ. eigenvalues --   -0.37479  -0.36495
 Alpha virt. eigenvalues --    0.04847   0.11161   0.16335   0.21284   0.23830
 Alpha virt. eigenvalues --    0.25609   0.27213   0.27695   0.28085   0.28583
 Alpha virt. eigenvalues --    0.29358   0.30893   0.32266   0.32563   0.32745

 Mulliken charges:
               1
     1  C   -0.170421
     2  C   -0.218498
     3  C   -0.170584
     4  C    0.158675
     5  C   -0.170554
     6  C   -0.218549
     7  H    0.226203
     8  H    0.223983
     9  H    0.275524
    10  H    0.275847
    11  H    0.224004
    12  N    0.490057
    13  O   -0.458151
    14  O   -0.459264
    15  C   -0.301390
    16  C   -0.299028
    17  C   -0.482188
    18  H    0.150016
    19  H    0.158476
    20  H    0.144660
    21  H    0.145469
    22  H    0.177272
    23  H    0.163376
    24  H    0.147422
    25  C   -0.297258
    26  C   -0.298245
    27  C   -0.474759
    28  H    0.146796
    29  H    0.147006
    30  H    0.149858
    31  H    0.148953
    32  H    0.154265
    33  H    0.154641
    34  H    0.156382
 Sum of Mulliken charges =  -0.00000

 Dipole moment (field-independent basis, Debye):
    X=              4.3608    Y=              3.3286    Z=              0.0451  Tot=              5.4862
 Quadrupole moment (field-independent basis, Debye-Ang):
   XX=            -77.9966   YY=            -99.0047   ZZ=            -88.9829
   XY=              7.6423   XZ=             -0.7177   YZ=              1.1691

 Normal termination of Gaussian 16 at Thu May  6 09:13:03 2021.
