 Gaussian 16, Revision A.03,
 Gaussian 16:  EM64L-G16RevA.03 25-Dec-2016

 -------------
 #p 6-31g* mp2
 -------------

 ------------------------------------------------------
 Input file generated by CHIRIPA (05-May-2021 14:53:14)
 ------------------------------------------------------
 Symbolic Z-matrix:
 Charge =  0 Multiplicity = 1

                         Standard orientation:
 ---------------------------------------------------------------------
 Center     Atomic      Atomic             Coordinates (Angstroms)
 Number     Number       Type             X           Y           Z
 ---------------------------------------------------------------------
      1          6           0       -3.884744   -0.428625   -0.439247
      2          6           0       -5.009006   -1.045563    0.393464
      3          6           0       -5.267246   -2.511546    0.044181
      4          1           0       -4.137162   -0.514134   -1.505041
      5          1           0       -2.964657   -1.010050   -0.288316
      6          1           0       -5.926354   -0.462321    0.242081
      7          1           0       -4.753970   -0.958403    1.457407
      8          1           0       -4.367431   -3.111995    0.212696
      9          1           0       -5.546477   -2.613093   -1.009536
     10          1           0       -6.074720   -2.932659    0.651231
     11          6           0       -3.614763    1.036584   -0.101606
     12          6           0       -2.490501    1.653522   -0.934317
     13          6           0       -2.232261    3.119506   -0.585034
     14          1           0       -4.534849    1.618010   -0.252537
     15          1           0       -3.362344    1.122093    0.964188
     16          1           0       -2.745536    1.566363   -1.998260
     17          1           0       -1.573152    1.070280   -0.782934
     18          1           0       -1.953030    3.221053    0.468683
     19          1           0       -3.132075    3.719954   -0.753548
     20          1           0       -1.424786    3.540619   -1.192084
     21          6           0        0.929479    0.088849    1.714390
     22          6           0        2.206750    0.441645    2.162311
     23          6           0        3.322088    0.265222    1.338026
     24          6           0        3.122849   -0.269033    0.065955
     25          6           0        1.862992   -0.630231   -0.409006
     26          6           0        0.761972   -0.445021    0.432421
     27          1           0        0.068620    0.229311    2.361372
     28          1           0        2.339831    0.856472    3.157426
     29          1           0        4.322133    0.529786    1.659481
     30          1           0        1.761856   -1.041466   -1.406039
     31          1           0       -0.228798   -0.719905    0.081906
     32          7           0        4.296028   -0.460455   -0.815753
     33          8           0        4.093884   -0.933064   -1.932183
     34          8           0        5.395496   -0.134259   -0.373710
 ---------------------------------------------------------------------

 SCF Done:  E(RHF) =  -669.535219508     A.U. after   15 cycles
 E2 =    -0.2092100189D+01 EUMP2 =    -0.67162731969632D+03

 The electronic state is 1-A.
 Alpha  occ. eigenvalues --  -20.60779 -20.60774 -15.85833 -11.31215 -11.27791
 Alpha  occ. eigenvalues --  -11.27787 -11.27544 -11.26804 -11.26785 -11.22379
 Alpha  occ. eigenvalues --  -11.22372 -11.22313 -11.22229 -11.21708 -11.21704
 Alpha  occ. eigenvalues --   -1.59854  -1.39407  -1.19394  -1.09273  -1.08785
 Alpha  occ. eigenvalues --   -1.04802  -1.04268  -0.96712  -0.95616  -0.87724
 Alpha  occ. eigenvalues --   -0.86202  -0.82451  -0.80341  -0.79105  -0.77489
 Alpha  occ. eigenvalues --   -0.72051  -0.71177  -0.70500  -0.66002  -0.65045
 Alpha  occ. eigenvalues --   -0.64760  -0.62184  -0.61629  -0.60072  -0.58323
 Alpha  occ. eigenvalues --   -0.56012  -0.55304  -0.53375  -0.53155  -0.53097
 Alpha  occ. eigenvalues --   -0.52904  -0.50661  -0.48823  -0.48805  -0.48638
 Alpha  occ. eigenvalues --   -0.47384  -0.46603  -0.46555  -0.44809  -0.44551
 Alpha  occ. eigenvalues --   -0.37366  -0.36382
 Alpha virt. eigenvalues --    0.05043   0.11121   0.16479   0.18823   0.22961
 Alpha virt. eigenvalues --    0.23615   0.24454   0.25943   0.27172   0.28383
 Alpha virt. eigenvalues --    0.29359   0.30853   0.31101   0.31335   0.31534

 Mulliken charges:
               1
     1  C   -0.300526
     2  C   -0.299702
     3  C   -0.476148
     4  H    0.154205
     5  H    0.141402
     6  H    0.155143
     7  H    0.150493
     8  H    0.154247
     9  H    0.157346
    10  H    0.162751
    11  C   -0.298645
    12  C   -0.304953
    13  C   -0.474686
    14  H    0.154120
    15  H    0.144745
    16  H    0.155616
    17  H    0.148232
    18  H    0.152445
    19  H    0.157414
    20  H    0.164595
    21  C   -0.172705
    22  C   -0.218457
    23  C   -0.170571
    24  C    0.158753
    25  C   -0.173077
    26  C   -0.221284
    27  H    0.225661
    28  H    0.223584
    29  H    0.275809
    30  H    0.276446
    31  H    0.230251
    32  N    0.488085
    33  O   -0.460190
    34  O   -0.460401
 Sum of Mulliken charges =  -0.00000

 Dipole moment (field-independent basis, Debye):
    X=             -4.2596    Y=              0.7245    Z=              3.0562  Tot=              5.2924
 Quadrupole moment (field-independent basis, Debye-Ang):
   XX=           -117.9880   YY=            -95.9893   ZZ=            -91.5539
   XY=              3.9669   XZ=             12.6298   YZ=              0.3031

 Normal termination of Gaussian 16 at Thu May  6 07:25:33 2021.
