 Gaussian 16, Revision A.03,
 Gaussian 16:  EM64L-G16RevA.03 25-Dec-2016

 -------------
 #p 6-31g* mp2
 -------------

 ------------------------------------------------------
 Input file generated by CHIRIPA (05-May-2021 14:51:09)
 ------------------------------------------------------
 Symbolic Z-matrix:
 Charge =  0 Multiplicity = 1

                         Standard orientation:
 ---------------------------------------------------------------------
 Center     Atomic      Atomic             Coordinates (Angstroms)
 Number     Number       Type             X           Y           Z
 ---------------------------------------------------------------------
      1          6           0       -3.308684    1.114961    0.302037
      2          6           0       -2.789130    2.151426   -0.694852
      3          6           0       -3.125000    3.585753   -0.285349
      4          1           0       -4.397373    1.224188    0.400882
      5          1           0       -2.882349    1.323715    1.293024
      6          1           0       -3.215233    1.939950   -1.683958
      7          1           0       -1.701577    2.039592   -0.791479
      8          1           0       -2.686449    3.820674    0.689887
      9          1           0       -4.208706    3.720466   -0.207662
     10          1           0       -2.744284    4.310307   -1.011943
     11          6           0       -2.980721   -0.323670   -0.093574
     12          6           0       -3.500276   -1.360136    0.903315
     13          6           0       -3.164406   -2.794463    0.493812
     14          1           0       -3.407057   -0.532425   -1.084561
     15          1           0       -1.892032   -0.432898   -0.192419
     16          1           0       -4.587829   -1.248302    0.999943
     17          1           0       -3.074173   -1.148660    1.892421
     18          1           0       -2.080700   -2.929176    0.416125
     19          1           0       -3.602956   -3.029384   -0.481424
     20          1           0       -3.545122   -3.519016    1.220406
     21          6           0        2.409113   -0.579797   -0.196038
     22          6           0        2.195328   -2.038192   -0.602692
     23          6           0        0.718601   -2.391363   -0.782531
     24          1           0        1.867122   -0.383328    0.739156
     25          1           0        1.964737    0.075051   -0.958337
     26          1           0        2.641190   -2.690077    0.159454
     27          1           0        2.738049   -2.231263   -1.536926
     28          1           0        0.264360   -1.765300   -1.557327
     29          1           0        0.166952   -2.226721    0.148693
     30          1           0        0.588759   -3.438519   -1.073164
     31          6           0        3.880292   -0.211493   -0.012424
     32          6           0        4.094078    1.246900    0.394229
     33          6           0        5.570804    1.600073    0.574067
     34          1           0        4.324670   -0.866341    0.749874
     35          1           0        4.422284   -0.407962   -0.947619
     36          1           0        3.551357    1.439972    1.328464
     37          1           0        3.648215    1.898787   -0.367917
     38          1           0        6.122454    1.435431   -0.357155
     39          1           0        6.025045    0.974009    1.348864
     40          1           0        5.700645    2.647228    0.864702
 ---------------------------------------------------------------------

 SCF Done:  E(RHF) =  -470.732876544     A.U. after   11 cycles
 E2 =    -0.1583254215D+01 EUMP2 =    -0.47231613075811D+03

 The electronic state is 1-A.
 Alpha  occ. eigenvalues --  -11.21662 -11.21644 -11.21559 -11.21518 -11.21469
 Alpha  occ. eigenvalues --  -11.21406 -11.21326 -11.21246 -11.21141 -11.21103
 Alpha  occ. eigenvalues --  -11.21040 -11.20916  -1.08491  -1.08355  -1.03596
 Alpha  occ. eigenvalues --   -1.03452  -0.96050  -0.95897  -0.87076  -0.86911
 Alpha  occ. eigenvalues --   -0.79708  -0.79481  -0.78327  -0.78137  -0.65131
 Alpha  occ. eigenvalues --   -0.64988  -0.61060  -0.60809  -0.59410  -0.59278
 Alpha  occ. eigenvalues --   -0.57648  -0.57519  -0.55441  -0.55100  -0.52760
 Alpha  occ. eigenvalues --   -0.52609  -0.52482  -0.52301  -0.50096  -0.49734
 Alpha  occ. eigenvalues --   -0.48121  -0.47750  -0.46745  -0.46467  -0.45986
 Alpha  occ. eigenvalues --   -0.45763  -0.45675  -0.45394  -0.43837  -0.43708
 Alpha virt. eigenvalues --    0.21430   0.23062   0.23708   0.24538   0.26082
 Alpha virt. eigenvalues --    0.26516   0.27186   0.27312   0.28106   0.29548
 Alpha virt. eigenvalues --    0.30472   0.31405   0.31747   0.31905   0.32140

 Mulliken charges:
               1
     1  C   -0.297884
     2  C   -0.299679
     3  C   -0.475602
     4  H    0.149372
     5  H    0.149051
     6  H    0.151653
     7  H    0.151939
     8  H    0.155132
     9  H    0.155110
    10  H    0.159979
    11  C   -0.303265
    12  C   -0.299184
    13  C   -0.482507
    14  H    0.148901
    15  H    0.155527
    16  H    0.151544
    17  H    0.150615
    18  H    0.163756
    19  H    0.154706
    20  H    0.159157
    21  C   -0.298781
    22  C   -0.300143
    23  C   -0.479965
    24  H    0.149199
    25  H    0.149504
    26  H    0.152170
    27  H    0.152299
    28  H    0.157816
    29  H    0.157507
    30  H    0.161296
    31  C   -0.298234
    32  C   -0.299712
    33  C   -0.475752
    34  H    0.149715
    35  H    0.149935
    36  H    0.151852
    37  H    0.152012
    38  H    0.155296
    39  H    0.155255
    40  H    0.160409
 Sum of Mulliken charges =  -0.00000

 Dipole moment (field-independent basis, Debye):
    X=              0.0702    Y=             -0.0235    Z=             -0.0269  Tot=              0.0788
 Quadrupole moment (field-independent basis, Debye-Ang):
   XX=            -85.2663   YY=            -86.0843   ZZ=            -83.5882
   XY=             -0.2261   XZ=              0.3034   YZ=             -0.4199

 Normal termination of Gaussian 16 at Wed May  5 18:07:34 2021.
