 Gaussian 16, Revision A.03,
 Gaussian 16:  EM64L-G16RevA.03 25-Dec-2016

 -------------
 #p 6-31g* mp2
 -------------

 ------------------------------------------------------
 Input file generated by CHIRIPA (05-May-2021 14:51:10)
 ------------------------------------------------------
 Symbolic Z-matrix:
 Charge =  0 Multiplicity = 1

                         Standard orientation:
 ---------------------------------------------------------------------
 Center     Atomic      Atomic             Coordinates (Angstroms)
 Number     Number       Type             X           Y           Z
 ---------------------------------------------------------------------
      1          6           0       -2.186729   -0.593301   -0.348465
      2          6           0       -2.880306   -1.732790   -1.095794
      3          6           0       -2.231007   -3.092276   -0.835024
      4          1           0       -1.129362   -0.559099   -0.644691
      5          1           0       -2.202664   -0.807635    0.729126
      6          1           0       -2.864289   -1.515701   -2.171541
      7          1           0       -3.936189   -1.764162   -0.797898
      8          1           0       -2.260287   -3.334822    0.232176
      9          1           0       -1.182296   -3.084950   -1.149273
     10          1           0       -2.742579   -3.892459   -1.378956
     11          6           0       -2.824377    0.772102   -0.599073
     12          6           0       -2.130800    1.911591    0.148256
     13          6           0       -2.780099    3.271077   -0.112514
     14          1           0       -2.808442    0.986436   -1.676664
     15          1           0       -3.881744    0.737900   -0.302847
     16          1           0       -1.074917    1.942963   -0.149640
     17          1           0       -2.146817    1.694502    1.224003
     18          1           0       -3.828810    3.263751    0.201735
     19          1           0       -2.750819    3.513623   -1.179714
     20          1           0       -2.268527    4.071260    0.431418
     21          6           0        2.128291   -0.581739    0.919537
     22          6           0        1.090794    0.088550    1.820812
     23          6           0        0.344337   -0.909404    2.706634
     24          1           0        1.628594   -1.330709    0.290020
     25          1           0        2.847952   -1.128589    1.544386
     26          1           0        0.374107    0.635116    1.194521
     27          1           0        1.592989    0.836148    2.448120
     28          1           0        1.043564   -1.446741    3.355441
     29          1           0       -0.182244   -1.648914    2.094719
     30          1           0       -0.392384   -0.408858    3.342682
     31          6           0        2.882815    0.402938    0.028001
     32          6           0        3.920312   -0.267352   -0.873274
     33          6           0        4.666770    0.730603   -1.759096
     34          1           0        2.163154    0.949789   -0.596848
     35          1           0        3.382513    1.151909    0.657517
     36          1           0        3.418116   -1.014948   -1.500582
     37          1           0        4.637000   -0.813917   -0.246983
     38          1           0        5.193350    1.470113   -1.147181
     39          1           0        3.967542    1.267939   -2.407903
     40          1           0        5.403489    0.230057   -2.395145
 ---------------------------------------------------------------------

 SCF Done:  E(RHF) =  -470.732179162     A.U. after   11 cycles
 E2 =    -0.1585381773D+01 EUMP2 =    -0.47231756093531D+03

 The electronic state is 1-A.
 Alpha  occ. eigenvalues --  -11.21670 -11.21662 -11.21600 -11.21464 -11.21401
 Alpha  occ. eigenvalues --  -11.21400 -11.21377 -11.21292 -11.21150 -11.21118
 Alpha  occ. eigenvalues --  -11.21075 -11.20955  -1.08538  -1.08354  -1.03603
 Alpha  occ. eigenvalues --   -1.03467  -0.96053  -0.95926  -0.87072  -0.86942
 Alpha  occ. eigenvalues --   -0.79756  -0.79476  -0.78414  -0.78126  -0.65200
 Alpha  occ. eigenvalues --   -0.64961  -0.61022  -0.60866  -0.59483  -0.59247
 Alpha  occ. eigenvalues --   -0.57656  -0.57536  -0.55377  -0.55195  -0.52746
 Alpha  occ. eigenvalues --   -0.52618  -0.52476  -0.52354  -0.50030  -0.49867
 Alpha  occ. eigenvalues --   -0.48127  -0.47863  -0.46717  -0.46613  -0.46132
 Alpha  occ. eigenvalues --   -0.45756  -0.45634  -0.45146  -0.43846  -0.43726
 Alpha virt. eigenvalues --    0.20156   0.22764   0.23260   0.24030   0.24758
 Alpha virt. eigenvalues --    0.26175   0.26889   0.28058   0.29159   0.29951
 Alpha virt. eigenvalues --    0.30308   0.30975   0.31708   0.31877   0.32397

 Mulliken charges:
               1
     1  C   -0.305206
     2  C   -0.299406
     3  C   -0.477069
     4  H    0.151410
     5  H    0.155756
     6  H    0.151904
     7  H    0.152270
     8  H    0.155900
     9  H    0.154829
    10  H    0.160990
    11  C   -0.297759
    12  C   -0.304425
    13  C   -0.474870
    14  H    0.149322
    15  H    0.149944
    16  H    0.154026
    17  H    0.153729
    18  H    0.155332
    19  H    0.155195
    20  H    0.160749
    21  C   -0.299312
    22  C   -0.309420
    23  C   -0.478052
    24  H    0.149665
    25  H    0.149359
    26  H    0.165328
    27  H    0.150662
    28  H    0.154396
    29  H    0.158252
    30  H    0.158168
    31  C   -0.298656
    32  C   -0.299486
    33  C   -0.475652
    34  H    0.148031
    35  H    0.149954
    36  H    0.151507
    37  H    0.152239
    38  H    0.155270
    39  H    0.154870
    40  H    0.160253
 Sum of Mulliken charges =  -0.00000

 Dipole moment (field-independent basis, Debye):
    X=             -0.0717    Y=              0.0158    Z=             -0.0157  Tot=              0.0751
 Quadrupole moment (field-independent basis, Debye-Ang):
   XX=            -84.3518   YY=            -86.1789   ZZ=            -84.2661
   XY=              0.1950   XZ=              0.3699   YZ=              0.5213

 Normal termination of Gaussian 16 at Thu May  6 00:36:51 2021.
