 Gaussian 16, Revision A.03,
 Gaussian 16:  EM64L-G16RevA.03 25-Dec-2016

 -------------
 #p 6-31g* mp2
 -------------

 ------------------------------------------------------
 Input file generated by CHIRIPA (05-May-2021 14:57:24)
 ------------------------------------------------------
 Symbolic Z-matrix:
 Charge =  0 Multiplicity = 1

                         Standard orientation:
 ---------------------------------------------------------------------
 Center     Atomic      Atomic             Coordinates (Angstroms)
 Number     Number       Type             X           Y           Z
 ---------------------------------------------------------------------
      1          6           0        3.523217    1.837854    0.593188
      2          6           0        3.610110    1.244450   -0.670474
      3          6           0        2.960648    0.034538   -0.932886
      4          6           0        2.229641   -0.557116    0.096126
      5          6           0        2.124151    0.009333    1.365495
      6          6           0        2.781822    1.219492    1.605355
      7          1           0        4.030923    2.777838    0.788276
      8          1           0        4.185179    1.722418   -1.458439
      9          1           0        3.011227   -0.446716   -1.902037
     10          1           0        1.543426   -0.490944    2.130935
     11          1           0        2.712590    1.678046    2.587689
     12          7           0        1.537739   -1.838126   -0.169740
     13          8           0        0.900027   -2.339268    0.753741
     14          8           0        1.646240   -2.316784   -1.296573
     15          6           0       -2.002447    2.795694   -0.638382
     16          6           0       -2.705359    2.405537    0.506264
     17          6           0       -2.900456    1.051062    0.792412
     18          6           0       -2.376663    0.109162   -0.091757
     19          6           0       -1.671917    0.466350   -1.240250
     20          6           0       -1.488874    1.826563   -1.506455
     21          1           0       -1.855572    3.850111   -0.852923
     22          1           0       -3.105325    3.155987    1.182204
     23          1           0       -3.440729    0.721193    1.671452
     24          1           0       -1.285008   -0.304802   -1.895266
     25          1           0       -0.942574    2.126646   -2.396147
     26          7           0       -2.576823   -1.327797    0.200619
     27          8           0       -2.105400   -2.138139   -0.594204
     28          8           0       -3.201341   -1.616536    1.219071
 ---------------------------------------------------------------------

 SCF Done:  E(RHF) =  -868.335696071     A.U. after   16 cycles
 E2 =    -0.2602708974D+01 EUMP2 =    -0.87093840504562D+03

 The electronic state is 1-A.
 Alpha  occ. eigenvalues --  -20.60486 -20.60437 -20.60007 -20.59884 -15.85520
 Alpha  occ. eigenvalues --  -15.85005 -11.31199 -11.30826 -11.27821 -11.27769
 Alpha  occ. eigenvalues --  -11.27595 -11.27447 -11.27395 -11.27276 -11.26898
 Alpha  occ. eigenvalues --  -11.26857 -11.26574 -11.26555  -1.59522  -1.59001
 Alpha  occ. eigenvalues --   -1.39077  -1.38548  -1.19396  -1.19037  -1.08734
 Alpha  occ. eigenvalues --   -1.08351  -1.04841  -1.04502  -0.95514  -0.95107
 Alpha  occ. eigenvalues --   -0.86228  -0.85880  -0.82343  -0.81937  -0.77344
 Alpha  occ. eigenvalues --   -0.76905  -0.71737  -0.71262  -0.70971  -0.70499
 Alpha  occ. eigenvalues --   -0.70185  -0.70131  -0.65040  -0.64844  -0.64674
 Alpha  occ. eigenvalues --   -0.64508  -0.62184  -0.61833  -0.55331  -0.54998
 Alpha  occ. eigenvalues --   -0.53219  -0.52936  -0.52755  -0.52595  -0.48498
 Alpha  occ. eigenvalues --   -0.48463  -0.48016  -0.47953  -0.44541  -0.43688
 Alpha  occ. eigenvalues --   -0.37445  -0.37025  -0.36459  -0.36106
 Alpha virt. eigenvalues --    0.05173   0.05642   0.11175   0.11498   0.16620
 Alpha virt. eigenvalues --    0.17055   0.21292   0.21619   0.27185   0.27479
 Alpha virt. eigenvalues --    0.28198   0.28564   0.30745   0.31189   0.32414

 Mulliken charges:
               1
     1  C   -0.172258
     2  C   -0.219331
     3  C   -0.174615
     4  C    0.158900
     5  C   -0.170990
     6  C   -0.218082
     7  H    0.224040
     8  H    0.221670
     9  H    0.274413
    10  H    0.277873
    11  H    0.222879
    12  N    0.486970
    13  O   -0.450403
    14  O   -0.460523
    15  C   -0.172592
    16  C   -0.219099
    17  C   -0.172954
    18  C    0.159859
    19  C   -0.178620
    20  C   -0.217015
    21  H    0.222089
    22  H    0.220813
    23  H    0.275044
    24  H    0.282155
    25  H    0.220767
    26  N    0.489571
    27  O   -0.446083
    28  O   -0.464478
 Sum of Mulliken charges =  -0.00000

 Dipole moment (field-independent basis, Debye):
    X=              3.1106    Y=              9.1831    Z=             -0.0621  Tot=              9.6958
 Quadrupole moment (field-independent basis, Debye-Ang):
   XX=            -97.4120   YY=           -109.6432   ZZ=            -96.9569
   XY=             -3.5763   XZ=              0.7022   YZ=              0.5123

 Normal termination of Gaussian 16 at Thu May  6 01:53:19 2021.
