 Gaussian 16, Revision A.03,
 Gaussian 16:  EM64L-G16RevA.03 25-Dec-2016

 -------------
 #p 6-31g* mp2
 -------------

 ------------------------------------------------------
 Input file generated by CHIRIPA (05-May-2021 14:53:14)
 ------------------------------------------------------
 Symbolic Z-matrix:
 Charge =  0 Multiplicity = 1

                         Standard orientation:
 ---------------------------------------------------------------------
 Center     Atomic      Atomic             Coordinates (Angstroms)
 Number     Number       Type             X           Y           Z
 ---------------------------------------------------------------------
      1          6           0       -3.901682   -0.680970    0.568801
      2          6           0       -2.390536   -0.589436    0.354216
      3          6           0       -1.626970   -1.726310    1.034128
      4          1           0       -4.113650   -0.673712    1.646744
      5          1           0       -4.261574   -1.646015    0.185967
      6          1           0       -2.033816    0.375728    0.736087
      7          1           0       -2.182153   -0.596720   -0.723345
      8          1           0       -1.954700   -2.696339    0.646523
      9          1           0       -1.805520   -1.718366    2.114247
     10          1           0       -0.548541   -1.641342    0.867900
     11          6           0       -4.678760    0.448637   -0.104895
     12          6           0       -6.189905    0.357103    0.109689
     13          6           0       -6.953471    1.493977   -0.570222
     14          1           0       -4.318868    1.413682    0.277938
     15          1           0       -4.466791    0.441379   -1.182839
     16          1           0       -6.398288    0.364387    1.187251
     17          1           0       -6.546625   -0.608061   -0.272181
     18          1           0       -6.774921    1.486033   -1.650342
     19          1           0       -6.625741    2.464006   -0.182617
     20          1           0       -8.031900    1.409009   -0.403995
     21          6           0        4.496416    2.250569    0.443952
     22          6           0        3.235527    2.276213   -0.161045
     23          6           0        2.591929    1.085684   -0.511717
     24          6           0        3.241071   -0.118048   -0.241652
     25          6           0        4.497243   -0.176419    0.359941
     26          6           0        5.122146    1.026493    0.702059
     27          1           0        4.989116    3.180211    0.713040
     28          1           0        2.747198    3.225380   -0.362688
     29          1           0        1.615718    1.076573   -0.981128
     30          1           0        4.958977   -1.138040    0.548372
     31          1           0        6.101362    1.003542    1.171799
     32          7           0        2.569619   -1.384963   -0.608364
     33          8           0        3.162669   -2.432413   -0.359818
     34          8           0        1.462997   -1.306531   -1.137396
 ---------------------------------------------------------------------

 SCF Done:  E(RHF) =  -669.536153930     A.U. after   15 cycles
 E2 =    -0.2090974407D+01 EUMP2 =    -0.67162712833715D+03

 The electronic state is 1-A.
 Alpha  occ. eigenvalues --  -20.60948 -20.60940 -15.85967 -11.31278 -11.27841
 Alpha  occ. eigenvalues --  -11.27835 -11.27580 -11.26848 -11.26838 -11.21288
 Alpha  occ. eigenvalues --  -11.20990 -11.20854 -11.20841 -11.20787 -11.19967
 Alpha  occ. eigenvalues --   -1.60004  -1.39560  -1.19447  -1.08855  -1.07920
 Alpha  occ. eigenvalues --   -1.04841  -1.02948  -0.95700  -0.95382  -0.86404
 Alpha  occ. eigenvalues --   -0.86242  -0.82530  -0.79042  -0.77724  -0.77584
 Alpha  occ. eigenvalues --   -0.72191  -0.71320  -0.70556  -0.65103  -0.64844
 Alpha  occ. eigenvalues --   -0.64557  -0.62188  -0.60351  -0.58779  -0.56979
 Alpha  occ. eigenvalues --   -0.55348  -0.54686  -0.53177  -0.52933  -0.52049
 Alpha  occ. eigenvalues --   -0.51816  -0.49351  -0.48957  -0.48939  -0.47352
 Alpha  occ. eigenvalues --   -0.46096  -0.45266  -0.45184  -0.44943  -0.43169
 Alpha  occ. eigenvalues --   -0.37426  -0.36442
 Alpha virt. eigenvalues --    0.04914   0.11209   0.16386   0.21289   0.23328
 Alpha virt. eigenvalues --    0.24819   0.27108   0.27161   0.27714   0.28302
 Alpha virt. eigenvalues --    0.28786   0.30816   0.31941   0.31966   0.32467

 Mulliken charges:
               1
     1  C   -0.297729
     2  C   -0.298861
     3  C   -0.478151
     4  H    0.147407
     5  H    0.150344
     6  H    0.142990
     7  H    0.157477
     8  H    0.156487
     9  H    0.146769
    10  H    0.173393
    11  C   -0.297607
    12  C   -0.299198
    13  C   -0.475359
    14  H    0.146251
    15  H    0.149552
    16  H    0.151121
    17  H    0.152432
    18  H    0.154923
    19  H    0.153583
    20  H    0.159409
    21  C   -0.170562
    22  C   -0.218595
    23  C   -0.171063
    24  C    0.158146
    25  C   -0.170785
    26  C   -0.218594
    27  H    0.225956
    28  H    0.223917
    29  H    0.276510
    30  H    0.275828
    31  H    0.223774
    32  N    0.487392
    33  O   -0.458399
    34  O   -0.458760
 Sum of Mulliken charges =  -0.00000

 Dipole moment (field-independent basis, Debye):
    X=              2.6088    Y=              4.3913    Z=              1.2052  Tot=              5.2480
 Quadrupole moment (field-independent basis, Debye-Ang):
   XX=            -77.6511   YY=            -95.0714   ZZ=            -95.1710
   XY=             12.8594   XZ=              5.3489   YZ=             -1.3536

 Normal termination of Gaussian 16 at Thu May  6 13:45:49 2021.
