 Gaussian 16, Revision A.03,
 Gaussian 16:  EM64L-G16RevA.03 25-Dec-2016

 -------------
 #p 6-31g* mp2
 -------------

 ------------------------------------------------------
 Input file generated by CHIRIPA (05-May-2021 14:55:23)
 ------------------------------------------------------
 Symbolic Z-matrix:
 Charge =  0 Multiplicity = 1

                         Standard orientation:
 ---------------------------------------------------------------------
 Center     Atomic      Atomic             Coordinates (Angstroms)
 Number     Number       Type             X           Y           Z
 ---------------------------------------------------------------------
      1          6           0       -0.740105   -2.300922    0.776728
      2          6           0       -0.572431   -0.976738    1.194991
      3          6           0       -1.502011    0.004123    0.836744
      4          6           0       -2.592462   -0.375967    0.055887
      5          6           0       -2.787194   -1.686881   -0.376403
      6          6           0       -1.845003   -2.651150   -0.006254
      7          1           0       -0.013086   -3.056433    1.059646
      8          1           0        0.284687   -0.701866    1.803134
      9          1           0       -1.396622    1.036676    1.146815
     10          1           0       -3.651735   -1.930531   -0.981897
     11          1           0       -1.977781   -3.678751   -0.332521
     12          7           0       -3.583242    0.653643   -0.329674
     13          8           0       -4.535384    0.293154   -1.018230
     14          8           0       -3.388913    1.801645    0.063981
     15          6           0        3.343872    0.061046   -0.502372
     16          6           0        4.648820   -0.497249    0.066313
     17          6           0        5.105115   -1.772466   -0.643203
     18          1           0        2.559878   -0.704541   -0.423791
     19          1           0        3.476267    0.263995   -1.574136
     20          1           0        4.514427   -0.697787    1.136985
     21          1           0        5.429751    0.269823   -0.013455
     22          1           0        5.266840   -1.583306   -1.709347
     23          1           0        4.346316   -2.556413   -0.552370
     24          1           0        6.039763   -2.154403   -0.220809
     25          6           0        2.874802    1.335843    0.196626
     26          6           0        1.569854    1.894138   -0.372058
     27          6           0        1.113560    3.169354    0.337457
     28          1           0        2.742408    1.132893    1.268391
     29          1           0        3.658796    2.101429    0.118046
     30          1           0        0.788923    1.127066   -0.292289
     31          1           0        1.704246    2.094676   -1.442730
     32          1           0        1.872359    3.953302    0.246626
     33          1           0        0.951835    2.980194    1.403602
     34          1           0        0.178911    3.551293   -0.084936
 ---------------------------------------------------------------------

 SCF Done:  E(RHF) =  -669.534686591     A.U. after   15 cycles
 E2 =    -0.2093849467D+01 EUMP2 =    -0.67162853605789D+03

 The electronic state is 1-A.
 Alpha  occ. eigenvalues --  -20.60826 -20.60821 -15.85880 -11.31269 -11.27841
 Alpha  occ. eigenvalues --  -11.27827 -11.27598 -11.26865 -11.26852 -11.22145
 Alpha  occ. eigenvalues --  -11.21929 -11.21874 -11.21812 -11.21610 -11.21318
 Alpha  occ. eigenvalues --   -1.59900  -1.39453  -1.19459  -1.08926  -1.08835
 Alpha  occ. eigenvalues --   -1.04880  -1.03961  -0.96425  -0.95671  -0.87430
 Alpha  occ. eigenvalues --   -0.86253  -0.82512  -0.80023  -0.78730  -0.77545
 Alpha  occ. eigenvalues --   -0.72099  -0.71224  -0.70563  -0.65636  -0.65102
 Alpha  occ. eigenvalues --   -0.64846  -0.62285  -0.61297  -0.59768  -0.58010
 Alpha  occ. eigenvalues --   -0.55754  -0.55347  -0.53249  -0.53042  -0.52931
 Alpha  occ. eigenvalues --   -0.52827  -0.50384  -0.48860  -0.48852  -0.48326
 Alpha  occ. eigenvalues --   -0.47089  -0.46251  -0.46219  -0.44850  -0.44213
 Alpha  occ. eigenvalues --   -0.37434  -0.36351
 Alpha virt. eigenvalues --    0.04955   0.11063   0.16341   0.19327   0.22970
 Alpha virt. eigenvalues --    0.23510   0.25561   0.26478   0.27024   0.28632
 Alpha virt. eigenvalues --    0.29592   0.30642   0.31313   0.31624   0.32360

 Mulliken charges:
               1
     1  C   -0.171810
     2  C   -0.218873
     3  C   -0.174012
     4  C    0.158069
     5  C   -0.170733
     6  C   -0.218399
     7  H    0.226141
     8  H    0.226423
     9  H    0.281400
    10  H    0.276029
    11  H    0.223963
    12  N    0.488181
    13  O   -0.460057
    14  O   -0.460344
    15  C   -0.299550
    16  C   -0.299645
    17  C   -0.475010
    18  H    0.145856
    19  H    0.153032
    20  H    0.148391
    21  H    0.154653
    22  H    0.157561
    23  H    0.151192
    24  H    0.161587
    25  C   -0.297650
    26  C   -0.310518
    27  C   -0.480383
    28  H    0.141266
    29  H    0.152936
    30  H    0.157020
    31  H    0.155801
    32  H    0.158040
    33  H    0.147432
    34  H    0.172012
 Sum of Mulliken charges =  -0.00000

 Dipole moment (field-independent basis, Debye):
    X=              3.4383    Y=             -3.5784    Z=              1.2505  Tot=              5.1177
 Quadrupole moment (field-independent basis, Debye-Ang):
   XX=           -111.7653   YY=            -90.1470   ZZ=            -93.7730
   XY=             11.0682   XZ=             -2.2893   YZ=              0.3044

 Normal termination of Gaussian 16 at Thu May  6 06:20:38 2021.
