 Gaussian 16, Revision A.03,
 Gaussian 16:  EM64L-G16RevA.03 25-Dec-2016

 -------------
 #p 6-31g* mp2
 -------------

 ------------------------------------------------------
 Input file generated by CHIRIPA (05-May-2021 14:53:18)
 ------------------------------------------------------
 Symbolic Z-matrix:
 Charge =  0 Multiplicity = 1

                         Standard orientation:
 ---------------------------------------------------------------------
 Center     Atomic      Atomic             Coordinates (Angstroms)
 Number     Number       Type             X           Y           Z
 ---------------------------------------------------------------------
      1          6           0        3.695510   -0.434092    0.133053
      2          6           0        4.974555   -1.216685   -0.166240
      3          6           0        4.960405   -2.623653    0.432120
      4          1           0        3.558623   -0.369950    1.221214
      5          1           0        2.833018   -0.991269   -0.258172
      6          1           0        5.834501   -0.657529    0.224213
      7          1           0        5.108514   -1.278807   -1.253811
      8          1           0        4.121123   -3.203127    0.034104
      9          1           0        4.851235   -2.578319    1.520526
     10          1           0        5.884162   -3.165355    0.206083
     11          6           0        3.694624    0.974360   -0.458545
     12          6           0        2.415579    1.756953   -0.159252
     13          6           0        2.429729    3.163921   -0.757612
     14          1           0        4.557116    1.531536   -0.067320
     15          1           0        3.831510    0.910218   -1.546706
     16          1           0        2.281620    1.819075    0.928320
     17          1           0        1.555633    1.197797   -0.549705
     18          1           0        2.538899    3.118587   -1.846018
     19          1           0        3.269011    3.743395   -0.359596
     20          1           0        1.505972    3.705623   -0.531575
     21          6           0       -5.309849   -0.489008   -0.518884
     22          6           0       -4.938160    0.503705    0.393744
     23          6           0       -3.598547    0.666795    0.758966
     24          6           0       -2.652517   -0.184169    0.189601
     25          6           0       -2.991456   -1.182540   -0.722356
     26          6           0       -4.337025   -1.327484   -1.073045
     27          1           0       -6.352805   -0.608652   -0.796952
     28          1           0       -5.691519    1.156317    0.825706
     29          1           0       -3.283106    1.427108    1.463124
     30          1           0       -2.217842   -1.817922   -1.136155
     31          1           0       -4.622781   -2.099299   -1.782051
     32          7           0       -1.231176   -0.021119    0.568552
     33          8           0       -0.416826   -0.783630    0.052754
     34          8           0       -0.958392    0.866104    1.374196
 ---------------------------------------------------------------------

 SCF Done:  E(RHF) =  -669.536348077     A.U. after   15 cycles
 E2 =    -0.2092001886D+01 EUMP2 =    -0.67162834996278D+03

 The electronic state is 1-A.
 Alpha  occ. eigenvalues --  -20.61052 -20.61047 -15.86060 -11.31362 -11.27919
 Alpha  occ. eigenvalues --  -11.27914 -11.27649 -11.26917 -11.26907 -11.20450
 Alpha  occ. eigenvalues --  -11.20094 -11.19926 -11.19793 -11.19772 -11.19695
 Alpha  occ. eigenvalues --   -1.60091  -1.39649  -1.19523  -1.08931  -1.06966
 Alpha  occ. eigenvalues --   -1.04915  -1.02168  -0.95776  -0.94674  -0.86316
 Alpha  occ. eigenvalues --   -0.85699  -0.82613  -0.78206  -0.77669  -0.76703
 Alpha  occ. eigenvalues --   -0.72273  -0.71404  -0.70631  -0.65179  -0.64916
 Alpha  occ. eigenvalues --   -0.63610  -0.62262  -0.59583  -0.58043  -0.56251
 Alpha  occ. eigenvalues --   -0.55418  -0.53988  -0.53248  -0.53006  -0.51418
 Alpha  occ. eigenvalues --   -0.51089  -0.49111  -0.49035  -0.48636  -0.46494
 Alpha  occ. eigenvalues --   -0.45286  -0.45025  -0.44255  -0.44054  -0.42398
 Alpha  occ. eigenvalues --   -0.37497  -0.36514
 Alpha virt. eigenvalues --    0.04826   0.11142   0.16331   0.21277   0.24249
 Alpha virt. eigenvalues --    0.25551   0.27201   0.27992   0.28219   0.28994
 Alpha virt. eigenvalues --    0.29336   0.30872   0.32379   0.32654   0.33086

 Mulliken charges:
               1
     1  C   -0.299987
     2  C   -0.298735
     3  C   -0.474360
     4  H    0.150141
     5  H    0.164104
     6  H    0.147869
     7  H    0.147843
     8  H    0.155116
     9  H    0.154488
    10  H    0.155186
    11  C   -0.298316
    12  C   -0.300988
    13  C   -0.476033
    14  H    0.142720
    15  H    0.142919
    16  H    0.158541
    17  H    0.166981
    18  H    0.148492
    19  H    0.149683
    20  H    0.157627
    21  C   -0.170437
    22  C   -0.218588
    23  C   -0.170686
    24  C    0.159319
    25  C   -0.170740
    26  C   -0.218554
    27  H    0.226256
    28  H    0.224081
    29  H    0.275998
    30  H    0.275660
    31  H    0.224036
    32  N    0.488379
    33  O   -0.460513
    34  O   -0.457504
 Sum of Mulliken charges =  -0.00000

 Dipole moment (field-independent basis, Debye):
    X=             -5.4760    Y=             -0.6841    Z=             -1.2114  Tot=              5.6499
 Quadrupole moment (field-independent basis, Debye-Ang):
   XX=            -69.9596   YY=            -93.8469   ZZ=            -93.4948
   XY=              1.4993   XZ=              2.4804   YZ=              3.8897

 Normal termination of Gaussian 16 at Wed May  5 23:40:09 2021.
