 Gaussian 16, Revision A.03,
 Gaussian 16:  EM64L-G16RevA.03 25-Dec-2016

 -------------
 #p 6-31g* mp2
 -------------

 ------------------------------------------------------
 Input file generated by CHIRIPA (05-May-2021 14:53:17)
 ------------------------------------------------------
 Symbolic Z-matrix:
 Charge =  0 Multiplicity = 1

                         Standard orientation:
 ---------------------------------------------------------------------
 Center     Atomic      Atomic             Coordinates (Angstroms)
 Number     Number       Type             X           Y           Z
 ---------------------------------------------------------------------
      1          6           0       -2.535055   -1.397344    0.140760
      2          6           0       -1.116574   -1.550068   -0.409307
      3          6           0       -0.427292   -2.824604    0.078793
      4          1           0       -2.497791   -1.398281    1.238738
      5          1           0       -3.130806   -2.272823   -0.152517
      6          1           0       -0.524060   -0.673905   -0.116252
      7          1           0       -1.157199   -1.548575   -1.506104
      8          1           0       -0.994087   -3.710156   -0.226401
      9          1           0       -0.357351   -2.830516    1.171347
     10          1           0        0.585463   -2.913715   -0.326481
     11          6           0       -3.237170   -0.127968   -0.338247
     12          6           0       -4.655650    0.024757    0.211819
     13          6           0       -5.344933    1.299293   -0.276281
     14          1           0       -2.641418    0.747511   -0.044970
     15          1           0       -3.274434   -0.127031   -1.436225
     16          1           0       -4.615026    0.023264    1.308616
     17          1           0       -5.248164   -0.851406   -0.081236
     18          1           0       -5.414874    1.305205   -1.368835
     19          1           0       -4.778138    2.184844    0.028914
     20          1           0       -6.357687    1.388404    0.128994
     21          6           0        3.345310   -1.671949   -0.106853
     22          6           0        2.708863   -1.295537    1.080483
     23          6           0        2.101305   -0.041501    1.193693
     24          6           0        2.149347    0.815065    0.094932
     25          6           0        2.775703    0.469019   -1.101404
     26          6           0        3.376645   -0.790025   -1.192094
     27          1           0        3.814706   -2.648061   -0.186050
     28          1           0        2.682973   -1.978405    1.924916
     29          1           0        1.601749    0.275480    2.101098
     30          1           0        2.785117    1.171292   -1.926112
     31          1           0        3.870201   -1.079672   -2.115431
     32          7           0        1.509655    2.145308    0.202862
     33          8           0        1.565821    2.881745   -0.779555
     34          8           0        0.964211    2.426326    1.267829
 ---------------------------------------------------------------------

 SCF Done:  E(RHF) =  -669.534318061     A.U. after   15 cycles
 E2 =    -0.2094593582D+01 EUMP2 =    -0.67162891164332D+03

 The electronic state is 1-A.
 Alpha  occ. eigenvalues --  -20.60863 -20.60858 -15.85912 -11.31268 -11.27829
 Alpha  occ. eigenvalues --  -11.27814 -11.27561 -11.26870 -11.26837 -11.21530
 Alpha  occ. eigenvalues --  -11.21291 -11.21241 -11.21184 -11.21046 -11.20682
 Alpha  occ. eigenvalues --   -1.59937  -1.39490  -1.19458  -1.08854  -1.08233
 Alpha  occ. eigenvalues --   -1.04855  -1.03361  -0.95822  -0.95683  -0.86854
 Alpha  occ. eigenvalues --   -0.86242  -0.82510  -0.79444  -0.78027  -0.77556
 Alpha  occ. eigenvalues --   -0.72130  -0.71267  -0.70556  -0.65103  -0.64880
 Alpha  occ. eigenvalues --   -0.64844  -0.62196  -0.60798  -0.59270  -0.57472
 Alpha  occ. eigenvalues --   -0.55353  -0.55164  -0.53220  -0.52939  -0.52396
 Alpha  occ. eigenvalues --   -0.52168  -0.49773  -0.48892  -0.48883  -0.47775
 Alpha  occ. eigenvalues --   -0.46485  -0.45581  -0.45484  -0.44880  -0.43629
 Alpha  occ. eigenvalues --   -0.37323  -0.36399
 Alpha virt. eigenvalues --    0.04933   0.11178   0.16363   0.21121   0.23052
 Alpha virt. eigenvalues --    0.24461   0.26555   0.27045   0.27638   0.28034
 Alpha virt. eigenvalues --    0.28495   0.30607   0.31504   0.32001   0.32235

 Mulliken charges:
               1
     1  C   -0.297354
     2  C   -0.301966
     3  C   -0.475542
     4  H    0.148292
     5  H    0.147858
     6  H    0.154654
     7  H    0.151180
     8  H    0.153287
     9  H    0.147612
    10  H    0.159393
    11  C   -0.300548
    12  C   -0.299370
    13  C   -0.476389
    14  H    0.157300
    15  H    0.148865
    16  H    0.151945
    17  H    0.149672
    18  H    0.154470
    19  H    0.159869
    20  H    0.158920
    21  C   -0.173823
    22  C   -0.210276
    23  C   -0.174038
    24  C    0.161461
    25  C   -0.171472
    26  C   -0.217445
    27  H    0.226425
    28  H    0.224562
    29  H    0.275358
    30  H    0.275996
    31  H    0.224051
    32  N    0.487914
    33  O   -0.459833
    34  O   -0.461028
 Sum of Mulliken charges =  -0.00000

 Dipole moment (field-independent basis, Debye):
    X=              2.3694    Y=             -4.5596    Z=             -0.3884  Tot=              5.1531
 Quadrupole moment (field-independent basis, Debye-Ang):
   XX=            -85.5881   YY=           -103.7187   ZZ=            -89.9433
   XY=             -7.7250   XZ=             -2.0116   YZ=             -1.2463

 Normal termination of Gaussian 16 at Wed May  5 20:23:35 2021.
