 Gaussian 16, Revision A.03,
 Gaussian 16:  EM64L-G16RevA.03 25-Dec-2016

 -------------
 #p 6-31g* mp2
 -------------

 ------------------------------------------------------
 Input file generated by CHIRIPA (05-May-2021 14:51:14)
 ------------------------------------------------------
 Symbolic Z-matrix:
 Charge =  0 Multiplicity = 1

                         Standard orientation:
 ---------------------------------------------------------------------
 Center     Atomic      Atomic             Coordinates (Angstroms)
 Number     Number       Type             X           Y           Z
 ---------------------------------------------------------------------
      1          6           0        2.716442    0.148110    0.126562
      2          6           0        3.136377   -0.757481   -1.031689
      3          6           0        3.652006   -2.117925   -0.561464
      4          1           0        3.572259    0.291657    0.800296
      5          1           0        1.937428   -0.357203    0.714091
      6          1           0        3.913384   -0.250030   -1.617666
      7          1           0        2.279515   -0.898733   -1.702845
      8          1           0        2.879526   -2.647809    0.005193
      9          1           0        4.522679   -1.995420    0.090856
     10          1           0        3.946654   -2.749209   -1.405574
     11          6           0        2.198712    1.511731   -0.327554
     12          6           0        1.778777    2.417323    0.830696
     13          6           0        1.263148    3.777767    0.360472
     14          1           0        2.977726    2.017045   -0.915083
     15          1           0        1.342895    1.368185   -1.001288
     16          1           0        2.635639    2.558575    1.501853
     17          1           0        1.001770    1.909872    1.416674
     18          1           0        0.392475    3.655262   -0.291849
     19          1           0        2.035627    4.307650   -0.206185
     20          1           0        0.968500    4.409051    1.204582
     21          6           0       -2.940159   -0.527406   -0.408454
     22          6           0       -3.777579    0.619933    0.157522
     23          6           0       -4.738185    1.214788   -0.872613
     24          1           0       -2.371495   -0.164763   -1.275667
     25          1           0       -3.611787   -1.313031   -0.781420
     26          1           0       -3.104555    1.402551    0.530566
     27          1           0       -4.344169    0.254566    1.023605
     28          1           0       -5.432795    0.451288   -1.237561
     29          1           0       -4.186137    1.605795   -1.733401
     30          1           0       -5.326885    2.033334   -0.446851
     31          6           0       -1.974994   -1.132436    0.609446
     32          6           0       -1.137575   -2.279774    0.043470
     33          6           0       -0.176969   -2.874630    1.073605
     34          1           0       -1.303366   -0.346811    0.982412
     35          1           0       -2.543658   -1.495078    1.476659
     36          1           0       -0.570985   -1.914409   -0.822613
     37          1           0       -1.810599   -3.062393   -0.329574
     38          1           0       -0.729016   -3.265638    1.934393
     39          1           0        0.517641   -2.111130    1.438553
     40          1           0        0.411732   -3.693176    0.647843
 ---------------------------------------------------------------------

 SCF Done:  E(RHF) =  -470.733029619     A.U. after   11 cycles
 E2 =    -0.1584301523D+01 EUMP2 =    -0.47231733114206D+03

 The electronic state is 1-A.
 Alpha  occ. eigenvalues --  -11.21695 -11.21661 -11.21652 -11.21608 -11.21487
 Alpha  occ. eigenvalues --  -11.21441 -11.21424 -11.21374 -11.21150 -11.21119
 Alpha  occ. eigenvalues --  -11.21109 -11.21006  -1.08524  -1.08448  -1.03623
 Alpha  occ. eigenvalues --   -1.03531  -0.96060  -0.95991  -0.87077  -0.87009
 Alpha  occ. eigenvalues --   -0.79702  -0.79582  -0.78358  -0.78241  -0.65390
 Alpha  occ. eigenvalues --   -0.64880  -0.61202  -0.60755  -0.59430  -0.59363
 Alpha  occ. eigenvalues --   -0.57703  -0.57575  -0.55352  -0.55278  -0.52770
 Alpha  occ. eigenvalues --   -0.52687  -0.52519  -0.52358  -0.50041  -0.49930
 Alpha  occ. eigenvalues --   -0.48003  -0.47901  -0.46883  -0.46547  -0.46006
 Alpha  occ. eigenvalues --   -0.45882  -0.45743  -0.45400  -0.43852  -0.43807
 Alpha virt. eigenvalues --    0.18715   0.22323   0.23914   0.24510   0.25656
 Alpha virt. eigenvalues --    0.25957   0.26744   0.28071   0.28677   0.29808
 Alpha virt. eigenvalues --    0.30583   0.31210   0.31278   0.31817   0.32262

 Mulliken charges:
               1
     1  C   -0.306080
     2  C   -0.299573
     3  C   -0.481111
     4  H    0.149968
     5  H    0.156271
     6  H    0.151984
     7  H    0.151867
     8  H    0.161692
     9  H    0.154793
    10  H    0.159762
    11  C   -0.297678
    12  C   -0.300859
    13  C   -0.475668
    14  H    0.149930
    15  H    0.148874
    16  H    0.152455
    17  H    0.151918
    18  H    0.154850
    19  H    0.155517
    20  H    0.160523
    21  C   -0.298263
    22  C   -0.299814
    23  C   -0.475739
    24  H    0.149318
    25  H    0.149936
    26  H    0.151977
    27  H    0.152168
    28  H    0.155299
    29  H    0.155175
    30  H    0.160555
    31  C   -0.300186
    32  C   -0.301221
    33  C   -0.482706
    34  H    0.150046
    35  H    0.150277
    36  H    0.152981
    37  H    0.152758
    38  H    0.156020
    39  H    0.160127
    40  H    0.161856
 Sum of Mulliken charges =  -0.00000

 Dipole moment (field-independent basis, Debye):
    X=             -0.0234    Y=             -0.0180    Z=              0.0188  Tot=              0.0350
 Quadrupole moment (field-independent basis, Debye-Ang):
   XX=            -84.0222   YY=            -85.4370   ZZ=            -85.1463
   XY=              1.7081   XZ=             -0.6632   YZ=              0.3192

 Normal termination of Gaussian 16 at Thu May  6 00:50:09 2021.
