 Gaussian 16, Revision A.03,
 Gaussian 16:  EM64L-G16RevA.03 25-Dec-2016

 -------------
 #p 6-31g* mp2
 -------------

 ------------------------------------------------------
 Input file generated by CHIRIPA (05-May-2021 14:53:14)
 ------------------------------------------------------
 Symbolic Z-matrix:
 Charge =  0 Multiplicity = 1

                         Standard orientation:
 ---------------------------------------------------------------------
 Center     Atomic      Atomic             Coordinates (Angstroms)
 Number     Number       Type             X           Y           Z
 ---------------------------------------------------------------------
      1          6           0        3.914439   -0.378428    0.536062
      2          6           0        5.019886    0.523035   -0.014698
      3          6           0        6.041518    0.923460    1.050066
      4          1           0        3.404029    0.139451    1.359609
      5          1           0        4.368220   -1.281148    0.968003
      6          1           0        4.564058    1.423147   -0.446710
      7          1           0        5.527599    0.003026   -0.837155
      8          1           0        6.523119    0.036677    1.474659
      9          1           0        5.554104    1.464867    1.867322
     10          1           0        6.822732    1.567702    0.634716
     11          6           0        2.885446   -0.787213   -0.516457
     12          6           0        1.779999   -1.688675    0.034303
     13          6           0        0.758367   -2.089100   -1.030462
     14          1           0        2.431665    0.115508   -0.948398
     15          1           0        3.395856   -1.305091   -1.340004
     16          1           0        1.272286   -1.168667    0.856760
     17          1           0        2.235827   -2.588787    0.466315
     18          1           0        1.245781   -2.630507   -1.847717
     19          1           0        0.276766   -1.202318   -1.455054
     20          1           0       -0.022847   -2.733343   -0.615111
     21          6           0       -3.984213   -1.448481    0.981193
     22          6           0       -3.916597   -0.221191    1.648805
     23          6           0       -3.183747    0.840609    1.110231
     24          6           0       -2.527818    0.639381   -0.103257
     25          6           0       -2.576137   -0.571445   -0.792352
     26          6           0       -3.314948   -1.619391   -0.235111
     27          1           0       -4.555823   -2.267932    1.406820
     28          1           0       -4.435351   -0.085599    2.593556
     29          1           0       -3.114593    1.801283    1.605953
     30          1           0       -2.048418   -0.676450   -1.732515
     31          1           0       -3.365699   -2.571415   -0.755802
     32          7           0       -1.748828    1.756128   -0.683302
     33          8           0       -1.179902    1.553383   -1.753747
     34          8           0       -1.721932    2.813033   -0.056512
 ---------------------------------------------------------------------

 SCF Done:  E(RHF) =  -669.535414762     A.U. after   15 cycles
 E2 =    -0.2092441826D+01 EUMP2 =    -0.67162785658760D+03

 The electronic state is 1-A.
 Alpha  occ. eigenvalues --  -20.60906 -20.60900 -15.85935 -11.31215 -11.27802
 Alpha  occ. eigenvalues --  -11.27770 -11.27536 -11.26786 -11.26769 -11.21458
 Alpha  occ. eigenvalues --  -11.21212 -11.21048 -11.21034 -11.20975 -11.20739
 Alpha  occ. eigenvalues --   -1.59966  -1.39523  -1.19399  -1.08808  -1.08119
 Alpha  occ. eigenvalues --   -1.04793  -1.03283  -0.95775  -0.95628  -0.86792
 Alpha  occ. eigenvalues --   -0.86186  -0.82486  -0.79364  -0.77916  -0.77535
 Alpha  occ. eigenvalues --   -0.72156  -0.71282  -0.70522  -0.65054  -0.64853
 Alpha  occ. eigenvalues --   -0.64697  -0.62180  -0.60659  -0.59128  -0.57348
 Alpha  occ. eigenvalues --   -0.55354  -0.55005  -0.53144  -0.52909  -0.52428
 Alpha  occ. eigenvalues --   -0.52145  -0.49666  -0.48917  -0.48903  -0.47664
 Alpha  occ. eigenvalues --   -0.46368  -0.45475  -0.45372  -0.44884  -0.43533
 Alpha  occ. eigenvalues --   -0.37379  -0.36342
 Alpha virt. eigenvalues --    0.04966   0.11207   0.16412   0.21156   0.23205
 Alpha virt. eigenvalues --    0.24521   0.26377   0.27064   0.27555   0.28133
 Alpha virt. eigenvalues --    0.29092   0.29669   0.31579   0.31876   0.32338

 Mulliken charges:
               1
     1  C   -0.298158
     2  C   -0.300298
     3  C   -0.475644
     4  H    0.150039
     5  H    0.146912
     6  H    0.156431
     7  H    0.150956
     8  H    0.153383
     9  H    0.155455
    10  H    0.160132
    11  C   -0.301631
    12  C   -0.297904
    13  C   -0.485070
    14  H    0.160917
    15  H    0.148346
    16  H    0.151185
    17  H    0.149869
    18  H    0.154917
    19  H    0.164346
    20  H    0.152060
    21  C   -0.170503
    22  C   -0.218924
    23  C   -0.170830
    24  C    0.156665
    25  C   -0.165809
    26  C   -0.220575
    27  H    0.225790
    28  H    0.223441
    29  H    0.275452
    30  H    0.277977
    31  H    0.224066
    32  N    0.488671
    33  O   -0.462296
    34  O   -0.459365
 Sum of Mulliken charges =  -0.00000

 Dipole moment (field-independent basis, Debye):
    X=             -2.7893    Y=             -3.8112    Z=              2.0095  Tot=              5.1326
 Quadrupole moment (field-independent basis, Debye-Ang):
   XX=            -81.7056   YY=            -98.3464   ZZ=            -92.8680
   XY=              7.0279   XZ=             -6.9486   YZ=              4.2073

 Normal termination of Gaussian 16 at Thu May  6 17:06:10 2021.
