 Gaussian 16, Revision A.03,
 Gaussian 16:  EM64L-G16RevA.03 25-Dec-2016

 -------------
 #p 6-31g* mp2
 -------------

 ------------------------------------------------------
 Input file generated by CHIRIPA (05-May-2021 14:55:20)
 ------------------------------------------------------
 Symbolic Z-matrix:
 Charge =  0 Multiplicity = 1

                         Standard orientation:
 ---------------------------------------------------------------------
 Center     Atomic      Atomic             Coordinates (Angstroms)
 Number     Number       Type             X           Y           Z
 ---------------------------------------------------------------------
      1          6           0       -2.589037    2.426671    0.205525
      2          6           0       -2.181379    1.607777   -0.852656
      3          6           0       -2.612139    0.279969   -0.929582
      4          6           0       -3.453909   -0.198366    0.073369
      5          6           0       -3.877465    0.592652    1.140224
      6          6           0       -3.434289    1.917393    1.196840
      7          1           0       -2.249590    3.456953    0.257394
      8          1           0       -1.524980    2.000601   -1.623938
      9          1           0       -2.311892   -0.375932   -1.737705
     10          1           0       -4.532162    0.172734    1.894186
     11          1           0       -3.752491    2.551057    2.019800
     12          7           0       -3.916507   -1.602434    0.002681
     13          8           0       -4.657799   -1.999927    0.898852
     14          8           0       -3.529041   -2.278862   -0.947556
     15          6           0        5.079315    0.001200   -0.209592
     16          6           0        5.880342   -0.622790    0.933639
     17          6           0        7.391010   -0.527989    0.717555
     18          1           0        5.348350   -0.496168   -1.151499
     19          1           0        5.369598    1.055343   -0.318742
     20          1           0        5.587633   -1.675074    1.041502
     21          1           0        5.609228   -0.124008    1.872963
     22          1           0        7.703002    0.517904    0.631700
     23          1           0        7.681285   -1.041976   -0.204485
     24          1           0        7.944300   -0.980109    1.546601
     25          6           0        3.567513   -0.085786   -0.008056
     26          6           0        2.766484    0.538204   -1.151287
     27          6           0        1.255818    0.443404   -0.935203
     28          1           0        3.277230   -1.139928    0.101093
     29          1           0        3.298477    0.411582    0.933851
     30          1           0        3.037599    0.039422   -2.090611
     31          1           0        3.059195    1.590488   -1.259150
     32          1           0        0.965543    0.957390   -0.013162
     33          1           0        0.943825   -0.602489   -0.849348
     34          1           0        0.702527    0.895523   -1.764250
 ---------------------------------------------------------------------

 SCF Done:  E(RHF) =  -669.534991575     A.U. after   15 cycles
 E2 =    -0.2091745601D+01 EUMP2 =    -0.67162673717592D+03

 The electronic state is 1-A.
 Alpha  occ. eigenvalues --  -20.60727 -20.60722 -15.85779 -11.31132 -11.27691
 Alpha  occ. eigenvalues --  -11.27677 -11.27433 -11.26725 -11.26688 -11.22014
 Alpha  occ. eigenvalues --  -11.21779 -11.21686 -11.21642 -11.21600 -11.21220
 Alpha  occ. eigenvalues --   -1.59802  -1.39356  -1.19303  -1.08727  -1.08697
 Alpha  occ. eigenvalues --   -1.04708  -1.03847  -0.96314  -0.95538  -0.87345
 Alpha  occ. eigenvalues --   -0.86099  -0.82373  -0.79918  -0.78515  -0.77415
 Alpha  occ. eigenvalues --   -0.71998  -0.71125  -0.70411  -0.65349  -0.64957
 Alpha  occ. eigenvalues --   -0.64729  -0.62089  -0.61239  -0.59689  -0.57914
 Alpha  occ. eigenvalues --   -0.55589  -0.55212  -0.53343  -0.52994  -0.52646
 Alpha  occ. eigenvalues --   -0.52602  -0.50231  -0.48756  -0.48753  -0.48226
 Alpha  occ. eigenvalues --   -0.46930  -0.46062  -0.45973  -0.44765  -0.44113
 Alpha  occ. eigenvalues --   -0.37281  -0.36248
 Alpha virt. eigenvalues --    0.05098   0.11335   0.16552   0.20605   0.22687
 Alpha virt. eigenvalues --    0.23963   0.26080   0.26398   0.27176   0.28238
 Alpha virt. eigenvalues --    0.28613   0.29847   0.31099   0.31707   0.32381

 Mulliken charges:
               1
     1  C   -0.173482
     2  C   -0.213139
     3  C   -0.170045
     4  C    0.158011
     5  C   -0.171462
     6  C   -0.218437
     7  H    0.225209
     8  H    0.224537
     9  H    0.275501
    10  H    0.275268
    11  H    0.223060
    12  N    0.488108
    13  O   -0.460637
    14  O   -0.460638
    15  C   -0.298471
    16  C   -0.299952
    17  C   -0.475866
    18  H    0.150536
    19  H    0.148760
    20  H    0.153396
    21  H    0.151776
    22  H    0.154765
    23  H    0.155719
    24  H    0.161061
    25  C   -0.299078
    26  C   -0.300515
    27  C   -0.475471
    28  H    0.152463
    29  H    0.149337
    30  H    0.153546
    31  H    0.150031
    32  H    0.157104
    33  H    0.161209
    34  H    0.147792
 Sum of Mulliken charges =  -0.00000

 Dipole moment (field-independent basis, Debye):
    X=              1.7156    Y=              4.9030    Z=              0.2866  Tot=              5.2024
 Quadrupole moment (field-independent basis, Debye-Ang):
   XX=           -106.4198   YY=            -96.5248   ZZ=            -91.2706
   XY=            -18.0762   XZ=             -3.1908   YZ=              1.4710

 Normal termination of Gaussian 16 at Thu May  6 04:32:34 2021.
