 Gaussian 16, Revision A.03,
 Gaussian 16:  EM64L-G16RevA.03 25-Dec-2016

 -------------
 #p 6-31g* mp2
 -------------

 ------------------------------------------------------
 Input file generated by CHIRIPA (05-May-2021 14:53:14)
 ------------------------------------------------------
 Symbolic Z-matrix:
 Charge =  0 Multiplicity = 1

                         Standard orientation:
 ---------------------------------------------------------------------
 Center     Atomic      Atomic             Coordinates (Angstroms)
 Number     Number       Type             X           Y           Z
 ---------------------------------------------------------------------
      1          6           0        3.727915   -0.477914   -0.399868
      2          6           0        2.953963   -1.727516    0.021413
      3          6           0        3.723665   -3.019929   -0.252489
      4          1           0        3.965456   -0.545036   -1.470389
      5          1           0        4.688797   -0.453374    0.132576
      6          1           0        1.994230   -1.748971   -0.510629
      7          1           0        2.718070   -1.657322    1.091013
      8          1           0        4.674201   -3.024705    0.290705
      9          1           0        3.946248   -3.116874   -1.320037
     10          1           0        3.152060   -3.900732    0.056241
     11          6           0        2.971460    0.822069   -0.132386
     12          6           0        3.745412    2.071671   -0.553668
     13          6           0        2.975710    3.364084   -0.279766
     14          1           0        2.010577    0.797529   -0.664831
     15          1           0        2.733918    0.889191    0.938134
     16          1           0        3.981305    2.001477   -1.623267
     17          1           0        4.705144    2.093126   -0.021625
     18          1           0        2.753126    3.461029    0.787783
     19          1           0        2.025174    3.368860   -0.822959
     20          1           0        3.547314    4.244887   -0.588496
     21          6           0       -0.988502   -0.348083    2.123234
     22          6           0       -2.075788    0.526195    2.223068
     23          6           0       -2.984380    0.652650    1.168071
     24          6           0       -2.774375   -0.113781    0.022746
     25          6           0       -1.700799   -0.993510   -0.106876
     26          6           0       -0.804802   -1.103813    0.960630
     27          1           0       -0.287577   -0.440042    2.947640
     28          1           0       -2.220948    1.114352    3.124758
     29          1           0       -3.834693    1.321842    1.218752
     30          1           0       -1.582391   -1.566678   -1.018400
     31          1           0        0.038701   -1.783590    0.880308
     32          7           0       -3.729594    0.011541   -1.100754
     33          8           0       -3.522379   -0.674775   -2.099086
     34          8           0       -4.667422    0.793713   -0.961746
 ---------------------------------------------------------------------

 SCF Done:  E(RHF) =  -669.535321292     A.U. after   15 cycles
 E2 =    -0.2092038094D+01 EUMP2 =    -0.67162735938611D+03

 The electronic state is 1-A.
 Alpha  occ. eigenvalues --  -20.60733 -20.60728 -15.85784 -11.31135 -11.27695
 Alpha  occ. eigenvalues --  -11.27683 -11.27422 -11.26716 -11.26626 -11.22630
 Alpha  occ. eigenvalues --  -11.22091 -11.22038 -11.21936 -11.21868 -11.21417
 Alpha  occ. eigenvalues --   -1.59809  -1.39362  -1.19297  -1.09109  -1.08692
 Alpha  occ. eigenvalues --   -1.04698  -1.04188  -0.96593  -0.95535  -0.87615
 Alpha  occ. eigenvalues --   -0.86096  -0.82374  -0.80317  -0.78913  -0.77404
 Alpha  occ. eigenvalues --   -0.72003  -0.71131  -0.70409  -0.65737  -0.64945
 Alpha  occ. eigenvalues --   -0.64705  -0.62079  -0.61570  -0.59979  -0.58218
 Alpha  occ. eigenvalues --   -0.55858  -0.55199  -0.53334  -0.53058  -0.53006
 Alpha  occ. eigenvalues --   -0.52753  -0.50534  -0.48797  -0.48760  -0.48524
 Alpha  occ. eigenvalues --   -0.47344  -0.46422  -0.46332  -0.44772  -0.44427
 Alpha  occ. eigenvalues --   -0.37267  -0.36280
 Alpha virt. eigenvalues --    0.05094   0.11317   0.16530   0.20383   0.22569
 Alpha virt. eigenvalues --    0.23747   0.25233   0.25843   0.27206   0.28240
 Alpha virt. eigenvalues --    0.28969   0.30322   0.30672   0.31487   0.31913

 Mulliken charges:
               1
     1  C   -0.297959
     2  C   -0.304033
     3  C   -0.475915
     4  H    0.153562
     5  H    0.151469
     6  H    0.148909
     7  H    0.145086
     8  H    0.158269
     9  H    0.159676
    10  H    0.159199
    11  C   -0.299029
    12  C   -0.300336
    13  C   -0.475989
    14  H    0.153270
    15  H    0.144992
    16  H    0.154191
    17  H    0.151994
    18  H    0.153285
    19  H    0.158008
    20  H    0.162022
    21  C   -0.172618
    22  C   -0.218259
    23  C   -0.171416
    24  C    0.158884
    25  C   -0.174568
    26  C   -0.220323
    27  H    0.224971
    28  H    0.223053
    29  H    0.275316
    30  H    0.274784
    31  H    0.232801
    32  N    0.488048
    33  O   -0.460768
    34  O   -0.460575
 Sum of Mulliken charges =  -0.00000

 Dipole moment (field-independent basis, Debye):
    X=              3.5379    Y=             -0.3977    Z=              3.8856  Tot=              5.2701
 Quadrupole moment (field-independent basis, Debye-Ang):
   XX=           -112.1953   YY=            -93.7210   ZZ=            -92.8430
   XY=             -0.8194   XZ=            -12.3936   YZ=              1.4969

 Normal termination of Gaussian 16 at Wed May  5 20:14:30 2021.
