 Gaussian 16, Revision A.03,
 Gaussian 16:  EM64L-G16RevA.03 25-Dec-2016

 -------------
 #p 6-31g* mp2
 -------------

 ------------------------------------------------------
 Input file generated by CHIRIPA (05-May-2021 14:53:14)
 ------------------------------------------------------
 Symbolic Z-matrix:
 Charge =  0 Multiplicity = 1

                         Standard orientation:
 ---------------------------------------------------------------------
 Center     Atomic      Atomic             Coordinates (Angstroms)
 Number     Number       Type             X           Y           Z
 ---------------------------------------------------------------------
      1          6           0       -3.688411   -0.544423    0.116631
      2          6           0       -2.865077   -1.379027   -0.864972
      3          6           0       -1.763147   -2.184875   -0.176382
      4          1           0       -3.019265    0.136599    0.660136
      5          1           0       -4.134846   -1.209964    0.868392
      6          1           0       -2.421455   -0.712267   -1.615469
      7          1           0       -3.536287   -2.058007   -1.406340
      8          1           0       -2.191660   -2.872963    0.559493
      9          1           0       -1.070494   -1.519577    0.349176
     10          1           0       -1.186964   -2.774112   -0.896572
     11          6           0       -4.793964    0.266794   -0.556726
     12          6           0       -5.617297    1.101397    0.424877
     13          6           0       -6.719227    1.907245   -0.263712
     14          1           0       -4.347529    0.932335   -1.308487
     15          1           0       -5.463109   -0.414228   -1.100231
     16          1           0       -4.946088    1.780377    0.966245
     17          1           0       -6.060919    0.434637    1.175374
     18          1           0       -7.411880    1.241948   -0.789271
     19          1           0       -6.290714    2.595334   -0.999588
     20          1           0       -7.295410    2.496482    0.456477
     21          6           0        5.174753    1.398005   -0.940938
     22          6           0        4.502659    1.945738    0.156695
     23          6           0        3.469784    1.240187    0.781126
     24          6           0        3.133482   -0.016220    0.279499
     25          6           0        3.784248   -0.588771   -0.812279
     26          6           0        4.814039    0.134726   -1.421076
     27          1           0        5.975918    1.953064   -1.419939
     28          1           0        4.780660    2.926611    0.531726
     29          1           0        2.932833    1.640551    1.632485
     30          1           0        3.484625   -1.568725   -1.163466
     31          1           0        5.334252   -0.293133   -2.273344
     32          7           0        2.041656   -0.772654    0.932280
     33          8           0        1.764368   -1.877718    0.471212
     34          8           0        1.483843   -0.246161    1.892638
 ---------------------------------------------------------------------

 SCF Done:  E(RHF) =  -669.536013931     A.U. after   15 cycles
 E2 =    -0.2091269845D+01 EUMP2 =    -0.67162728377604D+03

 The electronic state is 1-A.
 Alpha  occ. eigenvalues --  -20.60963 -20.60946 -15.85972 -11.31306 -11.27867
 Alpha  occ. eigenvalues --  -11.27863 -11.27604 -11.26873 -11.26863 -11.21021
 Alpha  occ. eigenvalues --  -11.20683 -11.20620 -11.20492 -11.20414 -11.19379
 Alpha  occ. eigenvalues --   -1.60011  -1.39565  -1.19472  -1.08875  -1.07592
 Alpha  occ. eigenvalues --   -1.04868  -1.02611  -0.95717  -0.95021  -0.86268
 Alpha  occ. eigenvalues --   -0.86024  -0.82548  -0.78700  -0.77603  -0.77367
 Alpha  occ. eigenvalues --   -0.72183  -0.71333  -0.70580  -0.65125  -0.64871
 Alpha  occ. eigenvalues --   -0.64235  -0.62214  -0.60018  -0.58465  -0.56635
 Alpha  occ. eigenvalues --   -0.55376  -0.54318  -0.53199  -0.52959  -0.51703
 Alpha  occ. eigenvalues --   -0.51446  -0.49228  -0.48950  -0.48684  -0.46974
 Alpha  occ. eigenvalues --   -0.45759  -0.45001  -0.44892  -0.44753  -0.42855
 Alpha  occ. eigenvalues --   -0.37449  -0.36469
 Alpha virt. eigenvalues --    0.04899   0.11187   0.16399   0.21324   0.23636
 Alpha virt. eigenvalues --    0.25273   0.27242   0.27456   0.28181   0.28296
 Alpha virt. eigenvalues --    0.29069   0.30891   0.32344   0.32412   0.32557

 Mulliken charges:
               1
     1  C   -0.297908
     2  C   -0.300658
     3  C   -0.475287
     4  H    0.152423
     5  H    0.149032
     6  H    0.145748
     7  H    0.146366
     8  H    0.151015
     9  H    0.173605
    10  H    0.157809
    11  C   -0.297261
    12  C   -0.299025
    13  C   -0.475146
    14  H    0.146795
    15  H    0.147764
    16  H    0.151700
    17  H    0.151793
    18  H    0.154290
    19  H    0.153607
    20  H    0.158590
    21  C   -0.170561
    22  C   -0.218603
    23  C   -0.170922
    24  C    0.159421
    25  C   -0.170746
    26  C   -0.218593
    27  H    0.226039
    28  H    0.223839
    29  H    0.275794
    30  H    0.275986
    31  H    0.223895
    32  N    0.487141
    33  O   -0.456991
    34  O   -0.460951
 Sum of Mulliken charges =  -0.00000

 Dipole moment (field-independent basis, Debye):
    X=              4.1885    Y=              2.6323    Z=             -2.1989  Tot=              5.4136
 Quadrupole moment (field-independent basis, Debye-Ang):
   XX=            -72.5357   YY=            -92.2325   ZZ=            -94.6478
   XY=              9.0302   XZ=             -7.5580   YZ=              3.6270

 Normal termination of Gaussian 16 at Wed May  5 18:37:50 2021.
