 Gaussian 16, Revision A.03,
 Gaussian 16:  EM64L-G16RevA.03 25-Dec-2016

 -------------
 #p 6-31g* mp2
 -------------

 ------------------------------------------------------
 Input file generated by CHIRIPA (05-May-2021 14:51:08)
 ------------------------------------------------------
 Symbolic Z-matrix:
 Charge =  0 Multiplicity = 1

                         Standard orientation:
 ---------------------------------------------------------------------
 Center     Atomic      Atomic             Coordinates (Angstroms)
 Number     Number       Type             X           Y           Z
 ---------------------------------------------------------------------
      1          6           0       -2.598572   -1.156129   -0.255854
      2          6           0       -1.483522   -1.823730    0.549724
      3          6           0       -1.087484   -3.190671   -0.009221
      4          1           0       -3.476763   -1.816047   -0.271116
      5          1           0       -2.272129   -1.046061   -1.299269
      6          1           0       -1.811438   -1.931249    1.591611
      7          1           0       -0.607949   -1.162061    0.563231
      8          1           0       -0.734996   -3.097340   -1.041520
      9          1           0       -1.945323   -3.870899   -0.007298
     10          1           0       -0.288949   -3.650009    0.581720
     11          6           0       -3.005492    0.211170    0.290623
     12          6           0       -4.120542    0.878771   -0.514955
     13          6           0       -4.516580    2.245713    0.043990
     14          1           0       -3.331935    0.101103    1.334038
     15          1           0       -2.127300    0.871089    0.305885
     16          1           0       -4.996115    0.217103   -0.528462
     17          1           0       -3.792626    0.986291   -1.556841
     18          1           0       -3.658741    2.925940    0.042067
     19          1           0       -4.869068    2.152382    1.076290
     20          1           0       -5.315115    2.705050   -0.546951
     21          6           0        3.056400    1.163216   -0.221372
     22          6           0        2.237471    2.310374    0.371392
     23          6           0        2.758626    3.685929   -0.045790
     24          1           0        4.104390    1.269905    0.090526
     25          1           0        3.046747    1.243109   -1.317236
     26          1           0        2.247519    2.227545    1.465765
     27          1           0        1.191273    2.200835    0.058203
     28          1           0        2.732707    3.793623   -1.134978
     29          1           0        3.794955    3.820483    0.280581
     30          1           0        2.158673    4.491382    0.389136
     31          6           0        2.547664   -0.218258    0.186603
     32          6           0        3.366593   -1.365415   -0.406160
     33          6           0        2.845438   -2.740970    0.011020
     34          1           0        2.557317   -0.298151    1.282467
     35          1           0        1.499674   -0.324946   -0.125295
     36          1           0        4.412791   -1.255877   -0.092973
     37          1           0        3.356545   -1.282587   -1.500534
     38          1           0        1.809108   -2.875526   -0.315351
     39          1           0        2.871356   -2.848665    1.100210
     40          1           0        3.445391   -3.546424   -0.423905
 ---------------------------------------------------------------------

 SCF Done:  E(RHF) =  -470.732334252     A.U. after   11 cycles
 E2 =    -0.1584241141D+01 EUMP2 =    -0.47231657539317D+03

 The electronic state is 1-A.
 Alpha  occ. eigenvalues --  -11.21648 -11.21613 -11.21592 -11.21565 -11.21431
 Alpha  occ. eigenvalues --  -11.21416 -11.21370 -11.21357 -11.21104 -11.21078
 Alpha  occ. eigenvalues --  -11.21060 -11.20963  -1.08477  -1.08419  -1.03587
 Alpha  occ. eigenvalues --   -1.03491  -0.96050  -0.95933  -0.87106  -0.86912
 Alpha  occ. eigenvalues --   -0.79622  -0.79589  -0.78358  -0.78174  -0.65247
 Alpha  occ. eigenvalues --   -0.64939  -0.61152  -0.60764  -0.59454  -0.59268
 Alpha  occ. eigenvalues --   -0.57712  -0.57495  -0.55447  -0.55142  -0.52825
 Alpha  occ. eigenvalues --   -0.52666  -0.52485  -0.52233  -0.50153  -0.49696
 Alpha  occ. eigenvalues --   -0.47915  -0.47886  -0.46705  -0.46618  -0.46099
 Alpha  occ. eigenvalues --   -0.45759  -0.45755  -0.45286  -0.43798  -0.43770
 Alpha virt. eigenvalues --    0.20576   0.22989   0.23490   0.24747   0.25446
 Alpha virt. eigenvalues --    0.26834   0.26897   0.27231   0.28812   0.29845
 Alpha virt. eigenvalues --    0.30689   0.31069   0.31433   0.31708   0.32312

 Mulliken charges:
               1
     1  C   -0.297910
     2  C   -0.308650
     3  C   -0.480032
     4  H    0.149868
     5  H    0.148761
     6  H    0.152361
     7  H    0.160230
     8  H    0.153751
     9  H    0.156265
    10  H    0.164512
    11  C   -0.298589
    12  C   -0.299647
    13  C   -0.475702
    14  H    0.149863
    15  H    0.149411
    16  H    0.152067
    17  H    0.151726
    18  H    0.155181
    19  H    0.155278
    20  H    0.160271
    21  C   -0.297568
    22  C   -0.299883
    23  C   -0.475726
    24  H    0.150028
    25  H    0.149311
    26  H    0.152362
    27  H    0.150908
    28  H    0.155174
    29  H    0.155450
    30  H    0.160397
    31  C   -0.305070
    32  C   -0.298936
    33  C   -0.484320
    34  H    0.149648
    35  H    0.155543
    36  H    0.151798
    37  H    0.151266
    38  H    0.166823
    39  H    0.153977
    40  H    0.159802
 Sum of Mulliken charges =  -0.00000

 Dipole moment (field-independent basis, Debye):
    X=             -0.0036    Y=             -0.0129    Z=              0.0156  Tot=              0.0206
 Quadrupole moment (field-independent basis, Debye-Ang):
   XX=            -84.2392   YY=            -86.6696   ZZ=            -83.8798
   XY=              0.5006   XZ=              0.2293   YZ=             -0.3256

 Normal termination of Gaussian 16 at Thu May  6 03:40:41 2021.
