 Gaussian 16, Revision A.03,
 Gaussian 16:  EM64L-G16RevA.03 25-Dec-2016

 -------------
 #p 6-31g* mp2
 -------------

 ------------------------------------------------------
 Input file generated by CHIRIPA (05-May-2021 14:55:24)
 ------------------------------------------------------
 Symbolic Z-matrix:
 Charge =  0 Multiplicity = 1

                         Standard orientation:
 ---------------------------------------------------------------------
 Center     Atomic      Atomic             Coordinates (Angstroms)
 Number     Number       Type             X           Y           Z
 ---------------------------------------------------------------------
      1          6           0        1.314860    0.273861    0.997265
      2          6           0        1.795806    1.035418   -0.072895
      3          6           0        3.074430    0.805908   -0.589610
      4          6           0        3.848724   -0.197674   -0.009451
      5          6           0        3.397751   -0.973242    1.057511
      6          6           0        2.115955   -0.726276    1.558064
      7          1           0        0.320362    0.458930    1.392384
      8          1           0        1.175872    1.812795   -0.510400
      9          1           0        3.471652    1.380647   -1.417443
     10          1           0        4.038984   -1.741231    1.472761
     11          1           0        1.745054   -1.319265    2.389232
     12          7           0        5.204025   -0.449887   -0.547919
     13          8           0        5.866548   -1.339903   -0.019174
     14          8           0        5.578124    0.247221   -1.488519
     15          6           0       -3.988637    0.523612   -0.333283
     16          6           0       -3.474559    1.602175    0.620871
     17          6           0       -2.169828    2.240631    0.143538
     18          1           0       -3.219483   -0.252407   -0.447917
     19          1           0       -4.137955    0.965111   -1.328360
     20          1           0       -3.327570    1.159096    1.614194
     21          1           0       -4.245102    2.375621    0.733397
     22          1           0       -2.305988    2.708466   -0.836866
     23          1           0       -1.383243    1.485029    0.048936
     24          1           0       -1.820308    3.008796    0.840401
     25          6           0       -5.292269   -0.123979    0.130289
     26          6           0       -5.806346   -1.202543   -0.823865
     27          6           0       -7.111077   -1.840998   -0.346532
     28          1           0       -5.142950   -0.565478    1.125366
     29          1           0       -6.061422    0.652041    0.244923
     30          1           0       -5.035803   -1.975987   -0.936390
     31          1           0       -5.953334   -0.759463   -1.817188
     32          1           0       -7.897662   -1.085397   -0.251930
     33          1           0       -6.974918   -2.308833    0.633872
     34          1           0       -7.460597   -2.609163   -1.043395
 ---------------------------------------------------------------------

 SCF Done:  E(RHF) =  -669.535300650     A.U. after   15 cycles
 E2 =    -0.2091373899D+01 EUMP2 =    -0.67162667454848D+03

 The electronic state is 1-A.
 Alpha  occ. eigenvalues --  -20.60727 -20.60722 -15.85780 -11.31140 -11.27708
 Alpha  occ. eigenvalues --  -11.27697 -11.27414 -11.26723 -11.26681 -11.22648
 Alpha  occ. eigenvalues --  -11.22401 -11.22222 -11.22151 -11.22041 -11.21529
 Alpha  occ. eigenvalues --   -1.59803  -1.39357  -1.19308  -1.09229  -1.08705
 Alpha  occ. eigenvalues --   -1.04710  -1.04361  -0.96833  -0.95541  -0.87858
 Alpha  occ. eigenvalues --   -0.86105  -0.82374  -0.80440  -0.78991  -0.77421
 Alpha  occ. eigenvalues --   -0.71999  -0.71126  -0.70447  -0.65871  -0.64962
 Alpha  occ. eigenvalues --   -0.64724  -0.62086  -0.61736  -0.60211  -0.58403
 Alpha  occ. eigenvalues --   -0.56197  -0.55149  -0.53532  -0.53265  -0.53029
 Alpha  occ. eigenvalues --   -0.52776  -0.50763  -0.48772  -0.48755  -0.48721
 Alpha  occ. eigenvalues --   -0.47458  -0.46542  -0.46440  -0.44763  -0.44590
 Alpha  occ. eigenvalues --   -0.37286  -0.36313
 Alpha virt. eigenvalues --    0.05101   0.11300   0.16580   0.19927   0.22346
 Alpha virt. eigenvalues --    0.23676   0.25629   0.25911   0.26889   0.27639
 Alpha virt. eigenvalues --    0.29181   0.29927   0.30746   0.31248   0.32023

 Mulliken charges:
               1
     1  C   -0.174646
     2  C   -0.221373
     3  C   -0.171154
     4  C    0.158414
     5  C   -0.171050
     6  C   -0.218680
     7  H    0.229316
     8  H    0.227507
     9  H    0.275555
    10  H    0.275350
    11  H    0.223087
    12  N    0.488068
    13  O   -0.460580
    14  O   -0.460477
    15  C   -0.298960
    16  C   -0.300320
    17  C   -0.484780
    18  H    0.148790
    19  H    0.152051
    20  H    0.150330
    21  H    0.157035
    22  H    0.161052
    23  H    0.148426
    24  H    0.162412
    25  C   -0.298782
    26  C   -0.300247
    27  C   -0.476108
    28  H    0.149289
    29  H    0.151334
    30  H    0.152419
    31  H    0.153218
    32  H    0.156021
    33  H    0.155371
    34  H    0.162115
 Sum of Mulliken charges =  -0.00000

 Dipole moment (field-independent basis, Debye):
    X=             -5.0210    Y=              0.9135    Z=              1.8592  Tot=              5.4316
 Quadrupole moment (field-independent basis, Debye-Ang):
   XX=           -131.8122   YY=            -92.4972   ZZ=            -92.7517
   XY=              2.8466   XZ=              8.4741   YZ=             -3.5546

 Normal termination of Gaussian 16 at Thu May  6 03:11:28 2021.
