 Gaussian 16, Revision A.03,
 Gaussian 16:  EM64L-G16RevA.03 25-Dec-2016

 -------------
 #p 6-31g* mp2
 -------------

 ------------------------------------------------------
 Input file generated by CHIRIPA (05-May-2021 14:53:15)
 ------------------------------------------------------
 Symbolic Z-matrix:
 Charge =  0 Multiplicity = 1

                         Standard orientation:
 ---------------------------------------------------------------------
 Center     Atomic      Atomic             Coordinates (Angstroms)
 Number     Number       Type             X           Y           Z
 ---------------------------------------------------------------------
      1          6           0        2.879557    0.872759    0.046993
      2          6           0        2.116060    1.777808   -0.920449
      3          6           0        1.864427    3.173935   -0.350093
      4          1           0        2.314512    0.790603    0.985566
      5          1           0        3.838968    1.344873    0.300044
      6          1           0        1.158978    1.303479   -1.172681
      7          1           0        2.682895    1.857666   -1.856898
      8          1           0        2.811420    3.670536   -0.115158
      9          1           0        1.278844    3.113201    0.572947
     10          1           0        1.317330    3.804235   -1.058095
     11          6           0        3.138748   -0.526343   -0.508939
     12          6           0        3.902245   -1.431393    0.458502
     13          6           0        4.153877   -2.827519   -0.111853
     14          1           0        2.179337   -0.998457   -0.761990
     15          1           0        3.703793   -0.444187   -1.447512
     16          1           0        3.335410   -1.511250    1.394951
     17          1           0        4.859327   -0.957064    0.710734
     18          1           0        4.739461   -2.766785   -1.034894
     19          1           0        3.206885   -3.324120   -0.346789
     20          1           0        4.700975   -3.457820    0.596149
     21          6           0       -1.557661    0.468931    2.498114
     22          6           0       -1.275046    1.313145    1.419248
     23          6           0       -1.709587    0.988366    0.130744
     24          6           0       -2.427588   -0.193735   -0.043616
     25          6           0       -2.724930   -1.055401    1.011093
     26          6           0       -2.280426   -0.710568    2.290959
     27          1           0       -1.216229    0.729016    3.495699
     28          1           0       -0.713932    2.229800    1.577164
     29          1           0       -1.504708    1.623792   -0.722295
     30          1           0       -3.286331   -1.962407    0.822455
     31          1           0       -2.501366   -1.368097    3.126952
     32          7           0       -2.892891   -0.548179   -1.403124
     33          8           0       -3.523715   -1.595320   -1.530378
     34          8           0       -2.617959    0.227860   -2.315710
 ---------------------------------------------------------------------

 SCF Done:  E(RHF) =  -669.535310496     A.U. after   15 cycles
 E2 =    -0.2092788767D+01 EUMP2 =    -0.67162809926254D+03

 The electronic state is 1-A.
 Alpha  occ. eigenvalues --  -20.60818 -20.60813 -15.85872 -11.31255 -11.27826
 Alpha  occ. eigenvalues --  -11.27817 -11.27567 -11.26841 -11.26823 -11.22012
 Alpha  occ. eigenvalues --  -11.21802 -11.21800 -11.21736 -11.21557 -11.21187
 Alpha  occ. eigenvalues --   -1.59894  -1.39446  -1.19432  -1.08824  -1.08735
 Alpha  occ. eigenvalues --   -1.04840  -1.03881  -0.96348  -0.95652  -0.87364
 Alpha  occ. eigenvalues --   -0.86231  -0.82483  -0.79941  -0.78524  -0.77534
 Alpha  occ. eigenvalues --   -0.72089  -0.71219  -0.70537  -0.65414  -0.65070
 Alpha  occ. eigenvalues --   -0.64843  -0.62292  -0.61181  -0.59714  -0.57942
 Alpha  occ. eigenvalues --   -0.55685  -0.55295  -0.53156  -0.53042  -0.53000
 Alpha  occ. eigenvalues --   -0.52708  -0.50273  -0.48851  -0.48843  -0.48251
 Alpha  occ. eigenvalues --   -0.46961  -0.46075  -0.45975  -0.44846  -0.44111
 Alpha  occ. eigenvalues --   -0.37408  -0.36410
 Alpha virt. eigenvalues --    0.04971   0.11105   0.16377   0.19777   0.22911
 Alpha virt. eigenvalues --    0.23904   0.25639   0.26283   0.26992   0.28245
 Alpha virt. eigenvalues --    0.29352   0.29420   0.31313   0.31547   0.32197

 Mulliken charges:
               1
     1  C   -0.297923
     2  C   -0.303452
     3  C   -0.479927
     4  H    0.145859
     5  H    0.149517
     6  H    0.155139
     7  H    0.157019
     8  H    0.159783
     9  H    0.143758
    10  H    0.163060
    11  C   -0.298995
    12  C   -0.299578
    13  C   -0.476049
    14  H    0.152946
    15  H    0.151661
    16  H    0.149783
    17  H    0.151487
    18  H    0.156527
    19  H    0.156839
    20  H    0.159851
    21  C   -0.172055
    22  C   -0.221334
    23  C   -0.172869
    24  C    0.157669
    25  C   -0.170945
    26  C   -0.218382
    27  H    0.226278
    28  H    0.229487
    29  H    0.277533
    30  H    0.275865
    31  H    0.223755
    32  N    0.488209
    33  O   -0.460229
    34  O   -0.460287
 Sum of Mulliken charges =  -0.00000

 Dipole moment (field-independent basis, Debye):
    X=              1.6806    Y=              1.1897    Z=              4.7115  Tot=              5.1418
 Quadrupole moment (field-independent basis, Debye-Ang):
   XX=           -101.6084   YY=            -93.0328   ZZ=            -94.8996
   XY=             -0.7705   XZ=            -13.2379   YZ=             -3.2512

 Normal termination of Gaussian 16 at Thu May  6 10:35:33 2021.
