 Gaussian 16, Revision A.03,
 Gaussian 16:  EM64L-G16RevA.03 25-Dec-2016

 -------------
 #p 6-31g* mp2
 -------------

 ------------------------------------------------------
 Input file generated by CHIRIPA (05-May-2021 14:55:21)
 ------------------------------------------------------
 Symbolic Z-matrix:
 Charge =  0 Multiplicity = 1

                         Standard orientation:
 ---------------------------------------------------------------------
 Center     Atomic      Atomic             Coordinates (Angstroms)
 Number     Number       Type             X           Y           Z
 ---------------------------------------------------------------------
      1          6           0       -0.674010   -1.359348    1.094533
      2          6           0       -1.912441   -1.463394    1.736393
      3          6           0       -3.066064   -0.943241    1.142134
      4          6           0       -2.944300   -0.322648   -0.100173
      5          6           0       -1.724724   -0.203357   -0.764773
      6          6           0       -0.584262   -0.730770   -0.151804
      7          1           0        0.217040   -1.766235    1.563435
      8          1           0       -1.985132   -1.951031    2.704366
      9          1           0       -4.037436   -1.010001    1.616893
     10          1           0       -1.683784    0.288274   -1.729159
     11          1           0        0.376197   -0.648521   -0.652601
     12          7           0       -4.158622    0.231857   -0.739192
     13          8           0       -4.024735    0.773932   -1.834120
     14          8           0       -5.221303    0.113905   -0.133028
     15          6           0        3.075939    1.133016   -0.177320
     16          6           0        2.467082    1.808295    1.052021
     17          6           0        1.596272    3.013062    0.694225
     18          1           0        3.674597    1.867940   -0.732692
     19          1           0        2.267699    0.815388   -0.850564
     20          1           0        3.276176    2.123319    1.723396
     21          1           0        1.869959    1.071630    1.604635
     22          1           0        0.769485    2.711028    0.043226
     23          1           0        2.183691    3.768694    0.162662
     24          1           0        1.171113    3.480636    1.587799
     25          6           0        3.949125   -0.073082    0.164149
     26          6           0        4.557980   -0.748361   -1.065192
     27          6           0        5.428792   -1.953128   -0.707396
     28          1           0        4.757363    0.244546    0.837393
     29          1           0        3.350465   -0.808006    0.719521
     30          1           0        5.155103   -0.011695   -1.617806
     31          1           0        3.748887   -1.063385   -1.736567
     32          1           0        4.841372   -2.708760   -0.175832
     33          1           0        6.255578   -1.651093   -0.056397
     34          1           0        5.853950   -2.420701   -1.600970
 ---------------------------------------------------------------------

 SCF Done:  E(RHF) =  -669.535503270     A.U. after   15 cycles
 E2 =    -0.2092448708D+01 EUMP2 =    -0.67162795197726D+03

 The electronic state is 1-A.
 Alpha  occ. eigenvalues --  -20.60790 -20.60785 -15.85844 -11.31233 -11.27805
 Alpha  occ. eigenvalues --  -11.27800 -11.27554 -11.26821 -11.26809 -11.22454
 Alpha  occ. eigenvalues --  -11.22372 -11.22337 -11.22286 -11.21801 -11.21575
 Alpha  occ. eigenvalues --   -1.59865  -1.39418  -1.19408  -1.09312  -1.08796
 Alpha  occ. eigenvalues --   -1.04816  -1.04276  -0.96725  -0.95629  -0.87733
 Alpha  occ. eigenvalues --   -0.86211  -0.82463  -0.80345  -0.79136  -0.77506
 Alpha  occ. eigenvalues --   -0.72062  -0.71188  -0.70516  -0.66093  -0.65059
 Alpha  occ. eigenvalues --   -0.64729  -0.62183  -0.61639  -0.60088  -0.58334
 Alpha  occ. eigenvalues --   -0.56031  -0.55314  -0.53366  -0.53177  -0.53113
 Alpha  occ. eigenvalues --   -0.52885  -0.50661  -0.48825  -0.48816  -0.48650
 Alpha  occ. eigenvalues --   -0.47396  -0.46643  -0.46613  -0.44818  -0.44573
 Alpha  occ. eigenvalues --   -0.37376  -0.36404
 Alpha virt. eigenvalues --    0.05004   0.11146   0.16413   0.18308   0.23131
 Alpha virt. eigenvalues --    0.23665   0.24524   0.25173   0.26951   0.28586
 Alpha virt. eigenvalues --    0.30000   0.30783   0.30925   0.31402   0.31594

 Mulliken charges:
               1
     1  C   -0.173296
     2  C   -0.218538
     3  C   -0.170732
     4  C    0.158987
     5  C   -0.173228
     6  C   -0.221386
     7  H    0.226396
     8  H    0.223759
     9  H    0.275869
    10  H    0.275908
    11  H    0.230848
    12  N    0.488087
    13  O   -0.460191
    14  O   -0.460283
    15  C   -0.301445
    16  C   -0.300419
    17  C   -0.475826
    18  H    0.155597
    19  H    0.141655
    20  H    0.154520
    21  H    0.148254
    22  H    0.155759
    23  H    0.156951
    24  H    0.163414
    25  C   -0.298409
    26  C   -0.299718
    27  C   -0.475748
    28  H    0.154355
    29  H    0.140646
    30  H    0.156008
    31  H    0.148226
    32  H    0.153241
    33  H    0.157402
    34  H    0.163339
 Sum of Mulliken charges =  -0.00000

 Dipole moment (field-independent basis, Debye):
    X=              4.3967    Y=             -1.8713    Z=              2.2685  Tot=              5.2895
 Quadrupole moment (field-independent basis, Debye-Ang):
   XX=           -117.7886   YY=            -93.8965   ZZ=            -92.4340
   XY=              6.6417   XZ=             -9.6883   YZ=             -1.7539

 Normal termination of Gaussian 16 at Thu May  6 04:36:13 2021.
