 Gaussian 16, Revision A.03,
 Gaussian 16:  EM64L-G16RevA.03 25-Dec-2016

 -------------
 #p 6-31g* mp2
 -------------

 ------------------------------------------------------
 Input file generated by CHIRIPA (05-May-2021 14:53:13)
 ------------------------------------------------------
 Symbolic Z-matrix:
 Charge =  0 Multiplicity = 1

                         Standard orientation:
 ---------------------------------------------------------------------
 Center     Atomic      Atomic             Coordinates (Angstroms)
 Number     Number       Type             X           Y           Z
 ---------------------------------------------------------------------
      1          6           0       -5.040806   -0.321313    0.290136
      2          6           0       -5.523066   -1.356101   -0.727029
      3          6           0       -6.615742   -2.268648   -0.169256
      4          1           0       -4.666332   -0.840837    1.182777
      5          1           0       -5.895551    0.286515    0.617781
      6          1           0       -4.667417   -1.960891   -1.053695
      7          1           0       -5.896258   -0.834058   -1.617431
      8          1           0       -7.487054   -1.682076    0.139529
      9          1           0       -6.251232   -2.815311    0.706468
     10          1           0       -6.945809   -3.000654   -0.912952
     11          6           0       -3.948445    0.598363   -0.252701
     12          6           0       -3.466185    1.633151    0.764464
     13          6           0       -2.373509    2.545698    0.206691
     14          1           0       -3.093700   -0.009465   -0.580347
     15          1           0       -4.322919    1.117887   -1.145343
     16          1           0       -3.092993    1.111108    1.654866
     17          1           0       -4.321834    2.237941    1.091130
     18          1           0       -2.738019    3.092361   -0.669033
     19          1           0       -1.502196    1.959126   -0.102094
     20          1           0       -2.043441    3.277704    0.950386
     21          6           0        2.072769    1.956117   -0.200876
     22          6           0        3.432713    2.019354   -0.521926
     23          6           0        4.239372    0.881836   -0.422420
     24          6           0        3.650510   -0.307796    0.003383
     25          6           0        2.298721   -0.402698    0.330415
     26          6           0        1.511103    0.747424    0.223522
     27          1           0        1.453533    2.844663   -0.281044
     28          1           0        3.871616    2.956688   -0.851794
     29          1           0        5.294981    0.902646   -0.664648
     30          1           0        1.889718   -1.351328    0.656354
     31          1           0        0.455245    0.695363    0.473517
     32          7           0        4.494405   -1.518706    0.112637
     33          8           0        3.951541   -2.554744    0.490209
     34          8           0        5.682735   -1.408851   -0.181372
 ---------------------------------------------------------------------

 SCF Done:  E(RHF) =  -669.535510414     A.U. after   15 cycles
 E2 =    -0.2090959810D+01 EUMP2 =    -0.67162647022413D+03

 The electronic state is 1-A.
 Alpha  occ. eigenvalues --  -20.60740 -20.60735 -15.85794 -11.31152 -11.27724
 Alpha  occ. eigenvalues --  -11.27721 -11.27445 -11.26730 -11.26709 -11.22525
 Alpha  occ. eigenvalues --  -11.22292 -11.22135 -11.22043 -11.21933 -11.21411
 Alpha  occ. eigenvalues --   -1.59816  -1.39370  -1.19324  -1.09123  -1.08717
 Alpha  occ. eigenvalues --   -1.04730  -1.04246  -0.96714  -0.95552  -0.87737
 Alpha  occ. eigenvalues --   -0.86127  -0.82387  -0.80320  -0.78886  -0.77441
 Alpha  occ. eigenvalues --   -0.72013  -0.71139  -0.70423  -0.65781  -0.64976
 Alpha  occ. eigenvalues --   -0.64753  -0.62149  -0.61584  -0.60098  -0.58289
 Alpha  occ. eigenvalues --   -0.56020  -0.55213  -0.53413  -0.53169  -0.53049
 Alpha  occ. eigenvalues --   -0.52792  -0.50649  -0.48777  -0.48768  -0.48614
 Alpha  occ. eigenvalues --   -0.47343  -0.46436  -0.46336  -0.44777  -0.44480
 Alpha  occ. eigenvalues --   -0.37299  -0.36333
 Alpha virt. eigenvalues --    0.05100   0.11289   0.16595   0.19373   0.22479
 Alpha virt. eigenvalues --    0.23712   0.25549   0.26291   0.26923   0.27892
 Alpha virt. eigenvalues --    0.28901   0.29857   0.30957   0.31487   0.31907

 Mulliken charges:
               1
     1  C   -0.298900
     2  C   -0.300238
     3  C   -0.476151
     4  H    0.150296
     5  H    0.151023
     6  H    0.152685
     7  H    0.152688
     8  H    0.155692
     9  H    0.156052
    10  H    0.162049
    11  C   -0.298377
    12  C   -0.300586
    13  C   -0.481739
    14  H    0.146994
    15  H    0.151818
    16  H    0.151911
    17  H    0.156545
    18  H    0.160560
    19  H    0.146758
    20  H    0.161520
    21  C   -0.172564
    22  C   -0.218661
    23  C   -0.171101
    24  C    0.158722
    25  C   -0.171284
    26  C   -0.223322
    27  H    0.227461
    28  H    0.223379
    29  H    0.275492
    30  H    0.275455
    31  H    0.228940
    32  N    0.487987
    33  O   -0.460616
    34  O   -0.460488
 Sum of Mulliken charges =  -0.00000

 Dipole moment (field-independent basis, Debye):
    X=             -3.1999    Y=              4.2847    Z=             -0.3924  Tot=              5.3621
 Quadrupole moment (field-independent basis, Debye-Ang):
   XX=           -112.6916   YY=            -96.4126   ZZ=            -95.0634
   XY=             17.9499   XZ=             -2.4107   YZ=             -0.8656

 Normal termination of Gaussian 16 at Thu May  6 12:03:29 2021.
