 Gaussian 16, Revision A.03,
 Gaussian 16:  EM64L-G16RevA.03 25-Dec-2016

 -------------
 #p 6-31g* mp2
 -------------

 ------------------------------------------------------
 Input file generated by CHIRIPA (05-May-2021 14:57:26)
 ------------------------------------------------------
 Symbolic Z-matrix:
 Charge =  0 Multiplicity = 1

                         Standard orientation:
 ---------------------------------------------------------------------
 Center     Atomic      Atomic             Coordinates (Angstroms)
 Number     Number       Type             X           Y           Z
 ---------------------------------------------------------------------
      1          6           0        1.720408   -2.436682    0.440251
      2          6           0        2.415466   -2.227035   -0.755351
      3          6           0        3.091497   -1.024496   -0.982133
      4          6           0        3.051418   -0.048814    0.012718
      5          6           0        2.367721   -0.227800    1.214305
      6          6           0        1.698792   -1.438156    1.419536
      7          1           0        1.198009   -3.373880    0.608050
      8          1           0        2.433969   -3.000729   -1.517649
      9          1           0        3.637359   -0.835819   -1.898569
     10          1           0        2.367348    0.562143    1.955524
     11          1           0        1.159815   -1.598207    2.349016
     12          7           0        3.763343    1.228398   -0.215959
     13          8           0        3.712777    2.072199    0.676274
     14          8           0        4.358435    1.361492   -1.283100
     15          6           0       -3.265876   -2.238683   -0.176293
     16          6           0       -4.346421   -1.377227   -0.392713
     17          6           0       -4.174200    0.008545   -0.325452
     18          6           0       -2.902008    0.500810   -0.038236
     19          6           0       -1.805768   -0.331622    0.182221
     20          6           0       -2.001228   -1.714056    0.109979
     21          1           0       -3.408689   -3.313888   -0.230478
     22          1           0       -5.329692   -1.781844   -0.615221
     23          1           0       -4.993367    0.698271   -0.488733
     24          1           0       -0.837476    0.101379    0.402082
     25          1           0       -1.160245   -2.380684    0.278500
     26          7           0       -2.707384    1.966099    0.035607
     27          8           0       -1.576551    2.374746    0.290287
     28          8           0       -3.689355    2.678198   -0.162592
 ---------------------------------------------------------------------

 SCF Done:  E(RHF) =  -868.336191049     A.U. after   16 cycles
 E2 =    -0.2602663020D+01 EUMP2 =    -0.87093885406876D+03

 The electronic state is 1-A.
 Alpha  occ. eigenvalues --  -20.60973 -20.60947 -20.60868 -20.60860 -15.86029
 Alpha  occ. eigenvalues --  -15.85923 -11.31767 -11.31397 -11.28353 -11.28340
 Alpha  occ. eigenvalues --  -11.28287 -11.27994 -11.27943 -11.27811 -11.27531
 Alpha  occ. eigenvalues --  -11.27477 -11.27053 -11.27034  -1.60027  -1.59941
 Alpha  occ. eigenvalues --   -1.39570  -1.39491  -1.20002  -1.19598  -1.09356
 Alpha  occ. eigenvalues --   -1.08985  -1.05439  -1.05012  -0.96113  -0.95792
 Alpha  occ. eigenvalues --   -0.86816  -0.86428  -0.82922  -0.82619  -0.77876
 Alpha  occ. eigenvalues --   -0.77642  -0.72245  -0.72137  -0.71349  -0.71270
 Alpha  occ. eigenvalues --   -0.71157  -0.70725  -0.65653  -0.65438  -0.65249
 Alpha  occ. eigenvalues --   -0.65027  -0.62740  -0.62391  -0.56029  -0.55565
 Alpha  occ. eigenvalues --   -0.53699  -0.53504  -0.53346  -0.53115  -0.49033
 Alpha  occ. eigenvalues --   -0.48971  -0.48906  -0.48886  -0.44893  -0.44871
 Alpha  occ. eigenvalues --   -0.38028  -0.37612  -0.37059  -0.36601
 Alpha virt. eigenvalues --    0.04563   0.04904   0.10541   0.11012   0.15825
 Alpha virt. eigenvalues --    0.16373   0.19625   0.21924   0.25817   0.26667
 Alpha virt. eigenvalues --    0.28083   0.28538   0.30134   0.31550   0.32036

 Mulliken charges:
               1
     1  C   -0.179752
     2  C   -0.217367
     3  C   -0.169305
     4  C    0.162032
     5  C   -0.171653
     6  C   -0.225895
     7  H    0.221238
     8  H    0.225385
     9  H    0.279193
    10  H    0.283262
    11  H    0.226992
    12  N    0.488548
    13  O   -0.453967
    14  O   -0.458672
    15  C   -0.171865
    16  C   -0.218765
    17  C   -0.170054
    18  C    0.159232
    19  C   -0.176456
    20  C   -0.220966
    21  H    0.223406
    22  H    0.223823
    23  H    0.276691
    24  H    0.279147
    25  H    0.215764
    26  N    0.487799
    27  O   -0.458139
    28  O   -0.459655
 Sum of Mulliken charges =  -0.00000

 Dipole moment (field-independent basis, Debye):
    X=             -2.8638    Y=             -9.3534    Z=              0.5004  Tot=              9.7948
 Quadrupole moment (field-independent basis, Debye-Ang):
   XX=           -110.7064   YY=           -110.4660   ZZ=           -101.3232
   XY=             -0.1914   XZ=              2.9177   YZ=              1.7054

 Normal termination of Gaussian 16 at Fri May  7 11:14:20 2021.
