 Gaussian 16, Revision A.03,
 Gaussian 16:  EM64L-G16RevA.03 25-Dec-2016

 -------------
 #p 6-31g* mp2
 -------------

 ------------------------------------------------------
 Input file generated by CHIRIPA (05-May-2021 14:57:25)
 ------------------------------------------------------
 Symbolic Z-matrix:
 Charge =  0 Multiplicity = 1

                         Standard orientation:
 ---------------------------------------------------------------------
 Center     Atomic      Atomic             Coordinates (Angstroms)
 Number     Number       Type             X           Y           Z
 ---------------------------------------------------------------------
      1          6           0       -1.991620    1.922020    0.032073
      2          6           0       -1.797761    0.635913   -0.482578
      3          6           0       -2.862226   -0.267478   -0.555697
      4          6           0       -4.112797    0.150413   -0.103225
      5          6           0       -4.337659    1.424975    0.414671
      6          6           0       -3.258716    2.311760    0.478269
      7          1           0       -1.159095    2.617346    0.085176
      8          1           0       -0.814815    0.330500   -0.829832
      9          1           0       -2.740132   -1.269156   -0.949592
     10          1           0       -5.329075    1.700595    0.753116
     11          1           0       -3.412203    3.309937    0.878430
     12          7           0       -5.247362   -0.797176   -0.175593
     13          8           0       -6.339350   -0.404673    0.229549
     14          8           0       -5.023162   -1.914458   -0.636087
     15          6           0        6.008847    0.843108   -0.748384
     16          6           0        5.055797    0.370391   -1.656545
     17          6           0        3.897898   -0.268161   -1.202597
     18          6           0        3.724426   -0.417735    0.172476
     19          6           0        4.655600    0.042379    1.102261
     20          6           0        5.806064    0.677884    0.625697
     21          1           0        6.905444    1.337966   -1.109806
     22          1           0        5.210639    0.497314   -2.724234
     23          1           0        3.143866   -0.643709   -1.883638
     24          1           0        4.473406   -0.098804    2.160699
     25          1           0        6.544516    1.043997    1.333296
     26          7           0        2.502546   -1.092129    0.665021
     27          8           0        2.373219   -1.211527    1.881432
     28          8           0        1.697297   -1.488550   -0.174659
 ---------------------------------------------------------------------

 SCF Done:  E(RHF) =  -868.339117900     A.U. after   16 cycles
 E2 =    -0.2598584927D+01 EUMP2 =    -0.87093770282678D+03

 The electronic state is 1-A.
 Alpha  occ. eigenvalues --  -20.61685 -20.61623 -20.60084 -20.60070 -15.86685
 Alpha  occ. eigenvalues --  -15.85126 -11.31907 -11.30392 -11.28470 -11.28434
 Alpha  occ. eigenvalues --  -11.28148 -11.27430 -11.27410 -11.26987 -11.26855
 Alpha  occ. eigenvalues --  -11.26697 -11.26027 -11.25809  -1.60716  -1.59156
 Alpha  occ. eigenvalues --   -1.40276  -1.38712  -1.20062  -1.18548  -1.09479
 Alpha  occ. eigenvalues --   -1.07977  -1.05439  -1.03916  -0.96337  -0.94829
 Alpha  occ. eigenvalues --   -0.86842  -0.85334  -0.83173  -0.81646  -0.78244
 Alpha  occ. eigenvalues --   -0.76698  -0.72902  -0.72034  -0.71350  -0.71157
 Alpha  occ. eigenvalues --   -0.70475  -0.69693  -0.65712  -0.65430  -0.64201
 Alpha  occ. eigenvalues --   -0.63908  -0.62786  -0.61253  -0.55930  -0.54478
 Alpha  occ. eigenvalues --   -0.53781  -0.53521  -0.52275  -0.51999  -0.49671
 Alpha  occ. eigenvalues --   -0.49638  -0.48109  -0.48098  -0.45699  -0.44139
 Alpha  occ. eigenvalues --   -0.38030  -0.37039  -0.36555  -0.35506
 Alpha virt. eigenvalues --    0.04242   0.05806   0.10616   0.12133   0.15744
 Alpha virt. eigenvalues --    0.17322   0.20775   0.22263   0.26692   0.27448
 Alpha virt. eigenvalues --    0.28378   0.29036   0.30340   0.31478   0.32291

 Mulliken charges:
               1
     1  C   -0.171701
     2  C   -0.219358
     3  C   -0.170742
     4  C    0.158124
     5  C   -0.172510
     6  C   -0.218406
     7  H    0.221074
     8  H    0.234763
     9  H    0.278501
    10  H    0.272867
    11  H    0.219704
    12  N    0.488104
    13  O   -0.463288
    14  O   -0.460109
    15  C   -0.170307
    16  C   -0.218445
    17  C   -0.172556
    18  C    0.157088
    19  C   -0.170976
    20  C   -0.218514
    21  H    0.227916
    22  H    0.225318
    23  H    0.274072
    24  H    0.277043
    25  H    0.225685
    26  N    0.488141
    27  O   -0.454495
    28  O   -0.466993
 Sum of Mulliken charges =  -0.00000

 Dipole moment (field-independent basis, Debye):
    X=              8.7357    Y=              5.6163    Z=             -1.4527  Tot=             10.4865
 Quadrupole moment (field-independent basis, Debye-Ang):
   XX=           -104.1677   YY=           -104.7504   ZZ=           -100.8486
   XY=             -7.6247   XZ=             -6.8151   YZ=              3.0258

 Normal termination of Gaussian 16 at Thu May  6 09:51:49 2021.
