 Gaussian 16, Revision A.03,
 Gaussian 16:  EM64L-G16RevA.03 25-Dec-2016

 -------------
 #p 6-31g* mp2
 -------------

 ------------------------------------------------------
 Input file generated by CHIRIPA (05-May-2021 14:51:12)
 ------------------------------------------------------
 Symbolic Z-matrix:
 Charge =  0 Multiplicity = 1

                         Standard orientation:
 ---------------------------------------------------------------------
 Center     Atomic      Atomic             Coordinates (Angstroms)
 Number     Number       Type             X           Y           Z
 ---------------------------------------------------------------------
      1          6           0        3.049805   -0.391340   -0.803314
      2          6           0        2.854491   -1.731237   -0.093022
      3          6           0        3.221360   -2.926127   -0.973612
      4          1           0        2.440465   -0.375846   -1.717322
      5          1           0        4.097031   -0.303636   -1.124283
      6          1           0        1.808267   -1.815786    0.227731
      7          1           0        3.464219   -1.743468    0.819500
      8          1           0        4.270016   -2.869151   -1.282928
      9          1           0        2.604654   -2.941880   -1.878060
     10          1           0        3.074244   -3.873746   -0.446132
     11          6           0        2.687220    0.812708    0.064169
     12          6           0        2.882534    2.152605   -0.646123
     13          6           0        2.515664    3.347495    0.234467
     14          1           0        1.639994    0.725005    0.385137
     15          1           0        3.296560    0.797214    0.978176
     16          1           0        2.272805    2.164836   -1.558646
     17          1           0        3.928758    2.237154   -0.966876
     18          1           0        3.132370    3.363248    1.138915
     19          1           0        1.467009    3.290519    0.543783
     20          1           0        2.662781    4.295114   -0.293014
     21          6           0       -3.232380   -0.246879   -0.301041
     22          6           0       -4.634982    0.360804   -0.263450
     23          6           0       -5.350211    0.280871   -1.612470
     24          1           0       -2.635973    0.270304   -1.065086
     25          1           0       -3.303535   -1.296656   -0.617742
     26          1           0       -4.561335    1.408730    0.054420
     27          1           0       -5.228062   -0.157759    0.500726
     28          1           0       -5.453073   -0.760948   -1.932832
     29          1           0       -4.782559    0.814441   -2.381674
     30          1           0       -6.351071    0.720969   -1.562929
     31          6           0       -2.504645   -0.174489    1.040186
     32          6           0       -1.102042   -0.782172    1.002597
     33          6           0       -0.386813   -0.702239    2.351615
     34          1           0       -2.433489    0.875288    1.356887
     35          1           0       -3.101053   -0.691672    1.804231
     36          1           0       -0.508964   -0.263609    0.238419
     37          1           0       -1.175690   -1.830098    0.684725
     38          1           0       -0.954466   -1.235809    3.120819
     39          1           0       -0.283952    0.339580    2.671978
     40          1           0        0.614046   -1.142338    2.302074
 ---------------------------------------------------------------------

 SCF Done:  E(RHF) =  -470.732450004     A.U. after   11 cycles
 E2 =    -0.1584500926D+01 EUMP2 =    -0.47231695093024D+03

 The electronic state is 1-A.
 Alpha  occ. eigenvalues --  -11.21667 -11.21638 -11.21601 -11.21561 -11.21458
 Alpha  occ. eigenvalues --  -11.21399 -11.21376 -11.21304 -11.21101 -11.21089
 Alpha  occ. eigenvalues --  -11.21055 -11.21053  -1.08510  -1.08397  -1.03588
 Alpha  occ. eigenvalues --   -1.03516  -0.96032  -0.95961  -0.87032  -0.86988
 Alpha  occ. eigenvalues --   -0.79649  -0.79592  -0.78378  -0.78170  -0.65290
 Alpha  occ. eigenvalues --   -0.64929  -0.61030  -0.60900  -0.59491  -0.59243
 Alpha  occ. eigenvalues --   -0.57643  -0.57573  -0.55402  -0.55165  -0.52772
 Alpha  occ. eigenvalues --   -0.52626  -0.52458  -0.52369  -0.49958  -0.49917
 Alpha  occ. eigenvalues --   -0.48012  -0.47852  -0.46769  -0.46585  -0.46019
 Alpha  occ. eigenvalues --   -0.45783  -0.45750  -0.45341  -0.43826  -0.43765
 Alpha virt. eigenvalues --    0.20681   0.23137   0.23818   0.24157   0.26217
 Alpha virt. eigenvalues --    0.26585   0.26864   0.27505   0.28041   0.29713
 Alpha virt. eigenvalues --    0.30125   0.31251   0.31766   0.31877   0.32298

 Mulliken charges:
               1
     1  C   -0.297305
     2  C   -0.308488
     3  C   -0.475216
     4  H    0.148988
     5  H    0.149475
     6  H    0.161987
     7  H    0.151204
     8  H    0.155063
     9  H    0.155194
    10  H    0.159975
    11  C   -0.308053
    12  C   -0.299246
    13  C   -0.475440
    14  H    0.160237
    15  H    0.149552
    16  H    0.151263
    17  H    0.152039
    18  H    0.155473
    19  H    0.154189
    20  H    0.160265
    21  C   -0.298420
    22  C   -0.299702
    23  C   -0.475742
    24  H    0.149325
    25  H    0.149667
    26  H    0.152030
    27  H    0.152120
    28  H    0.155244
    29  H    0.155157
    30  H    0.160430
    31  C   -0.297883
    32  C   -0.305807
    33  C   -0.480740
    34  H    0.149491
    35  H    0.150158
    36  H    0.154774
    37  H    0.152108
    38  H    0.155612
    39  H    0.155290
    40  H    0.165734
 Sum of Mulliken charges =  -0.00000

 Dipole moment (field-independent basis, Debye):
    X=             -0.0216    Y=             -0.0127    Z=              0.0183  Tot=              0.0310
 Quadrupole moment (field-independent basis, Debye-Ang):
   XX=            -84.2296   YY=            -84.9165   ZZ=            -85.6921
   XY=              0.6421   XZ=             -0.1930   YZ=             -0.7182

 Normal termination of Gaussian 16 at Thu May  6 00:45:36 2021.
