 Gaussian 16, Revision A.03,
 Gaussian 16:  EM64L-G16RevA.03 25-Dec-2016

 -------------
 #p 6-31g* mp2
 -------------

 ------------------------------------------------------
 Input file generated by CHIRIPA (05-May-2021 14:51:12)
 ------------------------------------------------------
 Symbolic Z-matrix:
 Charge =  0 Multiplicity = 1

                         Standard orientation:
 ---------------------------------------------------------------------
 Center     Atomic      Atomic             Coordinates (Angstroms)
 Number     Number       Type             X           Y           Z
 ---------------------------------------------------------------------
      1          6           0       -3.116545    1.059438   -0.555233
      2          6           0       -2.026773    1.766164    0.251563
      3          6           0       -1.786853    3.203539   -0.211240
      4          1           0       -2.837326    1.062270   -1.617765
      5          1           0       -4.051102    1.631923   -0.476115
      6          1           0       -1.094906    1.191775    0.172076
      7          1           0       -2.308527    1.761480    1.312322
      8          1           0       -2.701978    3.796847   -0.115668
      9          1           0       -1.481461    3.223905   -1.262392
     10          1           0       -1.003978    3.689956    0.378984
     11          6           0       -3.367902   -0.378368   -0.104389
     12          6           0       -4.457674   -1.085093   -0.911185
     13          6           0       -4.697593   -2.522468   -0.448382
     14          1           0       -2.433345   -0.950852   -0.183507
     15          1           0       -3.647121   -0.381200    0.958143
     16          1           0       -4.175920   -1.080410   -1.971943
     17          1           0       -5.389541   -0.510705   -0.831698
     18          1           0       -5.002986   -2.542834    0.602770
     19          1           0       -3.782469   -3.115776   -0.543954
     20          1           0       -5.480469   -3.008886   -1.038606
     21          6           0        3.446279   -0.319511   -0.405955
     22          6           0        4.960785   -0.293059   -0.614661
     23          6           0        5.353322   -0.251092   -2.091803
     24          1           0        3.026448   -1.193008   -0.923346
     25          1           0        3.002396    0.567275   -0.879211
     26          1           0        5.401830   -1.178921   -0.139958
     27          1           0        5.377082    0.580370   -0.096553
     28          1           0        4.940460    0.640377   -2.574948
     29          1           0        4.965348   -1.128910   -2.618599
     30          1           0        6.440338   -0.232689   -2.217970
     31          6           0        3.038168   -0.361558    1.065577
     32          6           0        1.523663   -0.388013    1.274283
     33          6           0        1.131125   -0.429978    2.751424
     34          1           0        3.482051   -1.248346    1.538832
     35          1           0        3.457998    0.511937    1.582968
     36          1           0        1.107365   -1.261441    0.756175
     37          1           0        1.082617    0.497850    0.799581
     38          1           0        1.519098    0.447839    3.278221
     39          1           0        1.543987   -1.321447    3.234569
     40          1           0        0.044109   -0.448382    2.877591
 ---------------------------------------------------------------------

 SCF Done:  E(RHF) =  -470.733316511     A.U. after   11 cycles
 E2 =    -0.1582899435D+01 EUMP2 =    -0.47231621594558D+03

 The electronic state is 1-A.
 Alpha  occ. eigenvalues --  -11.21617 -11.21606 -11.21597 -11.21559 -11.21422
 Alpha  occ. eigenvalues --  -11.21394 -11.21362 -11.21335 -11.21086 -11.21080
 Alpha  occ. eigenvalues --  -11.21070 -11.21054  -1.08453  -1.08413  -1.03560
 Alpha  occ. eigenvalues --   -1.03504  -0.95988  -0.95972  -0.87002  -0.86990
 Alpha  occ. eigenvalues --   -0.79682  -0.79525  -0.78327  -0.78167  -0.65127
 Alpha  occ. eigenvalues --   -0.65009  -0.61046  -0.60832  -0.59427  -0.59271
 Alpha  occ. eigenvalues --   -0.57632  -0.57547  -0.55290  -0.55245  -0.52692
 Alpha  occ. eigenvalues --   -0.52655  -0.52410  -0.52398  -0.49977  -0.49881
 Alpha  occ. eigenvalues --   -0.48072  -0.47824  -0.46846  -0.46455  -0.45961
 Alpha  occ. eigenvalues --   -0.45764  -0.45739  -0.45384  -0.43791  -0.43774
 Alpha virt. eigenvalues --    0.21441   0.23118   0.23679   0.24577   0.25918
 Alpha virt. eigenvalues --    0.26487   0.26686   0.27663   0.28155   0.29093
 Alpha virt. eigenvalues --    0.30484   0.31351   0.31620   0.31830   0.32089

 Mulliken charges:
               1
     1  C   -0.297521
     2  C   -0.308642
     3  C   -0.475603
     4  H    0.149526
     5  H    0.149393
     6  H    0.161167
     7  H    0.151702
     8  H    0.155397
     9  H    0.154943
    10  H    0.159715
    11  C   -0.298816
    12  C   -0.299634
    13  C   -0.475690
    14  H    0.150134
    15  H    0.149337
    16  H    0.151974
    17  H    0.151953
    18  H    0.155167
    19  H    0.155093
    20  H    0.160242
    21  C   -0.298397
    22  C   -0.299633
    23  C   -0.475735
    24  H    0.149408
    25  H    0.149309
    26  H    0.152017
    27  H    0.152046
    28  H    0.155193
    29  H    0.155113
    30  H    0.160344
    31  C   -0.297504
    32  C   -0.305441
    33  C   -0.476136
    34  H    0.149590
    35  H    0.149708
    36  H    0.151160
    37  H    0.157320
    38  H    0.154946
    39  H    0.155071
    40  H    0.161787
 Sum of Mulliken charges =  -0.00000

 Dipole moment (field-independent basis, Debye):
    X=              0.0084    Y=             -0.0024    Z=              0.0049  Tot=              0.0100
 Quadrupole moment (field-independent basis, Debye-Ang):
   XX=            -84.6122   YY=            -84.7766   ZZ=            -85.4373
   XY=             -0.5416   XZ=              0.0397   YZ=              0.5179

 Normal termination of Gaussian 16 at Wed May  5 18:18:13 2021.
