 Gaussian 16, Revision A.03,
 Gaussian 16:  EM64L-G16RevA.03 25-Dec-2016

 -------------
 #p 6-31g* mp2
 -------------

 ------------------------------------------------------
 Input file generated by CHIRIPA (05-May-2021 14:55:19)
 ------------------------------------------------------
 Symbolic Z-matrix:
 Charge =  0 Multiplicity = 1

                         Standard orientation:
 ---------------------------------------------------------------------
 Center     Atomic      Atomic             Coordinates (Angstroms)
 Number     Number       Type             X           Y           Z
 ---------------------------------------------------------------------
      1          6           0       -2.063792    1.954568    1.276297
      2          6           0       -3.015834    1.754165    0.271322
      3          6           0       -3.183577    0.492128   -0.306322
      4          6           0       -2.378689   -0.551832    0.147100
      5          6           0       -1.421531   -0.383808    1.146552
      6          6           0       -1.271076    0.886824    1.709941
      7          1           0       -1.940200    2.938287    1.719488
      8          1           0       -3.632862    2.581552   -0.067428
      9          1           0       -3.913014    0.309064   -1.085955
     10          1           0       -0.821148   -1.227942    1.463406
     11          1           0       -0.530911    1.039533    2.490249
     12          7           0       -2.547120   -1.892444   -0.456880
     13          8           0       -1.825600   -2.795835   -0.039830
     14          8           0       -3.397466   -2.014440   -1.335894
     15          6           0        2.479874    0.948220   -0.148497
     16          6           0        1.952163    1.690071   -1.376978
     17          6           0        0.893935    2.736476   -1.026288
     18          1           0        1.640082    0.463647    0.368113
     19          1           0        2.902776    1.676463    0.557344
     20          1           0        1.531631    0.960514   -2.080905
     21          1           0        2.793335    2.172774   -1.890831
     22          1           0        1.305183    3.486120   -0.342541
     23          1           0        0.036310    2.266973   -0.533696
     24          1           0        0.530479    3.254748   -1.919123
     25          6           0        3.538506   -0.101158   -0.482908
     26          6           0        4.066216   -0.843010    0.745572
     27          6           0        5.124445   -1.889415    0.394882
     28          1           0        3.115604   -0.829401   -1.188749
     29          1           0        4.378298    0.383413   -0.999519
     30          1           0        3.225045   -1.325712    1.259425
     31          1           0        4.486749   -0.113453    1.449500
     32          1           0        5.982071   -1.419911   -0.097710
     33          1           0        4.713197   -2.639058   -0.288865
     34          1           0        5.487901   -2.407686    1.287717
 ---------------------------------------------------------------------

 SCF Done:  E(RHF) =  -669.534547969     A.U. after   15 cycles
 E2 =    -0.2094035277D+01 EUMP2 =    -0.67162858324599D+03

 The electronic state is 1-A.
 Alpha  occ. eigenvalues --  -20.60869 -20.60864 -15.85924 -11.31325 -11.27895
 Alpha  occ. eigenvalues --  -11.27891 -11.27590 -11.26895 -11.26875 -11.21761
 Alpha  occ. eigenvalues --  -11.21751 -11.21609 -11.21481 -11.21166 -11.21113
 Alpha  occ. eigenvalues --   -1.59944  -1.39497  -1.19511  -1.08898  -1.08586
 Alpha  occ. eigenvalues --   -1.04906  -1.03664  -0.96125  -0.95710  -0.87142
 Alpha  occ. eigenvalues --   -0.86291  -0.82539  -0.79748  -0.78431  -0.77580
 Alpha  occ. eigenvalues --   -0.72140  -0.71269  -0.70589  -0.65238  -0.65137
 Alpha  occ. eigenvalues --   -0.64884  -0.62240  -0.61087  -0.59495  -0.57759
 Alpha  occ. eigenvalues --   -0.55482  -0.55382  -0.53375  -0.52978  -0.52805
 Alpha  occ. eigenvalues --   -0.52451  -0.50030  -0.48901  -0.48894  -0.48041
 Alpha  occ. eigenvalues --   -0.46751  -0.45956  -0.45875  -0.44894  -0.43932
 Alpha  occ. eigenvalues --   -0.37378  -0.36469
 Alpha virt. eigenvalues --    0.04898   0.11112   0.16283   0.20876   0.22866
 Alpha virt. eigenvalues --    0.24209   0.25680   0.26825   0.27661   0.28155
 Alpha virt. eigenvalues --    0.29050   0.30693   0.31412   0.31688   0.31908

 Mulliken charges:
               1
     1  C   -0.174397
     2  C   -0.216048
     3  C   -0.170987
     4  C    0.158622
     5  C   -0.171269
     6  C   -0.216424
     7  H    0.227669
     8  H    0.224711
     9  H    0.276339
    10  H    0.276111
    11  H    0.225960
    12  N    0.488083
    13  O   -0.460260
    14  O   -0.459901
    15  C   -0.300811
    16  C   -0.297976
    17  C   -0.486573
    18  H    0.146676
    19  H    0.145700
    20  H    0.154961
    21  H    0.151885
    22  H    0.148529
    23  H    0.167489
    24  H    0.158560
    25  C   -0.298868
    26  C   -0.299027
    27  C   -0.476047
    28  H    0.153970
    29  H    0.150162
    30  H    0.149253
    31  H    0.149836
    32  H    0.155219
    33  H    0.158553
    34  H    0.160302
 Sum of Mulliken charges =  -0.00000

 Dipole moment (field-independent basis, Debye):
    X=              0.4642    Y=              4.6492    Z=              2.1245  Tot=              5.1326
 Quadrupole moment (field-independent basis, Debye-Ang):
   XX=            -95.2510   YY=           -100.2786   ZZ=            -92.8201
   XY=            -12.5080   XZ=             -2.5716   YZ=             -1.4606

 Normal termination of Gaussian 16 at Thu May  6 17:22:38 2021.
