 Gaussian 16, Revision A.03,
 Gaussian 16:  EM64L-G16RevA.03 25-Dec-2016

 -------------
 #p 6-31g* mp2
 -------------

 ------------------------------------------------------
 Input file generated by CHIRIPA (05-May-2021 14:57:22)
 ------------------------------------------------------
 Symbolic Z-matrix:
 Charge =  0 Multiplicity = 1

                         Standard orientation:
 ---------------------------------------------------------------------
 Center     Atomic      Atomic             Coordinates (Angstroms)
 Number     Number       Type             X           Y           Z
 ---------------------------------------------------------------------
      1          6           0        2.399059    1.353400   -0.456665
      2          6           0        2.384513    0.043258    0.033067
      3          6           0        3.580419   -0.650538    0.240440
      4          6           0        4.778154   -0.000823   -0.053828
      5          6           0        4.825462    1.303735   -0.542890
      6          6           0        3.617339    1.978355   -0.742577
      7          1           0        1.465305    1.884909   -0.614772
      8          1           0        1.439867   -0.444593    0.255980
      9          1           0        3.598114   -1.665484    0.618577
     10          1           0        5.782792    1.763680   -0.755933
     11          1           0        3.631670    2.995757   -1.123014
     12          7           0        6.050673   -0.725163    0.161639
     13          8           0        7.092657   -0.130501   -0.105351
     14          8           0        5.981994   -1.873846    0.593433
     15          6           0       -2.107630   -0.161014    0.644854
     16          6           0       -2.618640   -1.017084   -0.336235
     17          6           0       -3.980430   -1.002159   -0.652231
     18          6           0       -4.806328   -0.114453    0.035635
     19          6           0       -4.327254    0.750738    1.018092
     20          6           0       -2.962060    0.718614    1.317699
     21          1           0       -1.048436   -0.179289    0.883961
     22          1           0       -1.957426   -1.701261   -0.860393
     23          1           0       -4.402559   -1.654075   -1.407366
     24          1           0       -5.011132    1.421737    1.523551
     25          1           0       -2.567983    1.384584    2.080085
     26          7           0       -6.249795   -0.089548   -0.290221
     27          8           0       -6.956520    0.701829    0.330183
     28          8           0       -6.647128   -0.861876   -1.159860
 ---------------------------------------------------------------------

 SCF Done:  E(RHF) =  -868.336412424     A.U. after   16 cycles
 E2 =    -0.2599572240D+01 EUMP2 =    -0.87093598466360D+03

 The electronic state is 1-A.
 Alpha  occ. eigenvalues --  -20.61347 -20.61339 -20.61316 -20.61311 -15.86407
 Alpha  occ. eigenvalues --  -15.86374 -11.31910 -11.31897 -11.28563 -11.28477
 Alpha  occ. eigenvalues --  -11.28462 -11.28458 -11.28385 -11.28327 -11.27706
 Alpha  occ. eigenvalues --  -11.27577 -11.27561 -11.27502  -1.60419  -1.60388
 Alpha  occ. eigenvalues --   -1.39969  -1.39937  -1.20119  -1.20092  -1.09503
 Alpha  occ. eigenvalues --   -1.09482  -1.05555  -1.05506  -0.96306  -0.96284
 Alpha  occ. eigenvalues --   -0.86961  -0.86913  -0.83143  -0.83101  -0.78155
 Alpha  occ. eigenvalues --   -0.78101  -0.72623  -0.72590  -0.71745  -0.71712
 Alpha  occ. eigenvalues --   -0.71326  -0.71201  -0.65782  -0.65758  -0.65641
 Alpha  occ. eigenvalues --   -0.65477  -0.62912  -0.62837  -0.56172  -0.56021
 Alpha  occ. eigenvalues --   -0.53862  -0.53842  -0.53651  -0.53607  -0.49396
 Alpha  occ. eigenvalues --   -0.49367  -0.49361  -0.49334  -0.45343  -0.45306
 Alpha  occ. eigenvalues --   -0.38131  -0.38113  -0.37155  -0.37097
 Alpha virt. eigenvalues --    0.04409   0.04412   0.10470   0.10544   0.15807
 Alpha virt. eigenvalues --    0.15854   0.17404   0.21905   0.24545   0.26534
 Alpha virt. eigenvalues --    0.27430   0.28848   0.29850   0.31141   0.31852

 Mulliken charges:
               1
     1  C   -0.171842
     2  C   -0.222281
     3  C   -0.170263
     4  C    0.159225
     5  C   -0.169548
     6  C   -0.218326
     7  H    0.225175
     8  H    0.215936
     9  H    0.277056
    10  H    0.278254
    11  H    0.226322
    12  N    0.487937
    13  O   -0.458184
    14  O   -0.459332
    15  C   -0.176833
    16  C   -0.219059
    17  C   -0.170124
    18  C    0.159451
    19  C   -0.170113
    20  C   -0.219250
    21  H    0.220900
    22  H    0.223015
    23  H    0.278147
    24  H    0.277809
    25  H    0.225086
    26  N    0.487828
    27  O   -0.458579
    28  O   -0.458407
 Sum of Mulliken charges =  -0.00000

 Dipole moment (field-independent basis, Debye):
    X=              0.6006    Y=              2.5279    Z=              0.3324  Tot=              2.6194
 Quadrupole moment (field-independent basis, Debye-Ang):
   XX=           -193.9901   YY=            -99.4391   ZZ=           -102.9701
   XY=             14.0624   XZ=            -10.3588   YZ=              1.0952

 Normal termination of Gaussian 16 at Thu May  6 21:07:21 2021.
