 Gaussian 16, Revision A.03,
 Gaussian 16:  EM64L-G16RevA.03 25-Dec-2016

 -------------
 #p 6-31g* mp2
 -------------

 ------------------------------------------------------
 Input file generated by CHIRIPA (05-May-2021 14:57:21)
 ------------------------------------------------------
 Symbolic Z-matrix:
 Charge =  0 Multiplicity = 1

                         Standard orientation:
 ---------------------------------------------------------------------
 Center     Atomic      Atomic             Coordinates (Angstroms)
 Number     Number       Type             X           Y           Z
 ---------------------------------------------------------------------
      1          6           0       -1.340559    0.645029    0.227305
      2          6           0       -1.781927   -0.576471    0.746586
      3          6           0       -3.112788   -0.975103    0.590224
      4          6           0       -3.979110   -0.123823   -0.093953
      5          6           0       -3.569544    1.099240   -0.622784
      6          6           0       -2.234201    1.477519   -0.454520
      7          1           0       -0.304974    0.946790    0.353394
      8          1           0       -1.090136   -1.225015    1.276550
      9          1           0       -3.481110   -1.915407    0.982123
     10          1           0       -4.282580    1.724446   -1.146344
     11          1           0       -1.894221    2.426712   -0.858860
     12          7           0       -5.390405   -0.535063   -0.265787
     13          8           0       -6.133859    0.232894   -0.872545
     14          8           0       -5.726402   -1.617563    0.209542
     15          6           0        2.300047    1.927640    0.943584
     16          6           0        2.215952    0.652349    1.511988
     17          6           0        3.012606   -0.392165    1.033574
     18          6           0        3.886350   -0.124893   -0.019243
     19          6           0        3.993027    1.134894   -0.606481
     20          6           0        3.186753    2.164424   -0.111976
     21          1           0        1.677449    2.733224    1.321478
     22          1           0        1.528221    0.465560    2.331855
     23          1           0        2.967701   -1.388996    1.455153
     24          1           0        4.688047    1.290534   -1.422656
     25          1           0        3.254180    3.153831   -0.555341
     26          7           0        4.734824   -1.222743   -0.534236
     27          8           0        5.496611   -0.961475   -1.462708
     28          8           0        4.622007   -2.323716    0.000335
 ---------------------------------------------------------------------

 SCF Done:  E(RHF) =  -868.336287166     A.U. after   16 cycles
 E2 =    -0.2601789405D+01 EUMP2 =    -0.87093807657113D+03

 The electronic state is 1-A.
 Alpha  occ. eigenvalues --  -20.61649 -20.61642 -20.61027 -20.61021 -15.86711
 Alpha  occ. eigenvalues --  -15.86085 -11.32347 -11.31517 -11.28974 -11.28902
 Alpha  occ. eigenvalues --  -11.28769 -11.28114 -11.28110 -11.28079 -11.27979
 Alpha  occ. eigenvalues --  -11.27751 -11.27154 -11.27135  -1.60717  -1.60101
 Alpha  occ. eigenvalues --   -1.40263  -1.39653  -1.20568  -1.19705  -1.09935
 Alpha  occ. eigenvalues --   -1.09083  -1.05998  -1.05128  -0.96707  -0.95905
 Alpha  occ. eigenvalues --   -0.87392  -0.86526  -0.83515  -0.82747  -0.78505
 Alpha  occ. eigenvalues --   -0.77782  -0.72925  -0.72300  -0.72044  -0.71700
 Alpha  occ. eigenvalues --   -0.71426  -0.70819  -0.66209  -0.65998  -0.65356
 Alpha  occ. eigenvalues --   -0.65153  -0.63308  -0.62480  -0.56506  -0.55880
 Alpha  occ. eigenvalues --   -0.54089  -0.54051  -0.53446  -0.53228  -0.49703
 Alpha  occ. eigenvalues --   -0.49661  -0.49067  -0.49051  -0.45608  -0.45043
 Alpha  occ. eigenvalues --   -0.38561  -0.37691  -0.37592  -0.36742
 Alpha virt. eigenvalues --    0.03979   0.04764   0.09908   0.10892   0.15321
 Alpha virt. eigenvalues --    0.16207   0.19448   0.21903   0.25104   0.26634
 Alpha virt. eigenvalues --    0.27702   0.29233   0.29727   0.31177   0.32168

 Mulliken charges:
               1
     1  C   -0.178492
     2  C   -0.223675
     3  C   -0.169392
     4  C    0.158090
     5  C   -0.169655
     6  C   -0.222422
     7  H    0.235180
     8  H    0.219219
     9  H    0.276858
    10  H    0.276184
    11  H    0.220841
    12  N    0.487991
    13  O   -0.459868
    14  O   -0.459395
    15  C   -0.180973
    16  C   -0.229299
    17  C   -0.169774
    18  C    0.160419
    19  C   -0.168885
    20  C   -0.217418
    21  H    0.228719
    22  H    0.226232
    23  H    0.278257
    24  H    0.280070
    25  H    0.227568
    26  N    0.487956
    27  O   -0.456610
    28  O   -0.457724
 Sum of Mulliken charges =  -0.00000

 Dipole moment (field-independent basis, Debye):
    X=              2.3318    Y=              5.2671    Z=              2.3126  Tot=              6.2071
 Quadrupole moment (field-independent basis, Debye-Ang):
   XX=           -166.2363   YY=           -100.9790   ZZ=           -102.5649
   XY=              9.7591   XZ=              3.0584   YZ=             -5.4705

 Normal termination of Gaussian 16 at Wed May  5 17:45:00 2021.
