 Gaussian 16, Revision A.03,
 Gaussian 16:  EM64L-G16RevA.03 25-Dec-2016

 -------------
 #p 6-31g* mp2
 -------------

 ------------------------------------------------------
 Input file generated by CHIRIPA (05-May-2021 14:53:13)
 ------------------------------------------------------
 Symbolic Z-matrix:
 Charge =  0 Multiplicity = 1

                         Standard orientation:
 ---------------------------------------------------------------------
 Center     Atomic      Atomic             Coordinates (Angstroms)
 Number     Number       Type             X           Y           Z
 ---------------------------------------------------------------------
      1          6           0        3.348396   -1.085674    0.360928
      2          6           0        2.121261   -1.556841   -0.420178
      3          6           0        1.366837   -2.683035    0.287159
      4          1           0        4.023391   -1.937773    0.519845
      5          1           0        3.032373   -0.747177    1.357394
      6          1           0        2.439325   -1.893055   -1.415373
      7          1           0        1.449199   -0.703481   -0.577420
      8          1           0        1.021635   -2.355527    1.273149
      9          1           0        2.017387   -3.551860    0.430435
     10          1           0        0.493324   -3.004536   -0.288576
     11          6           0        4.113060    0.039892   -0.333419
     12          6           0        5.340194    0.511059    0.447688
     13          6           0        6.094618    1.637253   -0.259650
     14          1           0        4.429082   -0.298605   -1.329885
     15          1           0        3.438064    0.891991   -0.492336
     16          1           0        6.012256   -0.342301    0.604930
     17          1           0        5.022130    0.847273    1.442882
     18          1           0        5.444068    2.506078   -0.402926
     19          1           0        6.439821    1.309745   -1.245639
     20          1           0        6.968132    1.958755    0.316085
     21          6           0       -3.910508   -1.908291   -0.091938
     22          6           0       -2.523380   -1.739987   -0.155746
     23          6           0       -1.960573   -0.460984   -0.111615
     24          6           0       -2.818353    0.632488   -0.002897
     25          6           0       -4.204252    0.497351    0.062765
     26          6           0       -4.745046   -0.791054    0.016923
     27          1           0       -4.339160   -2.905503   -0.126884
     28          1           0       -1.872834   -2.605830   -0.240312
     29          1           0       -0.890119   -0.301969   -0.159171
     30          1           0       -4.827107    1.379624    0.146813
     31          1           0       -5.822665   -0.918751    0.066671
     32          7           0       -2.234186    1.991488    0.044730
     33          8           0       -3.011540    2.938665    0.140722
     34          8           0       -1.010024    2.083764   -0.014837
 ---------------------------------------------------------------------

 SCF Done:  E(RHF) =  -669.535207253     A.U. after   15 cycles
 E2 =    -0.2092226298D+01 EUMP2 =    -0.67162743355166D+03

 The electronic state is 1-A.
 Alpha  occ. eigenvalues --  -20.60766 -20.60758 -15.85814 -11.31134 -11.27707
 Alpha  occ. eigenvalues --  -11.27667 -11.27437 -11.26719 -11.26664 -11.22106
 Alpha  occ. eigenvalues --  -11.21910 -11.21558 -11.21462 -11.21277 -11.20857
 Alpha  occ. eigenvalues --   -1.59838  -1.39394  -1.19304  -1.08710  -1.08565
 Alpha  occ. eigenvalues --   -1.04706  -1.03745  -0.96208  -0.95551  -0.87230
 Alpha  occ. eigenvalues --   -0.86104  -0.82385  -0.79831  -0.78301  -0.77444
 Alpha  occ. eigenvalues --   -0.72037  -0.71159  -0.70431  -0.65221  -0.64956
 Alpha  occ. eigenvalues --   -0.64710  -0.62211  -0.61054  -0.59595  -0.57778
 Alpha  occ. eigenvalues --   -0.55488  -0.55173  -0.53133  -0.53034  -0.52750
 Alpha  occ. eigenvalues --   -0.52500  -0.50119  -0.48794  -0.48787  -0.48124
 Alpha  occ. eigenvalues --   -0.46833  -0.45854  -0.45719  -0.44809  -0.43963
 Alpha  occ. eigenvalues --   -0.37290  -0.36298
 Alpha virt. eigenvalues --    0.05087   0.11346   0.16579   0.19479   0.23030
 Alpha virt. eigenvalues --    0.23987   0.25641   0.26279   0.27117   0.28120
 Alpha virt. eigenvalues --    0.29153   0.29853   0.31322   0.31662   0.32517

 Mulliken charges:
               1
     1  C   -0.297849
     2  C   -0.308701
     3  C   -0.483325
     4  H    0.149365
     5  H    0.152600
     6  H    0.155016
     7  H    0.157826
     8  H    0.158497
     9  H    0.161205
    10  H    0.150472
    11  C   -0.301087
    12  C   -0.299997
    13  C   -0.476383
    14  H    0.148553
    15  H    0.158849
    16  H    0.150160
    17  H    0.153667
    18  H    0.158958
    19  H    0.154314
    20  H    0.159998
    21  C   -0.171013
    22  C   -0.226531
    23  C   -0.181059
    24  C    0.157813
    25  C   -0.170038
    26  C   -0.219092
    27  H    0.225774
    28  H    0.229492
    29  H    0.289425
    30  H    0.275334
    31  H    0.223166
    32  N    0.487011
    33  O   -0.460248
    34  O   -0.462170
 Sum of Mulliken charges =  -0.00000

 Dipole moment (field-independent basis, Debye):
    X=             -1.8832    Y=             -4.7192    Z=             -0.1449  Tot=              5.0832
 Quadrupole moment (field-independent basis, Debye-Ang):
   XX=            -78.7056   YY=           -100.8719   ZZ=            -95.5466
   XY=              9.4835   XZ=              0.0965   YZ=              0.6645

 Normal termination of Gaussian 16 at Thu May  6 15:25:24 2021.
