 Gaussian 16, Revision A.03,
 Gaussian 16:  EM64L-G16RevA.03 25-Dec-2016

 -------------
 #p 6-31g* mp2
 -------------

 ------------------------------------------------------
 Input file generated by CHIRIPA (05-May-2021 14:53:14)
 ------------------------------------------------------
 Symbolic Z-matrix:
 Charge =  0 Multiplicity = 1

                         Standard orientation:
 ---------------------------------------------------------------------
 Center     Atomic      Atomic             Coordinates (Angstroms)
 Number     Number       Type             X           Y           Z
 ---------------------------------------------------------------------
      1          6           0       -5.757272   -0.540565   -0.174842
      2          6           0       -7.075576    0.218503   -0.329354
      3          6           0       -8.213434   -0.669540   -0.833787
      4          1           0       -5.479429   -0.980790   -1.142287
      5          1           0       -5.904403   -1.379366    0.519535
      6          1           0       -6.925650    1.056450   -1.022163
      7          1           0       -7.350215    0.657132    0.638527
      8          1           0       -8.391774   -1.498021   -0.140667
      9          1           0       -7.964796   -1.096435   -1.810793
     10          1           0       -9.146409   -0.106717   -0.936975
     11          6           0       -4.610197    0.333760    0.328648
     12          6           0       -3.291893   -0.425308    0.483161
     13          6           0       -2.154035    0.462735    0.987593
     14          1           0       -4.463065    1.172561   -0.365729
     15          1           0       -4.888040    0.773985    1.296094
     16          1           0       -3.017254   -0.863937   -0.484720
     17          1           0       -3.441819   -1.263255    1.175969
     18          1           0       -2.402673    0.889630    1.964599
     19          1           0       -1.975695    1.291216    0.294474
     20          1           0       -1.221060   -0.100088    1.090781
     21          6           0        2.414047    1.994768    0.103990
     22          6           0        2.061271    0.729337    0.584355
     23          6           0        2.959621   -0.338452    0.498657
     24          6           0        4.207930   -0.104253   -0.075942
     25          6           0        4.588796    1.144939   -0.563535
     26          6           0        3.674462    2.198173   -0.467415
     27          1           0        1.709978    2.818599    0.174610
     28          1           0        1.083108    0.568452    1.028605
     29          1           0        2.712444   -1.328333    0.862605
     30          1           0        5.571160    1.274577   -1.001225
     31          1           0        3.951150    3.179853   -0.841304
     32          7           0        5.167434   -1.226969   -0.172184
     33          8           0        6.261048   -0.994689   -0.682763
     34          8           0        4.807712   -2.317976    0.264785
 ---------------------------------------------------------------------

 SCF Done:  E(RHF) =  -669.535546191     A.U. after   15 cycles
 E2 =    -0.2090680618D+01 EUMP2 =    -0.67162622680946D+03

 The electronic state is 1-A.
 Alpha  occ. eigenvalues --  -20.60718 -20.60713 -15.85770 -11.31124 -11.27693
 Alpha  occ. eigenvalues --  -11.27680 -11.27422 -11.26709 -11.26652 -11.22364
 Alpha  occ. eigenvalues --  -11.22189 -11.21998 -11.21987 -11.21832 -11.21383
 Alpha  occ. eigenvalues --   -1.59794  -1.39348  -1.19292  -1.09003  -1.08688
 Alpha  occ. eigenvalues --   -1.04694  -1.04148  -0.96626  -0.95527  -0.87656
 Alpha  occ. eigenvalues --   -0.86088  -0.82361  -0.80219  -0.78777  -0.77411
 Alpha  occ. eigenvalues --   -0.71989  -0.71117  -0.70401  -0.65625  -0.64943
 Alpha  occ. eigenvalues --   -0.64722  -0.62082  -0.61532  -0.60009  -0.58211
 Alpha  occ. eigenvalues --   -0.55900  -0.55197  -0.53470  -0.53063  -0.53022
 Alpha  occ. eigenvalues --   -0.52633  -0.50550  -0.48747  -0.48745  -0.48528
 Alpha  occ. eigenvalues --   -0.47222  -0.46331  -0.46227  -0.44756  -0.44393
 Alpha  occ. eigenvalues --   -0.37272  -0.36296
 Alpha virt. eigenvalues --    0.05122   0.11343   0.16609   0.20351   0.22451
 Alpha virt. eigenvalues --    0.23794   0.25744   0.26097   0.26880   0.27914
 Alpha virt. eigenvalues --    0.28658   0.29765   0.30893   0.31457   0.32275

 Mulliken charges:
               1
     1  C   -0.298913
     2  C   -0.300014
     3  C   -0.476040
     4  H    0.150901
     5  H    0.150829
     6  H    0.152029
     7  H    0.152283
     8  H    0.155944
     9  H    0.155903
    10  H    0.161241
    11  C   -0.299341
    12  C   -0.299056
    13  C   -0.481043
    14  H    0.149565
    15  H    0.150411
    16  H    0.154919
    17  H    0.155014
    18  H    0.158484
    19  H    0.154015
    20  H    0.154422
    21  C   -0.173126
    22  C   -0.224899
    23  C   -0.173266
    24  C    0.158797
    25  C   -0.171339
    26  C   -0.218491
    27  H    0.226011
    28  H    0.234357
    29  H    0.275231
    30  H    0.275315
    31  H    0.223053
    32  N    0.488098
    33  O   -0.460697
    34  O   -0.460596
 Sum of Mulliken charges =  -0.00000

 Dipole moment (field-independent basis, Debye):
    X=             -3.6242    Y=              3.9461    Z=              0.3265  Tot=              5.3678
 Quadrupole moment (field-independent basis, Debye-Ang):
   XX=           -121.4382   YY=            -94.3645   ZZ=            -93.7865
   XY=             19.1571   XZ=             -0.5660   YZ=             -2.2957

 Normal termination of Gaussian 16 at Wed May  5 21:50:14 2021.
