 Gaussian 16, Revision A.03,
 Gaussian 16:  EM64L-G16RevA.03 25-Dec-2016

 -------------
 #p 6-31g* mp2
 -------------

 ------------------------------------------------------
 Input file generated by CHIRIPA (05-May-2021 14:53:17)
 ------------------------------------------------------
 Symbolic Z-matrix:
 Charge =  0 Multiplicity = 1

                         Standard orientation:
 ---------------------------------------------------------------------
 Center     Atomic      Atomic             Coordinates (Angstroms)
 Number     Number       Type             X           Y           Z
 ---------------------------------------------------------------------
      1          6           0       -3.549585    1.068843   -0.060764
      2          6           0       -2.424629    2.101504    0.017144
      3          6           0       -2.939443    3.518369    0.272596
      4          1           0       -4.247873    1.356209   -0.858736
      5          1           0       -4.121592    1.088572    0.877220
      6          1           0       -1.854063    2.078864   -0.920170
      7          1           0       -1.728835    1.811543    0.814897
      8          1           0       -3.491313    3.563286    1.217065
      9          1           0       -3.617253    3.832126   -0.527860
     10          1           0       -2.118631    4.240465    0.324607
     11          6           0       -3.050733   -0.352376   -0.315735
     12          6           0       -4.175690   -1.385037   -0.393643
     13          6           0       -3.660876   -2.801902   -0.649095
     14          1           0       -2.478727   -0.372105   -1.253719
     15          1           0       -2.352446   -0.639742    0.482238
     16          1           0       -4.871484   -1.095076   -1.191396
     17          1           0       -4.746256   -1.362397    0.543671
     18          1           0       -2.983065   -3.115659    0.151361
     19          1           0       -3.109005   -2.846819   -1.593564
     20          1           0       -4.481687   -3.523998   -0.701106
     21          6           0        4.335339    0.598824   -1.436110
     22          6           0        3.187189   -0.021763   -1.939245
     23          6           0        2.207065   -0.512368   -1.071366
     24          6           0        2.408381   -0.364819    0.300126
     25          6           0        3.541488    0.248706    0.832050
     26          6           0        4.508519    0.731843   -0.054503
     27          1           0        5.091637    0.977037   -2.117552
     28          1           0        3.050035   -0.126458   -3.011752
     29          1           0        1.308657   -0.997025   -1.433842
     30          1           0        3.650171    0.338433    1.906088
     31          1           0        5.399186    1.213356    0.339072
     32          7           0        1.377698   -0.880247    1.228796
     33          8           0        1.578730   -0.737898    2.432938
     34          8           0        0.388333   -1.416829    0.734959
 ---------------------------------------------------------------------

 SCF Done:  E(RHF) =  -669.536186525     A.U. after   15 cycles
 E2 =    -0.2091380884D+01 EUMP2 =    -0.67162756740903D+03

 The electronic state is 1-A.
 Alpha  occ. eigenvalues --  -20.60945 -20.60927 -15.85965 -11.31272 -11.27837
 Alpha  occ. eigenvalues --  -11.27829 -11.27575 -11.26842 -11.26832 -11.21004
 Alpha  occ. eigenvalues --  -11.20706 -11.20619 -11.20612 -11.20233 -11.20145
 Alpha  occ. eigenvalues --   -1.60000  -1.39554  -1.19441  -1.08850  -1.07590
 Alpha  occ. eigenvalues --   -1.04836  -1.02773  -0.95694  -0.95207  -0.86239
 Alpha  occ. eigenvalues --   -0.86227  -0.82530  -0.78853  -0.77613  -0.77323
 Alpha  occ. eigenvalues --   -0.72189  -0.71310  -0.70551  -0.65098  -0.64841
 Alpha  occ. eigenvalues --   -0.64218  -0.62183  -0.60175  -0.58596  -0.56817
 Alpha  occ. eigenvalues --   -0.55343  -0.54489  -0.53168  -0.52928  -0.51958
 Alpha  occ. eigenvalues --   -0.51626  -0.49161  -0.48950  -0.48945  -0.47168
 Alpha  occ. eigenvalues --   -0.45890  -0.45248  -0.44902  -0.44476  -0.42992
 Alpha  occ. eigenvalues --   -0.37419  -0.36436
 Alpha virt. eigenvalues --    0.04925   0.11217   0.16405   0.21275   0.23614
 Alpha virt. eigenvalues --    0.24998   0.26825   0.27603   0.27814   0.28644
 Alpha virt. eigenvalues --    0.28914   0.31017   0.32076   0.32287   0.32608

 Mulliken charges:
               1
     1  C   -0.297630
     2  C   -0.298943
     3  C   -0.474979
     4  H    0.144888
     5  H    0.149247
     6  H    0.146104
     7  H    0.156353
     8  H    0.155840
     9  H    0.153029
    10  H    0.156937
    11  C   -0.305823
    12  C   -0.298959
    13  C   -0.475719
    14  H    0.140415
    15  H    0.177519
    16  H    0.146152
    17  H    0.150831
    18  H    0.166026
    19  H    0.149887
    20  H    0.155329
    21  C   -0.170523
    22  C   -0.218623
    23  C   -0.170514
    24  C    0.158163
    25  C   -0.170695
    26  C   -0.218613
    27  H    0.225922
    28  H    0.223753
    29  H    0.276373
    30  H    0.275689
    31  H    0.223714
    32  N    0.489550
    33  O   -0.459810
    34  O   -0.460888
 Sum of Mulliken charges =  -0.00000

 Dipole moment (field-independent basis, Debye):
    X=              3.8658    Y=              1.7062    Z=             -3.1091  Tot=              5.2462
 Quadrupole moment (field-independent basis, Debye-Ang):
   XX=            -77.1198   YY=            -97.9762   ZZ=            -93.0358
   XY=              4.5540   XZ=             -4.9678   YZ=              2.6560

 Normal termination of Gaussian 16 at Thu May  6 10:41:57 2021.
