 Gaussian 16, Revision A.03,
 Gaussian 16:  EM64L-G16RevA.03 25-Dec-2016

 -------------
 #p 6-31g* mp2
 -------------

 ------------------------------------------------------
 Input file generated by CHIRIPA (05-May-2021 14:57:22)
 ------------------------------------------------------
 Symbolic Z-matrix:
 Charge =  0 Multiplicity = 1

                         Standard orientation:
 ---------------------------------------------------------------------
 Center     Atomic      Atomic             Coordinates (Angstroms)
 Number     Number       Type             X           Y           Z
 ---------------------------------------------------------------------
      1          6           0       -2.543376    2.534606   -0.113672
      2          6           0       -1.947041    1.495339    0.608013
      3          6           0       -2.547622    0.234110    0.664168
      4          6           0       -3.749761    0.046349   -0.016198
      5          6           0       -4.368544    1.061799   -0.743698
      6          6           0       -3.750097    2.314906   -0.786039
      7          1           0       -2.069890    3.511204   -0.151929
      8          1           0       -1.009899    1.663081    1.131151
      9          1           0       -2.107701   -0.588100    1.215401
     10          1           0       -5.302878    0.864247   -1.254984
     11          1           0       -4.215497    3.120165   -1.347292
     12          7           0       -4.395026   -1.284559    0.035938
     13          8           0       -5.453991   -1.424363   -0.572080
     14          8           0       -3.829602   -2.162719    0.683834
     15          6           0        1.300199   -1.060796    0.517832
     16          6           0        1.917125   -0.133138    1.363630
     17          6           0        3.215136    0.314420    1.100180
     18          6           0        3.869946   -0.188831   -0.022874
     19          6           0        3.282139   -1.113726   -0.884467
     20          6           0        1.983470   -1.547271   -0.601544
     21          1           0        0.291617   -1.403027    0.730050
     22          1           0        1.388887    0.246383    2.233673
     23          1           0        3.716433    1.032010    1.738290
     24          1           0        3.834003   -1.473959   -1.744175
     25          1           0        1.506840   -2.267763   -1.260150
     26          7           0        5.244441    0.277561   -0.312086
     27          8           0        5.799978   -0.181078   -1.307909
     28          8           0        5.740206    1.092927    0.462532
 ---------------------------------------------------------------------

 SCF Done:  E(RHF) =  -868.337169550     A.U. after   16 cycles
 E2 =    -0.2600381413D+01 EUMP2 =    -0.87093755096324D+03

 The electronic state is 1-A.
 Alpha  occ. eigenvalues --  -20.61550 -20.61520 -20.61140 -20.61130 -15.86592
 Alpha  occ. eigenvalues --  -15.86196 -11.31993 -11.31641 -11.28656 -11.28479
 Alpha  occ. eigenvalues --  -11.28278 -11.28214 -11.28190 -11.28019 -11.27598
 Alpha  occ. eigenvalues --  -11.27487 -11.27360 -11.27178  -1.60611  -1.60212
 Alpha  occ. eigenvalues --   -1.40167  -1.39763  -1.20145  -1.19835  -1.09514
 Alpha  occ. eigenvalues --   -1.09220  -1.05566  -1.05251  -0.96360  -0.96035
 Alpha  occ. eigenvalues --   -0.86952  -0.86649  -0.83202  -0.82864  -0.78270
 Alpha  occ. eigenvalues --   -0.77891  -0.72808  -0.72412  -0.71936  -0.71538
 Alpha  occ. eigenvalues --   -0.71322  -0.70882  -0.65797  -0.65585  -0.65482
 Alpha  occ. eigenvalues --   -0.65260  -0.62939  -0.62577  -0.56047  -0.55745
 Alpha  occ. eigenvalues --   -0.53876  -0.53691  -0.53509  -0.53330  -0.49575
 Alpha  occ. eigenvalues --   -0.49555  -0.49177  -0.49161  -0.45565  -0.45151
 Alpha  occ. eigenvalues --   -0.38086  -0.37874  -0.37101  -0.36851
 Alpha virt. eigenvalues --    0.04224   0.04691   0.10408   0.10713   0.15703
 Alpha virt. eigenvalues --    0.16185   0.18257   0.22094   0.25013   0.25253
 Alpha virt. eigenvalues --    0.27758   0.29000   0.30305   0.31110   0.32875

 Mulliken charges:
               1
     1  C   -0.170663
     2  C   -0.216053
     3  C   -0.177846
     4  C    0.160365
     5  C   -0.170398
     6  C   -0.217469
     7  H    0.229399
     8  H    0.221508
     9  H    0.267945
    10  H    0.277916
    11  H    0.226855
    12  N    0.488011
    13  O   -0.456577
    14  O   -0.463764
    15  C   -0.172094
    16  C   -0.224869
    17  C   -0.170615
    18  C    0.158514
    19  C   -0.169835
    20  C   -0.219206
    21  H    0.228819
    22  H    0.218061
    23  H    0.275954
    24  H    0.277803
    25  H    0.229142
    26  N    0.487988
    27  O   -0.458595
    28  O   -0.460295
 Sum of Mulliken charges =  -0.00000

 Dipole moment (field-independent basis, Debye):
    X=             -2.6223    Y=              3.1095    Z=              0.6068  Tot=              4.1126
 Quadrupole moment (field-independent basis, Debye-Ang):
   XX=           -156.4319   YY=           -102.0586   ZZ=           -100.8265
   XY=            -25.1856   XZ=              7.2279   YZ=              1.4007

 Normal termination of Gaussian 16 at Fri May  7 06:20:55 2021.
