 Gaussian 16, Revision A.03,
 Gaussian 16:  EM64L-G16RevA.03 25-Dec-2016

 -------------
 #p 6-31g* mp2
 -------------

 ------------------------------------------------------
 Input file generated by CHIRIPA (05-May-2021 14:55:24)
 ------------------------------------------------------
 Symbolic Z-matrix:
 Charge =  0 Multiplicity = 1

                         Standard orientation:
 ---------------------------------------------------------------------
 Center     Atomic      Atomic             Coordinates (Angstroms)
 Number     Number       Type             X           Y           Z
 ---------------------------------------------------------------------
      1          6           0        5.136657   -0.784686   -0.669837
      2          6           0        4.882744    0.499344   -0.176565
      3          6           0        3.609212    0.843013    0.286636
      4          6           0        2.608447   -0.126394    0.241806
      5          6           0        2.830213   -1.414122   -0.243855
      6          6           0        4.111389   -1.735644   -0.701851
      7          1           0        6.128936   -1.043054   -1.027641
      8          1           0        5.677063    1.239900   -0.150507
      9          1           0        3.385099    1.829639    0.673627
     10          1           0        2.018189   -2.130959   -0.257226
     11          1           0        4.305694   -2.733617   -1.084396
     12          7           0        1.256169    0.225710    0.729421
     13          8           0        0.391554   -0.646393    0.679284
     14          8           0        1.086475    1.367126    1.152518
     15          6           0       -4.211552   -0.231214   -0.347956
     16          6           0       -4.073117   -1.598905    0.321553
     17          6           0       -5.256113   -2.522500    0.029510
     18          1           0       -5.142045    0.243798   -0.008119
     19          1           0       -4.310011   -0.370394   -1.433465
     20          1           0       -3.973558   -1.457112    1.405343
     21          1           0       -3.142749   -2.070637   -0.019769
     22          1           0       -5.354729   -2.693421   -1.047366
     23          1           0       -6.190259   -2.076410    0.385843
     24          1           0       -5.136514   -3.494692    0.517771
     25          6           0       -3.036623    0.703342   -0.065333
     26          6           0       -3.175057    2.071032   -0.734843
     27          6           0       -1.992062    2.994628   -0.442799
     28          1           0       -2.938162    0.842522    1.020176
     29          1           0       -2.106129    0.228329   -0.405170
     30          1           0       -4.105426    2.542764   -0.393520
     31          1           0       -3.274616    1.929238   -1.818631
     32          1           0       -1.057915    2.548537   -0.799132
     33          1           0       -1.893445    3.165548    0.634078
     34          1           0       -2.111660    3.966820   -0.931060
 ---------------------------------------------------------------------

 SCF Done:  E(RHF) =  -669.536038226     A.U. after   15 cycles
 E2 =    -0.2091974756D+01 EUMP2 =    -0.67162801298245D+03

 The electronic state is 1-A.
 Alpha  occ. eigenvalues --  -20.61021 -20.61003 -15.86025 -11.31339 -11.27901
 Alpha  occ. eigenvalues --  -11.27894 -11.27633 -11.26902 -11.26892 -11.20415
 Alpha  occ. eigenvalues --  -11.20197 -11.20186 -11.20105 -11.19595 -11.19529
 Alpha  occ. eigenvalues --   -1.60062  -1.39619  -1.19505  -1.08911  -1.07035
 Alpha  occ. eigenvalues --   -1.04898  -1.02237  -0.95753  -0.94673  -0.86299
 Alpha  occ. eigenvalues --   -0.85686  -0.82589  -0.78303  -0.77644  -0.76765
 Alpha  occ. eigenvalues --   -0.72241  -0.71375  -0.70612  -0.65160  -0.64900
 Alpha  occ. eigenvalues --   -0.63685  -0.62245  -0.59656  -0.58070  -0.56267
 Alpha  occ. eigenvalues --   -0.55402  -0.53972  -0.53232  -0.52989  -0.51437
 Alpha  occ. eigenvalues --   -0.51078  -0.49069  -0.49001  -0.48602  -0.46592
 Alpha  occ. eigenvalues --   -0.45356  -0.45033  -0.44296  -0.44132  -0.42454
 Alpha  occ. eigenvalues --   -0.37481  -0.36498
 Alpha virt. eigenvalues --    0.04845   0.11157   0.16331   0.21289   0.24155
 Alpha virt. eigenvalues --    0.25525   0.27217   0.27909   0.28225   0.28964
 Alpha virt. eigenvalues --    0.29239   0.30903   0.32392   0.32621   0.32852

 Mulliken charges:
               1
     1  C   -0.170513
     2  C   -0.218563
     3  C   -0.170742
     4  C    0.158074
     5  C   -0.170877
     6  C   -0.218542
     7  H    0.226177
     8  H    0.224047
     9  H    0.276191
    10  H    0.275654
    11  H    0.223964
    12  N    0.487696
    13  O   -0.458899
    14  O   -0.457364
    15  C   -0.298135
    16  C   -0.297889
    17  C   -0.474967
    18  H    0.144437
    19  H    0.143540
    20  H    0.153027
    21  H    0.155469
    22  H    0.151828
    23  H    0.152789
    24  H    0.156694
    25  C   -0.300541
    26  C   -0.300517
    27  C   -0.470679
    28  H    0.153505
    29  H    0.166733
    30  H    0.145703
    31  H    0.144366
    32  H    0.157158
    33  H    0.161628
    34  H    0.149547
 Sum of Mulliken charges =  -0.00000

 Dipole moment (field-independent basis, Debye):
    X=              5.2048    Y=             -1.2884    Z=             -1.5525  Tot=              5.5821
 Quadrupole moment (field-independent basis, Debye-Ang):
   XX=            -71.9431   YY=            -91.4662   ZZ=            -95.6706
   XY=             -2.9317   XZ=             -4.0740   YZ=              1.6711

 Normal termination of Gaussian 16 at Thu May  6 11:04:19 2021.
