 Gaussian 16, Revision A.03,
 Gaussian 16:  EM64L-G16RevA.03 25-Dec-2016

 -------------
 #p 6-31g* mp2
 -------------

 ------------------------------------------------------
 Input file generated by CHIRIPA (05-May-2021 14:53:17)
 ------------------------------------------------------
 Symbolic Z-matrix:
 Charge =  0 Multiplicity = 1

                         Standard orientation:
 ---------------------------------------------------------------------
 Center     Atomic      Atomic             Coordinates (Angstroms)
 Number     Number       Type             X           Y           Z
 ---------------------------------------------------------------------
      1          6           0        4.469733    0.221003    0.167170
      2          6           0        4.605295   -1.275277   -0.117000
      3          6           0        6.029413   -1.790358    0.093653
      4          1           0        5.161390    0.775178   -0.482018
      5          1           0        4.783682    0.420691    1.201073
      6          1           0        4.289871   -1.472284   -1.149624
      7          1           0        3.913097   -1.825942    0.532805
      8          1           0        6.350855   -1.622687    1.126689
      9          1           0        6.729770   -1.267020   -0.565299
     10          1           0        6.103648   -2.862179   -0.115026
     11          6           0        3.051792    0.750775   -0.039012
     12          6           0        2.916230    2.247056    0.245158
     13          6           0        1.492112    2.762136    0.034505
     14          1           0        2.737843    0.551088   -1.072915
     15          1           0        2.360135    0.196600    0.610176
     16          1           0        3.608428    2.797720   -0.404647
     17          1           0        3.231654    2.444062    1.277782
     18          1           0        0.791755    2.238798    0.693457
     19          1           0        1.170670    2.594465   -0.998531
     20          1           0        1.417877    3.833958    0.243184
     21          6           0       -5.325735    0.402933    0.179598
     22          6           0       -4.311472    1.323672   -0.103300
     23          6           0       -2.985030    0.901357   -0.232722
     24          6           0       -2.707268   -0.455253   -0.072265
     25          6           0       -3.695681   -1.396882    0.209984
     26          6           0       -5.015150   -0.952017    0.335062
     27          1           0       -6.353439    0.739756    0.278449
     28          1           0       -4.549746    2.376558   -0.224550
     29          1           0       -2.180302    1.592744   -0.451388
     30          1           0       -3.427282   -2.439980    0.325428
     31          1           0       -5.800794   -1.669320    0.554801
     32          7           0       -1.306714   -0.914276   -0.206979
     33          8           0       -1.088071   -2.114915   -0.061037
     34          8           0       -0.454122   -0.064727   -0.455961
 ---------------------------------------------------------------------

 SCF Done:  E(RHF) =  -669.535639410     A.U. after   15 cycles
 E2 =    -0.2092051350D+01 EUMP2 =    -0.67162769075988D+03

 The electronic state is 1-A.
 Alpha  occ. eigenvalues --  -20.60938 -20.60933 -15.85961 -11.31281 -11.27848
 Alpha  occ. eigenvalues --  -11.27831 -11.27584 -11.26852 -11.26840 -11.20464
 Alpha  occ. eigenvalues --  -11.20446 -11.20185 -11.20164 -11.19936 -11.19777
 Alpha  occ. eigenvalues --   -1.60003  -1.39559  -1.19451  -1.08858  -1.07168
 Alpha  occ. eigenvalues --   -1.04844  -1.02395  -0.95701  -0.94840  -0.86246
 Alpha  occ. eigenvalues --   -0.85868  -0.82539  -0.78475  -0.77590  -0.76896
 Alpha  occ. eigenvalues --   -0.72173  -0.71318  -0.70558  -0.65106  -0.64847
 Alpha  occ. eigenvalues --   -0.63815  -0.62190  -0.59812  -0.58201  -0.56438
 Alpha  occ. eigenvalues --   -0.55350  -0.54133  -0.53179  -0.52936  -0.51613
 Alpha  occ. eigenvalues --   -0.51281  -0.48966  -0.48950  -0.48735  -0.46758
 Alpha  occ. eigenvalues --   -0.45547  -0.45002  -0.44434  -0.44258  -0.42614
 Alpha  occ. eigenvalues --   -0.37432  -0.36446
 Alpha virt. eigenvalues --    0.04906   0.11203   0.16386   0.21194   0.24047
 Alpha virt. eigenvalues --    0.25150   0.26726   0.27670   0.27959   0.28941
 Alpha virt. eigenvalues --    0.29297   0.30995   0.31870   0.32521   0.32846

 Mulliken charges:
               1
     1  C   -0.298774
     2  C   -0.298507
     3  C   -0.475064
     4  H    0.144244
     5  H    0.144528
     6  H    0.153086
     7  H    0.156156
     8  H    0.152521
     9  H    0.152271
    10  H    0.158154
    11  C   -0.295695
    12  C   -0.300036
    13  C   -0.473233
    14  H    0.154577
    15  H    0.163262
    16  H    0.146165
    17  H    0.146268
    18  H    0.160853
    19  H    0.156506
    20  H    0.148043
    21  C   -0.170511
    22  C   -0.218858
    23  C   -0.172267
    24  C    0.157220
    25  C   -0.170700
    26  C   -0.218678
    27  H    0.225949
    28  H    0.224119
    29  H    0.278491
    30  H    0.275685
    31  H    0.223720
    32  N    0.491507
    33  O   -0.459446
    34  O   -0.461553
 Sum of Mulliken charges =  -0.00000

 Dipole moment (field-independent basis, Debye):
    X=             -5.2720    Y=              1.4222    Z=              0.4269  Tot=              5.4771
 Quadrupole moment (field-independent basis, Debye-Ang):
   XX=            -70.5970   YY=            -93.0289   ZZ=            -94.6527
   XY=             -0.4918   XZ=             -1.7540   YZ=             -1.5785

 Normal termination of Gaussian 16 at Wed May  5 20:22:26 2021.
