 Gaussian 16, Revision A.03,
 Gaussian 16:  EM64L-G16RevA.03 25-Dec-2016

 -------------
 #p 6-31g* mp2
 -------------

 ------------------------------------------------------
 Input file generated by CHIRIPA (05-May-2021 14:57:25)
 ------------------------------------------------------
 Symbolic Z-matrix:
 Charge =  0 Multiplicity = 1

                         Standard orientation:
 ---------------------------------------------------------------------
 Center     Atomic      Atomic             Coordinates (Angstroms)
 Number     Number       Type             X           Y           Z
 ---------------------------------------------------------------------
      1          6           0       -0.070175   -2.196596    1.044990
      2          6           0       -0.491905   -2.275996   -0.286310
      3          6           0       -1.529316   -1.462789   -0.752166
      4          6           0       -2.125402   -0.577460    0.144585
      5          6           0       -1.727671   -0.475074    1.476733
      6          6           0       -0.688315   -1.297972    1.920719
      7          1           0        0.736466   -2.832079    1.398383
      8          1           0       -0.013680   -2.972955   -0.968655
      9          1           0       -1.875613   -1.503719   -1.777749
     10          1           0       -2.223668    0.229427    2.133303
     11          1           0       -0.362870   -1.234156    2.955155
     12          7           0       -3.224693    0.288576   -0.337019
     13          8           0       -3.733570    1.060332    0.472965
     14          8           0       -3.556623    0.179222   -1.515366
     15          6           0        0.715319    2.883759    0.194006
     16          6           0        1.555616    2.354443    1.179018
     17          6           0        2.241482    1.156346    0.958339
     18          6           0        2.063032    0.511028   -0.264367
     19          6           0        1.232888    1.013057   -1.265424
     20          6           0        0.556917    2.212560   -1.022926
     21          1           0        0.186366    3.815015    0.373909
     22          1           0        1.680541    2.873539    2.125051
     23          1           0        2.898243    0.724207    1.703550
     24          1           0        1.128460    0.472780   -2.198489
     25          1           0       -0.095014    2.621291   -1.789718
     26          7           0        2.783890   -0.758088   -0.509539
     27          8           0        2.609702   -1.307350   -1.595175
     28          8           0        3.509438   -1.179528    0.388574
 ---------------------------------------------------------------------

 SCF Done:  E(RHF) =  -868.339775526     A.U. after   16 cycles
 E2 =    -0.2605612652D+01 EUMP2 =    -0.87094538817873D+03

 The electronic state is 1-A.
 Alpha  occ. eigenvalues --  -20.61464 -20.61459 -20.61015 -20.61009 -15.86448
 Alpha  occ. eigenvalues --  -15.86052 -11.31439 -11.31191 -11.28028 -11.27977
 Alpha  occ. eigenvalues --  -11.27737 -11.27647 -11.27628 -11.27230 -11.26939
 Alpha  occ. eigenvalues --  -11.26846 -11.26708 -11.26490  -1.60519  -1.60097
 Alpha  occ. eigenvalues --   -1.40088  -1.39656  -1.19618  -1.19291  -1.09057
 Alpha  occ. eigenvalues --   -1.08726  -1.04971  -1.04659  -0.95954  -0.95612
 Alpha  occ. eigenvalues --   -0.86369  -0.86063  -0.82815  -0.82445  -0.77917
 Alpha  occ. eigenvalues --   -0.77539  -0.72710  -0.72278  -0.71877  -0.71418
 Alpha  occ. eigenvalues --   -0.70704  -0.70319  -0.65257  -0.64971  -0.64926
 Alpha  occ. eigenvalues --   -0.64615  -0.62331  -0.62005  -0.55446  -0.55083
 Alpha  occ. eigenvalues --   -0.54038  -0.53046  -0.52721  -0.52253  -0.49487
 Alpha  occ. eigenvalues --   -0.49428  -0.49047  -0.49008  -0.45581  -0.45114
 Alpha  occ. eigenvalues --   -0.38042  -0.37336  -0.36510  -0.35675
 Alpha virt. eigenvalues --    0.04341   0.05108   0.10962   0.11528   0.16158
 Alpha virt. eigenvalues --    0.16544   0.21092   0.21926   0.26834   0.27704
 Alpha virt. eigenvalues --    0.28279   0.28625   0.30916   0.31375   0.32359

 Mulliken charges:
               1
     1  C   -0.183428
     2  C   -0.219328
     3  C   -0.177396
     4  C    0.161462
     5  C   -0.170881
     6  C   -0.215963
     7  H    0.238493
     8  H    0.237878
     9  H    0.273724
    10  H    0.271686
    11  H    0.221866
    12  N    0.486866
    13  O   -0.463238
    14  O   -0.462679
    15  C   -0.168967
    16  C   -0.220693
    17  C   -0.171705
    18  C    0.162353
    19  C   -0.167289
    20  C   -0.222631
    21  H    0.230550
    22  H    0.222597
    23  H    0.271408
    24  H    0.273334
    25  H    0.230933
    26  N    0.489127
    27  O   -0.463415
    28  O   -0.464663
 Sum of Mulliken charges =  -0.00000

 Dipole moment (field-independent basis, Debye):
    X=              1.3891    Y=              1.3940    Z=              2.5001  Tot=              3.1817
 Quadrupole moment (field-independent basis, Debye-Ang):
   XX=           -133.2545   YY=            -96.2338   ZZ=            -96.7829
   XY=             12.1080   XZ=              1.1411   YZ=              0.1354

 Normal termination of Gaussian 16 at Fri May  7 03:29:10 2021.
