 Gaussian 16, Revision A.03,
 Gaussian 16:  EM64L-G16RevA.03 25-Dec-2016

 -------------
 #p 6-31g* mp2
 -------------

 ------------------------------------------------------
 Input file generated by CHIRIPA (05-May-2021 14:51:13)
 ------------------------------------------------------
 Symbolic Z-matrix:
 Charge =  0 Multiplicity = 1

                         Standard orientation:
 ---------------------------------------------------------------------
 Center     Atomic      Atomic             Coordinates (Angstroms)
 Number     Number       Type             X           Y           Z
 ---------------------------------------------------------------------
      1          6           0        3.357266   -0.356862   -0.248548
      2          6           0        4.883661   -0.392451   -0.165872
      3          6           0        5.534433   -0.883937   -1.459213
      4          1           0        2.985853   -1.362580   -0.488400
      5          1           0        3.057207    0.294024   -1.081439
      6          1           0        5.180730   -1.041979    0.667482
      7          1           0        5.251472    0.613429    0.074000
      8          1           0        5.266879   -0.231953   -2.297027
      9          1           0        5.195735   -1.896766   -1.700173
     10          1           0        6.625746   -0.901473   -1.378043
     11          6           0        2.692189    0.132362    1.036777
     12          6           0        1.165793    0.167951    0.954101
     13          6           0        0.515021    0.659437    2.247441
     14          1           0        2.992248   -0.518523    1.869668
     15          1           0        3.063601    1.138080    1.276629
     16          1           0        0.797983   -0.837928    0.714228
     17          1           0        0.868725    0.817479    0.120747
     18          1           0        0.853719    1.672267    2.488401
     19          1           0        0.782575    0.007453    3.085255
     20          1           0       -0.576292    0.676973    2.166271
     21          6           0       -3.391607   -0.412617    0.022235
     22          6           0       -3.452520   -1.785035   -0.649138
     23          6           0       -4.189582   -2.824381    0.196019
     24          1           0       -2.897435   -0.510684    0.998515
     25          1           0       -4.414350   -0.064725    0.223137
     26          1           0       -2.430000   -2.129618   -0.849967
     27          1           0       -3.946431   -1.683654   -1.624017
     28          1           0       -5.219914   -2.506379    0.385471
     29          1           0       -3.694867   -2.954876    1.163920
     30          1           0       -4.221325   -3.798065   -0.302772
     31          6           0       -2.657848    0.637117   -0.810464
     32          6           0       -2.596935    2.009534   -0.139090
     33          6           0       -1.859872    3.048881   -0.984248
     34          1           0       -1.635104    0.289225   -1.011365
     35          1           0       -3.152019    0.735184   -1.786744
     36          1           0       -2.103023    1.908155    0.835789
     37          1           0       -3.619454    2.354118    0.061738
     38          1           0       -2.354588    3.179375   -1.952147
     39          1           0       -0.829540    2.730879   -1.173699
     40          1           0       -1.828128    4.022564   -0.485456
 ---------------------------------------------------------------------

 SCF Done:  E(RHF) =  -470.732949224     A.U. after   11 cycles
 E2 =    -0.1584074522D+01 EUMP2 =    -0.47231702374663D+03

 The electronic state is 1-A.
 Alpha  occ. eigenvalues --  -11.21705 -11.21639 -11.21592 -11.21548 -11.21467
 Alpha  occ. eigenvalues --  -11.21406 -11.21381 -11.21306 -11.21149 -11.21098
 Alpha  occ. eigenvalues --  -11.21072 -11.21065  -1.08508  -1.08398  -1.03616
 Alpha  occ. eigenvalues --   -1.03496  -0.96045  -0.95965  -0.87068  -0.86977
 Alpha  occ. eigenvalues --   -0.79698  -0.79551  -0.78333  -0.78195  -0.65189
 Alpha  occ. eigenvalues --   -0.65031  -0.61155  -0.60812  -0.59398  -0.59300
 Alpha  occ. eigenvalues --   -0.57634  -0.57575  -0.55364  -0.55210  -0.52788
 Alpha  occ. eigenvalues --   -0.52646  -0.52473  -0.52385  -0.49997  -0.49889
 Alpha  occ. eigenvalues --   -0.48050  -0.47894  -0.46764  -0.46536  -0.45975
 Alpha  occ. eigenvalues --   -0.45784  -0.45734  -0.45489  -0.43804  -0.43756
 Alpha virt. eigenvalues --    0.19508   0.22980   0.23446   0.24685   0.25601
 Alpha virt. eigenvalues --    0.26086   0.26545   0.27823   0.28465   0.29369
 Alpha virt. eigenvalues --    0.30238   0.31182   0.31581   0.31810   0.32458

 Mulliken charges:
               1
     1  C   -0.298383
     2  C   -0.299709
     3  C   -0.475771
     4  H    0.149660
     5  H    0.149472
     6  H    0.152033
     7  H    0.152106
     8  H    0.155319
     9  H    0.155230
    10  H    0.160412
    11  C   -0.298311
    12  C   -0.303812
    13  C   -0.481749
    14  H    0.149893
    15  H    0.150069
    16  H    0.151813
    17  H    0.155395
    18  H    0.155728
    19  H    0.155643
    20  H    0.165570
    21  C   -0.300505
    22  C   -0.299643
    23  C   -0.475754
    24  H    0.150750
    25  H    0.149551
    26  H    0.151980
    27  H    0.152040
    28  H    0.155210
    29  H    0.155136
    30  H    0.160169
    31  C   -0.301557
    32  C   -0.304944
    33  C   -0.477272
    34  H    0.154031
    35  H    0.149427
    36  H    0.157731
    37  H    0.151813
    38  H    0.155264
    39  H    0.155738
    40  H    0.160227
 Sum of Mulliken charges =  -0.00000

 Dipole moment (field-independent basis, Debye):
    X=              0.0313    Y=             -0.0011    Z=              0.0099  Tot=              0.0329
 Quadrupole moment (field-independent basis, Debye-Ang):
   XX=            -84.6412   YY=            -84.6635   ZZ=            -85.4438
   XY=             -0.3998   XZ=              1.1622   YZ=             -0.2889

 Normal termination of Gaussian 16 at Wed May  5 21:35:33 2021.
