 Gaussian 16, Revision A.03,
 Gaussian 16:  EM64L-G16RevA.03 25-Dec-2016

 -------------
 #p 6-31g* mp2
 -------------

 ------------------------------------------------------
 Input file generated by CHIRIPA (05-May-2021 14:57:24)
 ------------------------------------------------------
 Symbolic Z-matrix:
 Charge =  0 Multiplicity = 1

                         Standard orientation:
 ---------------------------------------------------------------------
 Center     Atomic      Atomic             Coordinates (Angstroms)
 Number     Number       Type             X           Y           Z
 ---------------------------------------------------------------------
      1          6           0        2.103253    2.305204   -0.512150
      2          6           0        1.399995    1.097094   -0.561349
      3          6           0        2.041743   -0.110383   -0.270306
      4          6           0        3.393632   -0.072807    0.067740
      5          6           0        4.121550    1.114670    0.125376
      6          6           0        3.459395    2.310128   -0.169549
      7          1           0        1.596801    3.238532   -0.739747
      8          1           0        0.346730    1.090248   -0.827113
      9          1           0        1.521345   -1.059949   -0.300789
     10          1           0        5.170785    1.089655    0.393516
     11          1           0        4.008073    3.246864   -0.130543
     12          7           0        4.083824   -1.344747    0.377909
     13          8           0        5.275441   -1.284762    0.673016
     14          8           0        3.420111   -2.377594    0.320040
     15          6           0       -3.452839    2.324482    0.510620
     16          6           0       -4.169243    1.393830    1.270341
     17          6           0       -4.080983    0.027602    0.987182
     18          6           0       -3.263159   -0.374774   -0.067592
     19          6           0       -2.537056    0.528093   -0.842767
     20          6           0       -2.640464    1.889410   -0.541654
     21          1           0       -3.527285    3.383894    0.737559
     22          1           0       -4.800923    1.728836    2.088139
     23          1           0       -4.624717   -0.714376    1.559231
     24          1           0       -1.915586    0.163835   -1.651785
     25          1           0       -2.082956    2.609913   -1.133350
     26          7           0       -3.161705   -1.818538   -0.376864
     27          8           0       -2.434260   -2.147445   -1.311360
     28          8           0       -3.811549   -2.593917    0.321080
 ---------------------------------------------------------------------

 SCF Done:  E(RHF) =  -868.336143977     A.U. after   16 cycles
 E2 =    -0.2601197955D+01 EUMP2 =    -0.87093734193236D+03

 The electronic state is 1-A.
 Alpha  occ. eigenvalues --  -20.61393 -20.61371 -20.60684 -20.60662 -15.86447
 Alpha  occ. eigenvalues --  -15.85733 -11.32020 -11.31227 -11.28695 -11.28540
 Alpha  occ. eigenvalues --  -11.28350 -11.27834 -11.27778 -11.27759 -11.27685
 Alpha  occ. eigenvalues --  -11.27576 -11.26902 -11.26888  -1.60456  -1.59751
 Alpha  occ. eigenvalues --   -1.40006  -1.39298  -1.20212  -1.19433  -1.09550
 Alpha  occ. eigenvalues --   -1.08826  -1.05669  -1.04851  -0.96357  -0.95628
 Alpha  occ. eigenvalues --   -0.87032  -0.86268  -0.83204  -0.82453  -0.78235
 Alpha  occ. eigenvalues --   -0.77453  -0.72655  -0.71949  -0.71786  -0.71301
 Alpha  occ. eigenvalues --   -0.71077  -0.70579  -0.65878  -0.65659  -0.65091
 Alpha  occ. eigenvalues --   -0.64923  -0.63034  -0.62140  -0.56106  -0.55425
 Alpha  occ. eigenvalues --   -0.53990  -0.53749  -0.53180  -0.52897  -0.49429
 Alpha  occ. eigenvalues --   -0.49402  -0.48725  -0.48692  -0.45366  -0.44674
 Alpha  occ. eigenvalues --   -0.38162  -0.37475  -0.37241  -0.36440
 Alpha virt. eigenvalues --    0.04273   0.05074   0.10343   0.11185   0.15593
 Alpha virt. eigenvalues --    0.16505   0.19219   0.22055   0.25358   0.26460
 Alpha virt. eigenvalues --    0.28000   0.29245   0.30387   0.30891   0.32560

 Mulliken charges:
               1
     1  C   -0.173061
     2  C   -0.220444
     3  C   -0.173559
     4  C    0.158859
     5  C   -0.170778
     6  C   -0.218379
     7  H    0.219396
     8  H    0.220478
     9  H    0.283495
    10  H    0.276098
    11  H    0.222688
    12  N    0.487701
    13  O   -0.461277
    14  O   -0.456163
    15  C   -0.170105
    16  C   -0.217258
    17  C   -0.169293
    18  C    0.159752
    19  C   -0.178107
    20  C   -0.218886
    21  H    0.227591
    22  H    0.227271
    23  H    0.279489
    24  H    0.273343
    25  H    0.218878
    26  N    0.488003
    27  O   -0.460304
    28  O   -0.455428
 Sum of Mulliken charges =  -0.00000

 Dipole moment (field-independent basis, Debye):
    X=             -3.0408    Y=              9.3511    Z=              0.1799  Tot=              9.8347
 Quadrupole moment (field-independent basis, Debye-Ang):
   XX=           -112.6408   YY=           -108.8352   ZZ=           -103.3846
   XY=              1.8897   XZ=             -9.8600   YZ=             -0.5661

 Normal termination of Gaussian 16 at Wed May  5 17:52:29 2021.
