 Gaussian 16, Revision A.03,
 Gaussian 16:  EM64L-G16RevA.03 25-Dec-2016

 -------------
 #p 6-31g* mp2
 -------------

 ------------------------------------------------------
 Input file generated by CHIRIPA (05-May-2021 14:57:21)
 ------------------------------------------------------
 Symbolic Z-matrix:
 Charge =  0 Multiplicity = 1

                         Standard orientation:
 ---------------------------------------------------------------------
 Center     Atomic      Atomic             Coordinates (Angstroms)
 Number     Number       Type             X           Y           Z
 ---------------------------------------------------------------------
      1          6           0        3.301394   -2.434293    0.474604
      2          6           0        2.395415   -1.900376   -0.447705
      3          6           0        2.407592   -0.534522   -0.745774
      4          6           0        3.343474    0.272036   -0.100112
      5          6           0        4.259008   -0.230067    0.823457
      6          6           0        4.228664   -1.598908    1.106128
      7          1           0        3.284878   -3.496481    0.700171
      8          1           0        1.674173   -2.546765   -0.939677
      9          1           0        1.717582   -0.094841   -1.455692
     10          1           0        4.966263    0.439387    1.297839
     11          1           0        4.933451   -2.010794    1.822836
     12          7           0        3.365982    1.719585   -0.407514
     13          8           0        4.200384    2.408972    0.174857
     14          8           0        2.548794    2.137377   -1.225005
     15          6           0       -5.813379    0.359614    0.353831
     16          6           0       -4.899129    0.928424    1.246649
     17          6           0       -3.526278    0.717343    1.087679
     18          6           0       -3.100625   -0.071463    0.020022
     19          6           0       -3.986740   -0.651821   -0.886220
     20          6           0       -5.355073   -0.427305   -0.707883
     21          1           0       -6.878087    0.528805    0.484844
     22          1           0       -5.252191    1.539998    2.072100
     23          1           0       -2.796638    1.145664    1.764130
     24          1           0       -3.604611   -1.256811   -1.699475
     25          1           0       -6.062800   -0.870312   -1.402803
     26          7           0       -1.649640   -0.302037   -0.158523
     27          8           0       -1.300118   -1.000910   -1.107232
     28          8           0       -0.889354    0.220478    0.653622
 ---------------------------------------------------------------------

 SCF Done:  E(RHF) =  -868.340367009     A.U. after   16 cycles
 E2 =    -0.2599522312D+01 EUMP2 =    -0.87093988932094D+03

 The electronic state is 1-A.
 Alpha  occ. eigenvalues --  -20.61430 -20.61376 -20.59465 -20.59439 -15.86400
 Alpha  occ. eigenvalues --  -15.84498 -11.31521 -11.29592 -11.28077 -11.28035
 Alpha  occ. eigenvalues --  -11.27766 -11.27032 -11.27004 -11.26295 -11.26010
 Alpha  occ. eigenvalues --  -11.25996 -11.25301 -11.25016  -1.60446  -1.58530
 Alpha  occ. eigenvalues --   -1.40005  -1.38090  -1.19670  -1.17785  -1.09115
 Alpha  occ. eigenvalues --   -1.07262  -1.05035  -1.03132  -0.95991  -0.94124
 Alpha  occ. eigenvalues --   -0.86446  -0.84578  -0.82832  -0.80952  -0.77904
 Alpha  occ. eigenvalues --   -0.76002  -0.72634  -0.71729  -0.70780  -0.70739
 Alpha  occ. eigenvalues --   -0.69835  -0.68963  -0.65328  -0.65041  -0.63454
 Alpha  occ. eigenvalues --   -0.63170  -0.62384  -0.60486  -0.55554  -0.53764
 Alpha  occ. eigenvalues --   -0.53376  -0.53126  -0.51539  -0.51243  -0.49410
 Alpha  occ. eigenvalues --   -0.49328  -0.47494  -0.47468  -0.45456  -0.43554
 Alpha  occ. eigenvalues --   -0.37636  -0.36625  -0.35825  -0.34671
 Alpha virt. eigenvalues --    0.04608   0.06511   0.11034   0.12932   0.16153
 Alpha virt. eigenvalues --    0.18012   0.21183   0.22915   0.27114   0.28040
 Alpha virt. eigenvalues --    0.28904   0.29765   0.30790   0.32260   0.32405

 Mulliken charges:
               1
     1  C   -0.172148
     2  C   -0.218613
     3  C   -0.153678
     4  C    0.155862
     5  C   -0.172757
     6  C   -0.220207
     7  H    0.219010
     8  H    0.228654
     9  H    0.282563
    10  H    0.269773
    11  H    0.216337
    12  N    0.488844
    13  O   -0.467568
    14  O   -0.460801
    15  C   -0.169844
    16  C   -0.218618
    17  C   -0.169620
    18  C    0.158738
    19  C   -0.170443
    20  C   -0.218595
    21  H    0.227003
    22  H    0.225320
    23  H    0.277895
    24  H    0.274404
    25  H    0.224235
    26  N    0.490239
    27  O   -0.472026
    28  O   -0.453959
 Sum of Mulliken charges =  -0.00000

 Dipole moment (field-independent basis, Debye):
    X=             -5.8077    Y=             -4.2097    Z=              1.6621  Tot=              7.3630
 Quadrupole moment (field-independent basis, Debye-Ang):
   XX=            -72.8415   YY=           -107.8715   ZZ=           -100.5627
   XY=            -18.3448   XZ=              4.5917   YZ=              4.1193

 Normal termination of Gaussian 16 at Wed May  5 17:45:51 2021.
