 Gaussian 16, Revision A.03,
 Gaussian 16:  EM64L-G16RevA.03 25-Dec-2016

 -------------
 #p 6-31g* mp2
 -------------

 ------------------------------------------------------
 Input file generated by CHIRIPA (05-May-2021 14:57:24)
 ------------------------------------------------------
 Symbolic Z-matrix:
 Charge =  0 Multiplicity = 1

                         Standard orientation:
 ---------------------------------------------------------------------
 Center     Atomic      Atomic             Coordinates (Angstroms)
 Number     Number       Type             X           Y           Z
 ---------------------------------------------------------------------
      1          6           0        1.424208   -0.148072    1.695808
      2          6           0        1.946819    1.106433    1.364723
      3          6           0        3.049907    1.213642    0.512520
      4          6           0        3.608089    0.040454    0.007196
      5          6           0        3.110242   -1.223897    0.318410
      6          6           0        2.006561   -1.307190    1.172517
      7          1           0        0.567072   -0.222065    2.358559
      8          1           0        1.496593    2.008314    1.769633
      9          1           0        3.474650    2.172081    0.239746
     10          1           0        3.580519   -2.105072   -0.100860
     11          1           0        1.602807   -2.282791    1.427917
     12          7           0        4.776193    0.141292   -0.896001
     13          8           0        5.249825   -0.907370   -1.327993
     14          8           0        5.196003    1.267082   -1.154833
     15          6           0       -3.742748    2.477822   -0.180396
     16          6           0       -2.635544    1.922959    0.469794
     17          6           0       -2.444189    0.538208    0.489659
     18          6           0       -3.383941   -0.265686   -0.153700
     19          6           0       -4.497198    0.257061   -0.809967
     20          6           0       -4.668409    1.644571   -0.817079
     21          1           0       -3.883574    3.554602   -0.190873
     22          1           0       -1.915046    2.567641    0.965085
     23          1           0       -1.595959    0.082112    0.985544
     24          1           0       -5.198377   -0.411216   -1.294911
     25          1           0       -5.529214    2.072703   -1.322808
     26          7           0       -3.192024   -1.733120   -0.139421
     27          8           0       -4.034342   -2.419716   -0.713639
     28          8           0       -2.202917   -2.168914    0.445717
 ---------------------------------------------------------------------

 SCF Done:  E(RHF) =  -868.337786766     A.U. after   16 cycles
 E2 =    -0.2600271476D+01 EUMP2 =    -0.87093805824195D+03

 The electronic state is 1-A.
 Alpha  occ. eigenvalues --  -20.61456 -20.61417 -20.60815 -20.60800 -15.86493
 Alpha  occ. eigenvalues --  -15.85862 -11.31808 -11.31283 -11.28436 -11.28335
 Alpha  occ. eigenvalues --  -11.28095 -11.27884 -11.27744 -11.27631 -11.27436
 Alpha  occ. eigenvalues --  -11.27330 -11.27019 -11.26746  -1.60506  -1.59883
 Alpha  occ. eigenvalues --   -1.40066  -1.39435  -1.19978  -1.19448  -1.09375
 Alpha  occ. eigenvalues --   -1.08855  -1.05388  -1.04841  -0.96224  -0.95680
 Alpha  occ. eigenvalues --   -0.86787  -0.86245  -0.83069  -0.82498  -0.78133
 Alpha  occ. eigenvalues --   -0.77521  -0.72723  -0.72080  -0.71820  -0.71204
 Alpha  occ. eigenvalues --   -0.71143  -0.70558  -0.65639  -0.65402  -0.65104
 Alpha  occ. eigenvalues --   -0.64843  -0.62757  -0.62171  -0.55901  -0.55387
 Alpha  occ. eigenvalues --   -0.53699  -0.53509  -0.53133  -0.52927  -0.49482
 Alpha  occ. eigenvalues --   -0.49454  -0.48843  -0.48832  -0.45482  -0.44828
 Alpha  occ. eigenvalues --   -0.37937  -0.37474  -0.36965  -0.36420
 Alpha virt. eigenvalues --    0.04422   0.04940   0.10672   0.11184   0.15937
 Alpha virt. eigenvalues --    0.16241   0.19173   0.22162   0.25722   0.25875
 Alpha virt. eigenvalues --    0.27884   0.29426   0.30255   0.31241   0.32847

 Mulliken charges:
               1
     1  C   -0.176487
     2  C   -0.219798
     3  C   -0.171152
     4  C    0.159757
     5  C   -0.171099
     6  C   -0.213992
     7  H    0.223187
     8  H    0.216264
     9  H    0.274574
    10  H    0.278213
    11  H    0.235495
    12  N    0.487948
    13  O   -0.458345
    14  O   -0.461303
    15  C   -0.169712
    16  C   -0.219197
    17  C   -0.171458
    18  C    0.158189
    19  C   -0.169210
    20  C   -0.218471
    21  H    0.227536
    22  H    0.218542
    23  H    0.271904
    24  H    0.277491
    25  H    0.225949
    26  N    0.488351
    27  O   -0.456495
    28  O   -0.466682
 Sum of Mulliken charges =  -0.00000

 Dipole moment (field-independent basis, Debye):
    X=             -4.8579    Y=              4.6325    Z=              2.9867  Tot=              7.3471
 Quadrupole moment (field-independent basis, Debye-Ang):
   XX=           -126.2652   YY=           -102.8665   ZZ=           -104.8127
   XY=            -19.1333   XZ=             14.6893   YZ=             -0.1095

 Normal termination of Gaussian 16 at Fri May  7 11:07:45 2021.
