 Gaussian 16, Revision A.03,
 Gaussian 16:  EM64L-G16RevA.03 25-Dec-2016

 -------------
 #p 6-31g* mp2
 -------------

 ------------------------------------------------------
 Input file generated by CHIRIPA (05-May-2021 14:55:19)
 ------------------------------------------------------
 Symbolic Z-matrix:
 Charge =  0 Multiplicity = 1

                         Standard orientation:
 ---------------------------------------------------------------------
 Center     Atomic      Atomic             Coordinates (Angstroms)
 Number     Number       Type             X           Y           Z
 ---------------------------------------------------------------------
      1          6           0        5.579960   -1.296503    0.055752
      2          6           0        5.656281   -0.004872    0.587153
      3          6           0        4.563886    0.863475    0.502322
      4          6           0        3.405546    0.405290   -0.123461
      5          6           0        3.298657   -0.875808   -0.662585
      6          6           0        4.403466   -1.727089   -0.566324
      7          1           0        6.433380   -1.964427    0.126090
      8          1           0        6.568682    0.332226    1.070819
      9          1           0        4.595751    1.868518    0.905176
     10          1           0        2.375652   -1.183405   -1.138887
     11          1           0        4.341341   -2.729651   -0.979911
     12          7           0        2.242506    1.315536   -0.219318
     13          8           0        1.233386    0.887864   -0.775565
     14          8           0        2.362057    2.439424    0.263611
     15          6           0       -4.061991   -0.732559    0.490630
     16          6           0       -2.654176   -0.447959   -0.033815
     17          6           0       -1.579861   -1.267380    0.681861
     18          1           0       -4.094676   -0.521099    1.568201
     19          1           0       -4.279054   -1.803556    0.375544
     20          1           0       -2.440357    0.622427    0.080953
     21          1           0       -2.624889   -0.659939   -1.110302
     22          1           0       -1.765610   -2.339032    0.556720
     23          1           0       -1.580030   -1.049381    1.754743
     24          1           0       -0.581199   -1.048282    0.291307
     25          6           0       -5.146916    0.079068   -0.215012
     26          6           0       -6.554732   -0.205532    0.309433
     27          6           0       -7.629046    0.613889   -0.406243
     28          1           0       -4.929854    1.150064   -0.099927
     29          1           0       -5.114230   -0.132392   -1.292584
     30          1           0       -6.584018    0.006447    1.385919
     31          1           0       -6.768550   -1.275918    0.194665
     32          1           0       -7.628877    0.395890   -1.479126
     33          1           0       -7.443296    1.685541   -0.281102
     34          1           0       -8.627708    0.394791   -0.015690
 ---------------------------------------------------------------------

 SCF Done:  E(RHF) =  -669.536218895     A.U. after   15 cycles
 E2 =    -0.2090954727D+01 EUMP2 =    -0.67162717362237D+03

 The electronic state is 1-A.
 Alpha  occ. eigenvalues --  -20.60946 -20.60939 -15.85968 -11.31279 -11.27843
 Alpha  occ. eigenvalues --  -11.27839 -11.27578 -11.26849 -11.26839 -11.21075
 Alpha  occ. eigenvalues --  -11.20724 -11.20624 -11.20611 -11.20554 -11.20085
 Alpha  occ. eigenvalues --   -1.60000  -1.39557  -1.19447  -1.08854  -1.07702
 Alpha  occ. eigenvalues --   -1.04843  -1.02775  -0.95700  -0.95248  -0.86281
 Alpha  occ. eigenvalues --   -0.86244  -0.82532  -0.78856  -0.77588  -0.77489
 Alpha  occ. eigenvalues --   -0.72196  -0.71310  -0.70558  -0.65105  -0.64847
 Alpha  occ. eigenvalues --   -0.64340  -0.62193  -0.60183  -0.58614  -0.56821
 Alpha  occ. eigenvalues --   -0.55349  -0.54564  -0.53174  -0.52936  -0.51941
 Alpha  occ. eigenvalues --   -0.51677  -0.49226  -0.48955  -0.48943  -0.47168
 Alpha  occ. eigenvalues --   -0.45898  -0.45052  -0.44952  -0.44940  -0.43015
 Alpha  occ. eigenvalues --   -0.37425  -0.36443
 Alpha virt. eigenvalues --    0.04904   0.11197   0.16377   0.21205   0.23544
 Alpha virt. eigenvalues --    0.24862   0.26944   0.27355   0.27727   0.28257
 Alpha virt. eigenvalues --    0.28981   0.30412   0.31670   0.32095   0.32506

 Mulliken charges:
               1
     1  C   -0.170551
     2  C   -0.218543
     3  C   -0.170831
     4  C    0.158434
     5  C   -0.171185
     6  C   -0.218530
     7  H    0.225973
     8  H    0.223771
     9  H    0.275753
    10  H    0.276396
    11  H    0.223984
    12  N    0.489187
    13  O   -0.460654
    14  O   -0.458790
    15  C   -0.298100
    16  C   -0.296748
    17  C   -0.483071
    18  H    0.147898
    19  H    0.145563
    20  H    0.161928
    21  H    0.150215
    22  H    0.145908
    23  H    0.151383
    24  H    0.173139
    25  C   -0.297907
    26  C   -0.299030
    27  C   -0.475352
    28  H    0.151272
    29  H    0.148777
    30  H    0.151140
    31  H    0.150144
    32  H    0.154512
    33  H    0.155544
    34  H    0.158371
 Sum of Mulliken charges =  -0.00000

 Dipole moment (field-independent basis, Debye):
    X=              4.3616    Y=             -3.0671    Z=              0.2910  Tot=              5.3399
 Quadrupole moment (field-independent basis, Debye-Ang):
   XX=            -67.4559   YY=            -95.0679   ZZ=            -94.2207
   XY=             -7.1844   XZ=              1.9741   YZ=              3.4047

 Normal termination of Gaussian 16 at Thu May  6 04:29:48 2021.
