 Gaussian 16, Revision A.03,
 Gaussian 16:  EM64L-G16RevA.03 25-Dec-2016

 -------------
 #p 6-31g* mp2
 -------------

 ------------------------------------------------------
 Input file generated by CHIRIPA (05-May-2021 14:55:23)
 ------------------------------------------------------
 Symbolic Z-matrix:
 Charge =  0 Multiplicity = 1

                         Standard orientation:
 ---------------------------------------------------------------------
 Center     Atomic      Atomic             Coordinates (Angstroms)
 Number     Number       Type             X           Y           Z
 ---------------------------------------------------------------------
      1          6           0       -2.896021    1.381681   -1.379163
      2          6           0       -2.466019    0.162828   -1.913967
      3          6           0       -1.892862   -0.810992   -1.090732
      4          6           0       -1.764415   -0.531343    0.268895
      5          6           0       -2.183163    0.673360    0.831595
      6          6           0       -2.753471    1.632615   -0.010502
      7          1           0       -3.340156    2.132510   -2.025997
      8          1           0       -2.575469   -0.034792   -2.976517
      9          1           0       -1.551434   -1.763121   -1.478412
     10          1           0       -2.060825    0.841474    1.894698
     11          1           0       -3.086521    2.578298    0.407596
     12          7           0       -1.159147   -1.554573    1.150401
     13          8           0       -1.057157   -1.283817    2.344941
     14          8           0       -0.798189   -2.607961    0.630093
     15          6           0        2.649330    1.174724   -0.061256
     16          6           0        1.572842    2.164435    0.385546
     17          6           0        2.114768    3.581512    0.575291
     18          1           0        3.458621    1.162919    0.681613
     19          1           0        3.093903    1.527323   -1.002226
     20          1           0        1.129475    1.809356    1.324673
     21          1           0        0.765930    2.173744   -0.358377
     22          1           0        2.539717    3.959900   -0.360038
     23          1           0        2.905327    3.593442    1.332573
     24          1           0        1.328503    4.272593    0.894750
     25          6           0        2.122947   -0.246205   -0.255193
     26          6           0        3.199434   -1.235916   -0.701995
     27          6           0        2.657508   -2.652993   -0.891740
     28          1           0        1.678375   -0.598803    0.685777
     29          1           0        1.313656   -0.234400   -0.998061
     30          1           0        4.006347   -1.245225    0.041929
     31          1           0        3.642803   -0.880837   -1.641122
     32          1           0        1.866949   -2.664922   -1.649022
     33          1           0        2.232560   -3.031381    0.043591
     34          1           0        3.443773   -3.344074   -1.211198
 ---------------------------------------------------------------------

 SCF Done:  E(RHF) =  -669.536009708     A.U. after   15 cycles
 E2 =    -0.2094804989D+01 EUMP2 =    -0.67163081469721D+03

 The electronic state is 1-A.
 Alpha  occ. eigenvalues --  -20.60893 -20.60873 -15.85894 -11.31224 -11.27806
 Alpha  occ. eigenvalues --  -11.27802 -11.27561 -11.26832 -11.26820 -11.21473
 Alpha  occ. eigenvalues --  -11.21134 -11.21082 -11.21064 -11.20954 -11.20199
 Alpha  occ. eigenvalues --   -1.59940  -1.39495  -1.19413  -1.08815  -1.08103
 Alpha  occ. eigenvalues --   -1.04817  -1.03163  -0.95665  -0.95594  -0.86618
 Alpha  occ. eigenvalues --   -0.86211  -0.82493  -0.79249  -0.77963  -0.77527
 Alpha  occ. eigenvalues --   -0.72133  -0.71232  -0.70527  -0.65073  -0.64822
 Alpha  occ. eigenvalues --   -0.64731  -0.62165  -0.60558  -0.59025  -0.57215
 Alpha  occ. eigenvalues --   -0.55324  -0.54880  -0.53180  -0.52909  -0.52295
 Alpha  occ. eigenvalues --   -0.52020  -0.49535  -0.48902  -0.48895  -0.47558
 Alpha  occ. eigenvalues --   -0.46285  -0.45485  -0.45334  -0.44788  -0.43433
 Alpha  occ. eigenvalues --   -0.37358  -0.36382
 Alpha virt. eigenvalues --    0.04951   0.11149   0.16449   0.21168   0.23163
 Alpha virt. eigenvalues --    0.24402   0.26520   0.26928   0.27510   0.27897
 Alpha virt. eigenvalues --    0.28950   0.30732   0.31620   0.31833   0.32237

 Mulliken charges:
               1
     1  C   -0.171149
     2  C   -0.219394
     3  C   -0.171709
     4  C    0.161387
     5  C   -0.168439
     6  C   -0.218413
     7  H    0.225918
     8  H    0.223668
     9  H    0.276224
    10  H    0.275491
    11  H    0.223837
    12  N    0.489043
    13  O   -0.460939
    14  O   -0.458543
    15  C   -0.296861
    16  C   -0.303204
    17  C   -0.474913
    18  H    0.151092
    19  H    0.147038
    20  H    0.153093
    21  H    0.151252
    22  H    0.154095
    23  H    0.156935
    24  H    0.155503
    25  C   -0.306057
    26  C   -0.299511
    27  C   -0.476556
    28  H    0.158240
    29  H    0.145483
    30  H    0.152027
    31  H    0.147073
    32  H    0.148695
    33  H    0.174286
    34  H    0.155306
 Sum of Mulliken charges =  -0.00000

 Dipole moment (field-independent basis, Debye):
    X=             -2.2486    Y=              3.4624    Z=             -2.9848  Tot=              5.0945
 Quadrupole moment (field-independent basis, Debye-Ang):
   XX=            -88.0795   YY=            -98.3858   ZZ=            -92.8185
   XY=             -6.2707   XZ=              5.0012   YZ=              4.7547

 Normal termination of Gaussian 16 at Wed May  5 17:33:27 2021.
