 Gaussian 16, Revision A.03,
 Gaussian 16:  EM64L-G16RevA.03 25-Dec-2016

 -------------
 #p 6-31g* mp2
 -------------

 ------------------------------------------------------
 Input file generated by CHIRIPA (05-May-2021 14:51:10)
 ------------------------------------------------------
 Symbolic Z-matrix:
 Charge =  0 Multiplicity = 1

                         Standard orientation:
 ---------------------------------------------------------------------
 Center     Atomic      Atomic             Coordinates (Angstroms)
 Number     Number       Type             X           Y           Z
 ---------------------------------------------------------------------
      1          6           0        4.580207    0.080110   -0.379953
      2          6           0        5.719993   -0.428725    0.503200
      3          6           0        6.866311   -1.038619   -0.304128
      4          1           0        4.199439   -0.749960   -0.990645
      5          1           0        4.974945    0.828503   -1.081012
      6          1           0        5.322953   -1.174926    1.203313
      7          1           0        6.097964    0.402610    1.111999
      8          1           0        7.289610   -0.298998   -0.991427
      9          1           0        6.510195   -1.885497   -0.899595
     10          1           0        7.670249   -1.395891    0.346949
     11          6           0        3.426806    0.692631    0.412646
     12          6           0        2.287020    1.201465   -0.470507
     13          6           0        1.140702    1.811359    0.336821
     14          1           0        3.032068   -0.055762    1.113705
     15          1           0        3.807574    1.522701    1.023338
     16          1           0        1.909049    0.370131   -1.079307
     17          1           0        2.684060    1.947666   -1.170620
     18          1           0        1.496818    2.658237    0.932287
     19          1           0        0.717403    1.071738    1.024120
     20          1           0        0.336764    2.168631   -0.314256
     21          6           0       -3.401338   -0.730968    0.303150
     22          6           0       -2.098759   -0.513351   -0.467509
     23          6           0       -0.903142   -1.208883    0.184048
     24          1           0       -3.277381   -0.363994    1.331210
     25          1           0       -3.599244   -1.809227    0.377888
     26          1           0       -1.904088    0.564227   -0.541969
     27          1           0       -2.225894   -0.880713   -1.493910
     28          1           0       -1.071611   -2.288976    0.244222
     29          1           0       -0.747975   -0.835827    1.201570
     30          1           0        0.017520   -1.040206   -0.383218
     31          6           0       -4.605674   -0.041772   -0.335843
     32          6           0       -5.908253   -0.259389    0.434816
     33          6           0       -7.103872    0.436143   -0.216740
     34          1           0       -4.407768    1.036487   -0.410581
     35          1           0       -4.729632   -0.408747   -1.363903
     36          1           0       -5.781118    0.107972    1.461217
     37          1           0       -6.102925   -1.336967    0.509276
     38          1           0       -7.259037    0.063086   -1.234263
     39          1           0       -6.935402    1.516235   -0.276914
     40          1           0       -8.024533    0.267466    0.350525
 ---------------------------------------------------------------------

 SCF Done:  E(RHF) =  -470.732013881     A.U. after   11 cycles
 E2 =    -0.1583902704D+01 EUMP2 =    -0.47231591658454D+03

 The electronic state is 1-A.
 Alpha  occ. eigenvalues --  -11.21595 -11.21588 -11.21586 -11.21581 -11.21396
 Alpha  occ. eigenvalues --  -11.21388 -11.21336 -11.21329 -11.21065 -11.21060
 Alpha  occ. eigenvalues --  -11.21054 -11.20963  -1.08445  -1.08392  -1.03604
 Alpha  occ. eigenvalues --   -1.03435  -0.96088  -0.95852  -0.87061  -0.86915
 Alpha  occ. eigenvalues --   -0.79594  -0.79578  -0.78235  -0.78229  -0.65159
 Alpha  occ. eigenvalues --   -0.64981  -0.61257  -0.60733  -0.59408  -0.59203
 Alpha  occ. eigenvalues --   -0.57691  -0.57451  -0.55598  -0.54911  -0.52651
 Alpha  occ. eigenvalues --   -0.52645  -0.52423  -0.52353  -0.50141  -0.49649
 Alpha  occ. eigenvalues --   -0.47965  -0.47853  -0.46684  -0.46500  -0.45793
 Alpha  occ. eigenvalues --   -0.45770  -0.45696  -0.45648  -0.43822  -0.43686
 Alpha virt. eigenvalues --    0.20904   0.23033   0.23591   0.25440   0.26013
 Alpha virt. eigenvalues --    0.26283   0.26516   0.27520   0.27870   0.29288
 Alpha virt. eigenvalues --    0.30029   0.30721   0.30935   0.32402   0.32532

 Mulliken charges:
               1
     1  C   -0.298247
     2  C   -0.299674
     3  C   -0.475705
     4  H    0.149488
     5  H    0.149470
     6  H    0.152086
     7  H    0.151889
     8  H    0.155128
     9  H    0.155190
    10  H    0.160224
    11  C   -0.298859
    12  C   -0.302795
    13  C   -0.480287
    14  H    0.150243
    15  H    0.149737
    16  H    0.153129
    17  H    0.152298
    18  H    0.154304
    19  H    0.161712
    20  H    0.160389
    21  C   -0.298344
    22  C   -0.302182
    23  C   -0.480760
    24  H    0.149767
    25  H    0.149408
    26  H    0.155446
    27  H    0.151658
    28  H    0.154974
    29  H    0.155037
    30  H    0.165345
    31  C   -0.298297
    32  C   -0.299649
    33  C   -0.475710
    34  H    0.149557
    35  H    0.149569
    36  H    0.151995
    37  H    0.151884
    38  H    0.155139
    39  H    0.155211
    40  H    0.160235
 Sum of Mulliken charges =  -0.00000

 Dipole moment (field-independent basis, Debye):
    X=             -0.0052    Y=             -0.0026    Z=              0.0089  Tot=              0.0107
 Quadrupole moment (field-independent basis, Debye-Ang):
   XX=            -86.3838   YY=            -83.7513   ZZ=            -84.8076
   XY=              1.3640   XZ=              0.1638   YZ=              0.3784

 Normal termination of Gaussian 16 at Wed May  5 21:23:29 2021.
