 Gaussian 16, Revision A.03,
 Gaussian 16:  EM64L-G16RevA.03 25-Dec-2016

 -------------
 #p 6-31g* mp2
 -------------

 ------------------------------------------------------
 Input file generated by CHIRIPA (05-May-2021 14:51:08)
 ------------------------------------------------------
 Symbolic Z-matrix:
 Charge =  0 Multiplicity = 1

                         Standard orientation:
 ---------------------------------------------------------------------
 Center     Atomic      Atomic             Coordinates (Angstroms)
 Number     Number       Type             X           Y           Z
 ---------------------------------------------------------------------
      1          6           0        2.368358   -1.103269   -0.028579
      2          6           0        1.162978   -0.896222    0.889123
      3          6           0        0.008451   -1.847232    0.572200
      4          1           0        2.054342   -0.966007   -1.072369
      5          1           0        2.713479   -2.142721    0.059887
      6          1           0        0.821090    0.142905    0.799991
      7          1           0        1.479942   -1.033805    1.930862
      8          1           0        0.326960   -2.889137    0.679843
      9          1           0       -0.335636   -1.705742   -0.457453
     10          1           0       -0.842712   -1.681945    1.240079
     11          6           0        3.530690   -0.159864    0.275884
     12          6           0        4.736070   -0.366912   -0.641818
     13          6           0        5.890597    0.584098   -0.324895
     14          1           0        3.185569    0.879588    0.187418
     15          1           0        3.844706   -0.297127    1.319674
     16          1           0        4.419106   -0.229329   -1.683557
     17          1           0        5.077958   -1.406038   -0.552686
     18          1           0        6.234684    0.442608    0.704759
     19          1           0        5.572088    1.626003   -0.432538
     20          1           0        6.741760    0.418811   -0.992774
     21          6           0       -2.530734    1.192011   -0.430163
     22          6           0       -2.150903    2.282654    0.571943
     23          6           0       -1.313201    3.396860   -0.056221
     24          1           0       -1.615344    0.765208   -0.862416
     25          1           0       -3.087100    1.645766   -1.262003
     26          1           0       -1.596618    1.826761    1.402332
     27          1           0       -3.067300    2.706779    1.002001
     28          1           0       -1.862152    3.878328   -0.871968
     29          1           0       -0.383114    2.993311   -0.469363
     30          1           0       -1.052857    4.165846    0.677769
     31          6           0       -3.368313    0.071122    0.182857
     32          6           0       -3.748145   -1.019519   -0.819248
     33          6           0       -4.585847   -2.133727   -0.191083
     34          1           0       -2.811948   -0.382633    1.014699
     35          1           0       -4.283705    0.497926    0.615111
     36          1           0       -2.831748   -1.443645   -1.249307
     37          1           0       -4.302430   -0.563628   -1.649637
     38          1           0       -5.515934   -1.730177    0.222059
     39          1           0       -4.036896   -2.615195    0.624664
     40          1           0       -4.846191   -2.902713   -0.925074
 ---------------------------------------------------------------------

 SCF Done:  E(RHF) =  -470.732634281     A.U. after   11 cycles
 E2 =    -0.1584506469D+01 EUMP2 =    -0.47231714075050D+03

 The electronic state is 1-A.
 Alpha  occ. eigenvalues --  -11.21697 -11.21637 -11.21601 -11.21530 -11.21469
 Alpha  occ. eigenvalues --  -11.21405 -11.21364 -11.21287 -11.21156 -11.21100
 Alpha  occ. eigenvalues --  -11.21095 -11.21018  -1.08512  -1.08384  -1.03599
 Alpha  occ. eigenvalues --   -1.03503  -0.96069  -0.95935  -0.87090  -0.86951
 Alpha  occ. eigenvalues --   -0.79663  -0.79567  -0.78307  -0.78220  -0.65347
 Alpha  occ. eigenvalues --   -0.64890  -0.60973  -0.60916  -0.59418  -0.59314
 Alpha  occ. eigenvalues --   -0.57683  -0.57551  -0.55434  -0.55135  -0.52759
 Alpha  occ. eigenvalues --   -0.52657  -0.52502  -0.52347  -0.50057  -0.49829
 Alpha  occ. eigenvalues --   -0.48023  -0.47886  -0.46697  -0.46580  -0.45908
 Alpha  occ. eigenvalues --   -0.45782  -0.45707  -0.45570  -0.43807  -0.43750
 Alpha virt. eigenvalues --    0.19230   0.22666   0.23480   0.24797   0.25196
 Alpha virt. eigenvalues --    0.26057   0.27071   0.27612   0.28232   0.30062
 Alpha virt. eigenvalues --    0.30413   0.31023   0.31765   0.32129   0.32458

 Mulliken charges:
               1
     1  C   -0.298473
     2  C   -0.303681
     3  C   -0.481166
     4  H    0.149510
     5  H    0.149982
     6  H    0.154715
     7  H    0.152463
     8  H    0.155715
     9  H    0.157601
    10  H    0.163493
    11  C   -0.298363
    12  C   -0.299722
    13  C   -0.475772
    14  H    0.149563
    15  H    0.149858
    16  H    0.152040
    17  H    0.152017
    18  H    0.155236
    19  H    0.155370
    20  H    0.160399
    21  C   -0.300587
    22  C   -0.301005
    23  C   -0.476095
    24  H    0.151660
    25  H    0.149406
    26  H    0.153007
    27  H    0.152200
    28  H    0.155436
    29  H    0.154319
    30  H    0.160459
    31  C   -0.300809
    32  C   -0.302182
    33  C   -0.475840
    34  H    0.153143
    35  H    0.149380
    36  H    0.155010
    37  H    0.151422
    38  H    0.154845
    39  H    0.155391
    40  H    0.160055
 Sum of Mulliken charges =  -0.00000

 Dipole moment (field-independent basis, Debye):
    X=              0.0307    Y=             -0.0196    Z=              0.0087  Tot=              0.0374
 Quadrupole moment (field-independent basis, Debye-Ang):
   XX=            -85.1827   YY=            -85.2140   ZZ=            -84.3992
   XY=             -1.8128   XZ=              0.5320   YZ=             -0.3770

 Normal termination of Gaussian 16 at Wed May  5 22:55:37 2021.
