 Gaussian 16, Revision A.03,
 Gaussian 16:  EM64L-G16RevA.03 25-Dec-2016

 -------------
 #p 6-31g* mp2
 -------------

 ------------------------------------------------------
 Input file generated by CHIRIPA (05-May-2021 14:51:09)
 ------------------------------------------------------
 Symbolic Z-matrix:
 Charge =  0 Multiplicity = 1

                         Standard orientation:
 ---------------------------------------------------------------------
 Center     Atomic      Atomic             Coordinates (Angstroms)
 Number     Number       Type             X           Y           Z
 ---------------------------------------------------------------------
      1          6           0        2.902133    1.302598    0.247271
      2          6           0        1.619904    1.809204   -0.413959
      3          6           0        1.076239    3.077332    0.244882
      4          1           0        2.707123    1.110071    1.311155
      5          1           0        3.664126    2.093268    0.207257
      6          1           0        0.860998    1.017322   -0.373942
      7          1           0        1.817939    2.000364   -1.476435
      8          1           0        1.813249    3.885190    0.192122
      9          1           0        0.850871    2.896562    1.300880
     10          1           0        0.159446    3.422066   -0.243492
     11          6           0        3.457831    0.035456   -0.400246
     12          6           0        4.740059   -0.471150    0.260984
     13          6           0        5.283725   -1.739279   -0.397857
     14          1           0        2.695838   -0.755215   -0.360232
     15          1           0        3.652841    0.227982   -1.464130
     16          1           0        4.542024   -0.662311    1.323461
     17          1           0        5.498965    0.320731    0.220967
     18          1           0        5.509093   -1.558509   -1.453855
     19          1           0        4.546715   -2.547136   -0.345097
     20          1           0        6.200518   -2.084012    0.090517
     21          6           0       -2.629615   -1.155925   -0.131981
     22          6           0       -1.371180   -1.053982    0.730535
     23          6           0       -0.279213   -2.034314    0.301170
     24          1           0       -3.017187   -2.182775   -0.083921
     25          1           0       -2.362168   -0.971587   -1.181689
     26          1           0       -1.641157   -1.237092    1.778485
     27          1           0       -0.986668   -0.027206    0.680569
     28          1           0        0.018615   -1.849170   -0.735952
     29          1           0       -0.639594   -3.065930    0.368203
     30          1           0        0.611296   -1.944430    0.931070
     31          6           0       -3.730349   -0.182129    0.284956
     32          6           0       -4.988783   -0.284070   -0.577560
     33          6           0       -6.080751    0.696260   -0.148195
     34          1           0       -3.997796   -0.366466    1.334664
     35          1           0       -3.342777    0.844723    0.236896
     36          1           0       -5.373295   -1.310847   -0.527594
     37          1           0       -4.718806   -0.100961   -1.625510
     38          1           0       -5.720369    1.727877   -0.215228
     39          1           0       -6.378578    0.511117    0.888926
     40          1           0       -6.971259    0.606377   -0.778096
 ---------------------------------------------------------------------

 SCF Done:  E(RHF) =  -470.733010991     A.U. after   11 cycles
 E2 =    -0.1583756354D+01 EUMP2 =    -0.47231676734573D+03

 The electronic state is 1-A.
 Alpha  occ. eigenvalues --  -11.21662 -11.21622 -11.21574 -11.21566 -11.21444
 Alpha  occ. eigenvalues --  -11.21382 -11.21365 -11.21287 -11.21171 -11.21091
 Alpha  occ. eigenvalues --  -11.21085 -11.21037  -1.08485  -1.08391  -1.03597
 Alpha  occ. eigenvalues --   -1.03501  -0.96038  -0.95958  -0.87054  -0.86973
 Alpha  occ. eigenvalues --   -0.79687  -0.79540  -0.78290  -0.78210  -0.65272
 Alpha  occ. eigenvalues --   -0.64913  -0.61165  -0.60742  -0.59404  -0.59321
 Alpha  occ. eigenvalues --   -0.57640  -0.57573  -0.55337  -0.55247  -0.52750
 Alpha  occ. eigenvalues --   -0.52653  -0.52456  -0.52376  -0.50024  -0.49861
 Alpha  occ. eigenvalues --   -0.48047  -0.47843  -0.46861  -0.46431  -0.45900
 Alpha  occ. eigenvalues --   -0.45749  -0.45734  -0.45507  -0.43821  -0.43756
 Alpha virt. eigenvalues --    0.20093   0.22951   0.23835   0.24330   0.26296
 Alpha virt. eigenvalues --    0.26771   0.26887   0.27543   0.28505   0.29833
 Alpha virt. eigenvalues --    0.30548   0.31470   0.31690   0.31753   0.32369

 Mulliken charges:
               1
     1  C   -0.297284
     2  C   -0.308373
     3  C   -0.475810
     4  H    0.149139
     5  H    0.149447
     6  H    0.160277
     7  H    0.151751
     8  H    0.155598
     9  H    0.155386
    10  H    0.159427
    11  C   -0.304554
    12  C   -0.299399
    13  C   -0.475759
    14  H    0.156500
    15  H    0.149074
    16  H    0.151431
    17  H    0.151744
    18  H    0.155062
    19  H    0.155492
    20  H    0.160060
    21  C   -0.298308
    22  C   -0.306136
    23  C   -0.478930
    24  H    0.149895
    25  H    0.149842
    26  H    0.152462
    27  H    0.157226
    28  H    0.156909
    29  H    0.156034
    30  H    0.161300
    31  C   -0.298472
    32  C   -0.299720
    33  C   -0.475742
    34  H    0.149591
    35  H    0.150005
    36  H    0.151966
    37  H    0.152035
    38  H    0.155287
    39  H    0.155214
    40  H    0.160333
 Sum of Mulliken charges =  -0.00000

 Dipole moment (field-independent basis, Debye):
    X=             -0.0396    Y=             -0.0254    Z=             -0.0014  Tot=              0.0470
 Quadrupole moment (field-independent basis, Debye-Ang):
   XX=            -85.4748   YY=            -85.2312   ZZ=            -84.1439
   XY=              1.6226   XZ=             -0.2517   YZ=             -1.2785

 Normal termination of Gaussian 16 at Thu May  6 03:44:11 2021.
