 Gaussian 16, Revision A.03,
 Gaussian 16:  EM64L-G16RevA.03 25-Dec-2016

 -------------
 #p 6-31g* mp2
 -------------

 ------------------------------------------------------
 Input file generated by CHIRIPA (05-May-2021 14:55:19)
 ------------------------------------------------------
 Symbolic Z-matrix:
 Charge =  0 Multiplicity = 1

                         Standard orientation:
 ---------------------------------------------------------------------
 Center     Atomic      Atomic             Coordinates (Angstroms)
 Number     Number       Type             X           Y           Z
 ---------------------------------------------------------------------
      1          6           0        0.975914    1.026119    2.142555
      2          6           0        0.403113   -0.106212    1.554128
      3          6           0        1.097218   -0.827064    0.577840
      4          6           0        2.367867   -0.385426    0.212193
      5          6           0        2.965428    0.738773    0.779984
      6          6           0        2.252992    1.444261    1.754289
      7          1           0        0.429596    1.580126    2.900189
      8          1           0       -0.588522   -0.433262    1.853701
      9          1           0        0.677479   -1.707180    0.106000
     10          1           0        3.955630    1.040396    0.460703
     11          1           0        2.700322    2.323277    2.209560
     12          7           0        3.112388   -1.140427   -0.820310
     13          8           0        4.230403   -0.730746   -1.125010
     14          8           0        2.563831   -2.127580   -1.305336
     15          6           0       -2.289877    0.565761   -0.923911
     16          6           0       -2.073872    2.079150   -0.892583
     17          6           0       -0.902156    2.527274   -1.766689
     18          1           0       -1.370529    0.063634   -0.592834
     19          1           0       -2.462982    0.248504   -1.961589
     20          1           0       -1.902599    2.393650    0.144900
     21          1           0       -2.993905    2.577739   -1.223590
     22          1           0       -1.068836    2.241713   -2.810371
     23          1           0        0.028669    2.056578   -1.434106
     24          1           0       -0.765647    3.612560   -1.729556
     25          6           0       -3.457734    0.102380   -0.054935
     26          6           0       -3.673739   -1.411008   -0.086262
     27          6           0       -4.845455   -1.859132    0.787843
     28          1           0       -3.284629    0.419639    0.982743
     29          1           0       -4.377082    0.604509   -0.386012
     30          1           0       -2.753706   -1.909597    0.244745
     31          1           0       -3.845011   -1.725509   -1.123746
     32          1           0       -5.776279   -1.388436    0.455260
     33          1           0       -4.678774   -1.573571    1.831526
     34          1           0       -4.981964   -2.944418    0.750710
 ---------------------------------------------------------------------

 SCF Done:  E(RHF) =  -669.534439516     A.U. after   15 cycles
 E2 =    -0.2094722851D+01 EUMP2 =    -0.67162916236734D+03

 The electronic state is 1-A.
 Alpha  occ. eigenvalues --  -20.60836 -20.60831 -15.85893 -11.31314 -11.27868
 Alpha  occ. eigenvalues --  -11.27862 -11.27612 -11.26897 -11.26887 -11.22257
 Alpha  occ. eigenvalues --  -11.22000 -11.21963 -11.21687 -11.21626 -11.21243
 Alpha  occ. eigenvalues --   -1.59911  -1.39463  -1.19492  -1.08962  -1.08844
 Alpha  occ. eigenvalues --   -1.04906  -1.03975  -0.96410  -0.95695  -0.87422
 Alpha  occ. eigenvalues --   -0.86284  -0.82537  -0.80058  -0.78752  -0.77563
 Alpha  occ. eigenvalues --   -0.72108  -0.71236  -0.70579  -0.65739  -0.65129
 Alpha  occ. eigenvalues --   -0.64805  -0.62214  -0.61404  -0.59783  -0.58020
 Alpha  occ. eigenvalues --   -0.55717  -0.55366  -0.53253  -0.53094  -0.52967
 Alpha  occ. eigenvalues --   -0.52817  -0.50363  -0.48872  -0.48860  -0.48354
 Alpha  occ. eigenvalues --   -0.47118  -0.46257  -0.46221  -0.44854  -0.44236
 Alpha  occ. eigenvalues --   -0.37458  -0.36379
 Alpha virt. eigenvalues --    0.04933   0.11072   0.16303   0.18978   0.23120
 Alpha virt. eigenvalues --    0.23602   0.25260   0.25939   0.27176   0.28656
 Alpha virt. eigenvalues --    0.29909   0.30240   0.31282   0.31485   0.32123

 Mulliken charges:
               1
     1  C   -0.172077
     2  C   -0.218848
     3  C   -0.172318
     4  C    0.158347
     5  C   -0.171654
     6  C   -0.218061
     7  H    0.226341
     8  H    0.228626
     9  H    0.277092
    10  H    0.276303
    11  H    0.224282
    12  N    0.488116
    13  O   -0.459961
    14  O   -0.459728
    15  C   -0.305308
    16  C   -0.297102
    17  C   -0.477779
    18  H    0.153231
    19  H    0.153368
    20  H    0.145012
    21  H    0.152587
    22  H    0.157775
    23  H    0.159019
    24  H    0.158997
    25  C   -0.299567
    26  C   -0.299600
    27  C   -0.475473
    28  H    0.140715
    29  H    0.153546
    30  H    0.143252
    31  H    0.157798
    32  H    0.157881
    33  H    0.152148
    34  H    0.163041
 Sum of Mulliken charges =  -0.00000

 Dipole moment (field-independent basis, Debye):
    X=             -2.5834    Y=              2.6445    Z=              3.5673  Tot=              5.1374
 Quadrupole moment (field-independent basis, Debye-Ang):
   XX=           -104.4613   YY=            -95.4655   ZZ=            -93.4761
   XY=              9.9485   XZ=              9.7750   YZ=             -0.2252

 Normal termination of Gaussian 16 at Thu May  6 04:30:31 2021.
