 Gaussian 16, Revision A.03,
 Gaussian 16:  EM64L-G16RevA.03 25-Dec-2016

 -------------
 #p 6-31g* mp2
 -------------

 ------------------------------------------------------
 Input file generated by CHIRIPA (05-May-2021 14:53:13)
 ------------------------------------------------------
 Symbolic Z-matrix:
 Charge =  0 Multiplicity = 1

                         Standard orientation:
 ---------------------------------------------------------------------
 Center     Atomic      Atomic             Coordinates (Angstroms)
 Number     Number       Type             X           Y           Z
 ---------------------------------------------------------------------
      1          6           0       -2.385164    0.717663   -0.349867
      2          6           0       -2.602087    2.220819   -0.527217
      3          6           0       -1.298731    2.981093   -0.774284
      4          1           0       -1.696230    0.549547    0.489211
      5          1           0       -1.890300    0.317475   -1.245610
      6          1           0       -3.097643    2.617803    0.368017
      7          1           0       -3.290735    2.385369   -1.365848
      8          1           0       -0.803307    2.612706   -1.678412
      9          1           0       -0.609118    2.846462    0.065305
     10          1           0       -1.476999    4.053807   -0.898235
     11          6           0       -3.678879   -0.056046   -0.102072
     12          6           0       -3.461956   -1.559202    0.075277
     13          6           0       -4.765312   -2.319476    0.322344
     14          1           0       -4.173743    0.344142    0.793670
     15          1           0       -4.367813    0.112070   -0.941150
     16          1           0       -2.773308   -1.723752    0.913909
     17          1           0       -2.966400   -1.956187   -0.819957
     18          1           0       -5.454925   -2.184845   -0.517245
     19          1           0       -5.260736   -1.951089    1.226472
     20          1           0       -4.587043   -3.392190    0.446295
     21          6           0        2.023803    2.143259    0.868453
     22          6           0        3.059377    1.809916   -0.010745
     23          6           0        3.259830    0.482469   -0.400934
     24          6           0        2.402116   -0.490632    0.109648
     25          6           0        1.361467   -0.190098    0.987154
     26          6           0        1.179642    1.143950    1.363724
     27          1           0        1.875322    3.177016    1.166272
     28          1           0        3.716504    2.583910   -0.396963
     29          1           0        4.053701    0.196538   -1.080221
     30          1           0        0.722641   -0.983615    1.355459
     31          1           0        0.374579    1.399907    2.046663
     32          7           0        2.604467   -1.899435   -0.296219
     33          8           0        1.835118   -2.738195    0.167699
     34          8           0        3.528587   -2.138219   -1.070571
 ---------------------------------------------------------------------

 SCF Done:  E(RHF) =  -669.533360982     A.U. after   15 cycles
 E2 =    -0.2094435548D+01 EUMP2 =    -0.67162779652992D+03

 The electronic state is 1-A.
 Alpha  occ. eigenvalues --  -20.60773 -20.60767 -15.85828 -11.31201 -11.27779
 Alpha  occ. eigenvalues --  -11.27771 -11.27511 -11.26790 -11.26780 -11.22034
 Alpha  occ. eigenvalues --  -11.21746 -11.21707 -11.21598 -11.21502 -11.21105
 Alpha  occ. eigenvalues --   -1.59848  -1.39401  -1.19389  -1.08813  -1.08705
 Alpha  occ. eigenvalues --   -1.04803  -1.03798  -0.96271  -0.95607  -0.87287
 Alpha  occ. eigenvalues --   -0.86200  -0.82449  -0.79880  -0.78543  -0.77477
 Alpha  occ. eigenvalues --   -0.72048  -0.71172  -0.70502  -0.65428  -0.65053
 Alpha  occ. eigenvalues --   -0.64790  -0.62160  -0.61194  -0.59633  -0.57870
 Alpha  occ. eigenvalues --   -0.55606  -0.55284  -0.53257  -0.52943  -0.52893
 Alpha  occ. eigenvalues --   -0.52598  -0.50222  -0.48807  -0.48800  -0.48160
 Alpha  occ. eigenvalues --   -0.46920  -0.46076  -0.45983  -0.44804  -0.44061
 Alpha  occ. eigenvalues --   -0.37273  -0.36303
 Alpha virt. eigenvalues --    0.05002   0.11136   0.16349   0.20015   0.23007
 Alpha virt. eigenvalues --    0.23923   0.25264   0.26744   0.27029   0.28476
 Alpha virt. eigenvalues --    0.29776   0.30208   0.31397   0.31417   0.31889

 Mulliken charges:
               1
     1  C   -0.298131
     2  C   -0.300400
     3  C   -0.476777
     4  H    0.141943
     5  H    0.154057
     6  H    0.149192
     7  H    0.154456
     8  H    0.158513
     9  H    0.150644
    10  H    0.157835
    11  C   -0.298768
    12  C   -0.299335
    13  C   -0.476145
    14  H    0.147553
    15  H    0.151233
    16  H    0.148711
    17  H    0.157275
    18  H    0.155595
    19  H    0.153745
    20  H    0.163541
    21  C   -0.168405
    22  C   -0.219217
    23  C   -0.171055
    24  C    0.157146
    25  C   -0.168656
    26  C   -0.216901
    27  H    0.226562
    28  H    0.223759
    29  H    0.275695
    30  H    0.275890
    31  H    0.223167
    32  N    0.488047
    33  O   -0.460194
    34  O   -0.460574
 Sum of Mulliken charges =  -0.00000

 Dipole moment (field-independent basis, Debye):
    X=             -0.6868    Y=              4.8769    Z=              1.3427  Tot=              5.1048
 Quadrupole moment (field-independent basis, Debye-Ang):
   XX=            -96.1111   YY=           -100.4649   ZZ=            -92.3854
   XY=             13.4639   XZ=              1.3138   YZ=             -0.7585

 Normal termination of Gaussian 16 at Thu May  6 12:03:33 2021.
