 Gaussian 16, Revision A.03,
 Gaussian 16:  EM64L-G16RevA.03 25-Dec-2016

 -------------
 #p 6-31g* mp2
 -------------

 ------------------------------------------------------
 Input file generated by CHIRIPA (05-May-2021 14:51:09)
 ------------------------------------------------------
 Symbolic Z-matrix:
 Charge =  0 Multiplicity = 1

                         Standard orientation:
 ---------------------------------------------------------------------
 Center     Atomic      Atomic             Coordinates (Angstroms)
 Number     Number       Type             X           Y           Z
 ---------------------------------------------------------------------
      1          6           0        3.317275    0.577097   -0.430305
      2          6           0        3.513357    2.020452    0.034737
      3          6           0        2.403690    2.953762   -0.450406
      4          1           0        3.271461    0.555188   -1.527741
      5          1           0        2.345789    0.211764   -0.069553
      6          1           0        4.484794    2.382494   -0.325615
      7          1           0        3.558901    2.038904    1.131186
      8          1           0        1.429471    2.619507   -0.079229
      9          1           0        2.360625    2.965049   -1.544307
     10          1           0        2.563694    3.980425   -0.106572
     11          6           0        4.418601   -0.368006    0.046755
     12          6           0        4.222518   -1.811361   -0.418286
     13          6           0        5.332186   -2.744671    0.066857
     14          1           0        5.390087   -0.002673   -0.313996
     15          1           0        4.464414   -0.346097    1.144192
     16          1           0        4.176975   -1.829813   -1.514736
     17          1           0        3.251082   -2.173403   -0.057935
     18          1           0        5.375251   -2.755957    1.160758
     19          1           0        6.306404   -2.410415   -0.304320
     20          1           0        5.172181   -3.771334   -0.276977
     21          6           0       -4.462084   -0.005441   -0.277906
     22          6           0       -5.674153   -0.862590    0.088388
     23          6           0       -6.854704   -0.653217   -0.860430
     24          1           0       -4.754878    1.053422   -0.273108
     25          1           0       -4.153344   -0.239711   -1.306105
     26          1           0       -5.979662   -0.627769    1.116074
     27          1           0       -5.378391   -1.919525    0.082904
     28          1           0       -6.572943   -0.906281   -1.887645
     29          1           0       -7.177630    0.392813   -0.848604
     30          1           0       -7.710264   -1.275589   -0.580197
     31          6           0       -3.273791   -0.203649    0.661456
     32          6           0       -2.061723    0.653499    0.295162
     33          6           0       -0.881172    0.444126    1.243980
     34          1           0       -3.582531    0.030620    1.689654
     35          1           0       -2.980998   -1.262513    0.656657
     36          1           0       -2.357484    1.710434    0.300646
     37          1           0       -1.756213    0.418678   -0.732525
     38          1           0       -0.558245   -0.601905    1.232153
     39          1           0       -1.162933    0.697190    2.271194
     40          1           0       -0.025611    1.066497    0.963746
 ---------------------------------------------------------------------

 SCF Done:  E(RHF) =  -470.733180899     A.U. after   11 cycles
 E2 =    -0.1582800124D+01 EUMP2 =    -0.47231598102293D+03

 The electronic state is 1-A.
 Alpha  occ. eigenvalues --  -11.21636 -11.21612 -11.21586 -11.21584 -11.21425
 Alpha  occ. eigenvalues --  -11.21370 -11.21364 -11.21308 -11.21133 -11.21078
 Alpha  occ. eigenvalues --  -11.21069 -11.21057  -1.08454  -1.08406  -1.03568
 Alpha  occ. eigenvalues --   -1.03509  -0.96020  -0.95960  -0.87038  -0.86978
 Alpha  occ. eigenvalues --   -0.79639  -0.79561  -0.78263  -0.78217  -0.65090
 Alpha  occ. eigenvalues --   -0.65042  -0.60975  -0.60947  -0.59460  -0.59251
 Alpha  occ. eigenvalues --   -0.57689  -0.57512  -0.55324  -0.55231  -0.52751
 Alpha  occ. eigenvalues --   -0.52656  -0.52487  -0.52329  -0.49975  -0.49883
 Alpha  occ. eigenvalues --   -0.48010  -0.47827  -0.46657  -0.46592  -0.45805
 Alpha  occ. eigenvalues --   -0.45759  -0.45732  -0.45664  -0.43785  -0.43747
 Alpha virt. eigenvalues --    0.20855   0.23073   0.23542   0.24860   0.26306
 Alpha virt. eigenvalues --    0.26633   0.27158   0.27268   0.27916   0.29243
 Alpha virt. eigenvalues --    0.30239   0.31417   0.31754   0.31882   0.31994

 Mulliken charges:
               1
     1  C   -0.302840
     2  C   -0.299238
     3  C   -0.481913
     4  H    0.149256
     5  H    0.154205
     6  H    0.151991
     7  H    0.152005
     8  H    0.159998
     9  H    0.155468
    10  H    0.160523
    11  C   -0.298054
    12  C   -0.299603
    13  C   -0.475699
    14  H    0.149366
    15  H    0.149812
    16  H    0.151772
    17  H    0.151873
    18  H    0.155247
    19  H    0.155149
    20  H    0.160099
    21  C   -0.298318
    22  C   -0.299682
    23  C   -0.475726
    24  H    0.149774
    25  H    0.149685
    26  H    0.151931
    27  H    0.151952
    28  H    0.155235
    29  H    0.155226
    30  H    0.160282
    31  C   -0.298461
    32  C   -0.299270
    33  C   -0.485629
    34  H    0.149576
    35  H    0.149695
    36  H    0.152259
    37  H    0.152666
    38  H    0.155199
    39  H    0.155617
    40  H    0.168569
 Sum of Mulliken charges =  -0.00000

 Dipole moment (field-independent basis, Debye):
    X=             -0.0235    Y=              0.0021    Z=              0.0017  Tot=              0.0236
 Quadrupole moment (field-independent basis, Debye-Ang):
   XX=            -85.8167   YY=            -84.8431   ZZ=            -84.1319
   XY=              0.4444   XZ=             -1.4106   YZ=              0.5418

 Normal termination of Gaussian 16 at Thu May  6 03:43:38 2021.
