 Gaussian 16, Revision A.03,
 Gaussian 16:  EM64L-G16RevA.03 25-Dec-2016

 -------------
 #p 6-31g* mp2
 -------------

 ------------------------------------------------------
 Input file generated by CHIRIPA (05-May-2021 14:57:23)
 ------------------------------------------------------
 Symbolic Z-matrix:
 Charge =  0 Multiplicity = 1

                         Standard orientation:
 ---------------------------------------------------------------------
 Center     Atomic      Atomic             Coordinates (Angstroms)
 Number     Number       Type             X           Y           Z
 ---------------------------------------------------------------------
      1          6           0        1.861284   -0.110771    2.101897
      2          6           0        2.819948    0.904299    2.017539
      3          6           0        3.680874    0.978264    0.918502
      4          6           0        3.554879    0.016347   -0.082563
      5          6           0        2.609935   -1.007039   -0.027318
      6          6           0        1.759517   -1.061525    1.080999
      7          1           0        1.196577   -0.160663    2.959260
      8          1           0        2.901257    1.644022    2.808894
      9          1           0        4.432037    1.753469    0.827779
     10          1           0        2.552859   -1.730147   -0.831853
     11          1           0        1.015949   -1.850956    1.143849
     12          7           0        4.460741    0.084340   -1.250977
     13          8           0        4.329496   -0.775171   -2.119684
     14          8           0        5.284848    0.995856   -1.275948
     15          6           0       -3.993215    2.421590   -0.472753
     16          6           0       -4.632687    1.427209   -1.220285
     17          6           0       -4.315040    0.079411   -1.027696
     18          6           0       -3.348772   -0.239749   -0.074937
     19          6           0       -2.694127    0.727998    0.685456
     20          6           0       -3.027679    2.069432    0.476059
     21          1           0       -4.246149    3.466120   -0.628889
     22          1           0       -5.382931    1.697768   -1.957832
     23          1           0       -4.794637   -0.710681   -1.592638
     24          1           0       -1.950419    0.427394    1.413434
     25          1           0       -2.529436    2.839556    1.058045
     26          7           0       -3.004075   -1.663233    0.137846
     27          8           0       -2.149268   -1.918328    0.983345
     28          8           0       -3.595234   -2.496911   -0.544905
 ---------------------------------------------------------------------

 SCF Done:  E(RHF) =  -868.339542737     A.U. after   16 cycles
 E2 =    -0.2598950707D+01 EUMP2 =    -0.87093849344337D+03

 The electronic state is 1-A.
 Alpha  occ. eigenvalues --  -20.61601 -20.61528 -20.60567 -20.60555 -15.86605
 Alpha  occ. eigenvalues --  -15.85610 -11.31762 -11.30930 -11.28353 -11.28277
 Alpha  occ. eigenvalues --  -11.27995 -11.27505 -11.27375 -11.27290 -11.27244
 Alpha  occ. eigenvalues --  -11.27186 -11.26562 -11.26278  -1.60626  -1.59640
 Alpha  occ. eigenvalues --   -1.40191  -1.39194  -1.19912  -1.19073  -1.09340
 Alpha  occ. eigenvalues --   -1.08483  -1.05289  -1.04441  -0.96214  -0.95332
 Alpha  occ. eigenvalues --   -0.86697  -0.85837  -0.83062  -0.82144  -0.78139
 Alpha  occ. eigenvalues --   -0.77195  -0.72839  -0.71932  -0.71828  -0.71022
 Alpha  occ. eigenvalues --   -0.70963  -0.70190  -0.65574  -0.65292  -0.64712
 Alpha  occ. eigenvalues --   -0.64390  -0.62650  -0.61757  -0.55787  -0.54963
 Alpha  occ. eigenvalues --   -0.53619  -0.53386  -0.52809  -0.52490  -0.49600
 Alpha  occ. eigenvalues --   -0.49555  -0.48589  -0.48580  -0.45637  -0.44609
 Alpha  occ. eigenvalues --   -0.37868  -0.37090  -0.36873  -0.36044
 Alpha virt. eigenvalues --    0.04374   0.05279   0.10771   0.11582   0.15893
 Alpha virt. eigenvalues --    0.16768   0.20561   0.21894   0.26309   0.27253
 Alpha virt. eigenvalues --    0.28056   0.28883   0.30709   0.31292   0.32323

 Mulliken charges:
               1
     1  C   -0.178104
     2  C   -0.219200
     3  C   -0.173089
     4  C    0.158809
     5  C   -0.173261
     6  C   -0.224195
     7  H    0.224883
     8  H    0.220125
     9  H    0.273619
    10  H    0.277509
    11  H    0.245878
    12  N    0.487905
    13  O   -0.459629
    14  O   -0.462245
    15  C   -0.169690
    16  C   -0.218192
    17  C   -0.170038
    18  C    0.158404
    19  C   -0.168560
    20  C   -0.217690
    21  H    0.227871
    22  H    0.225851
    23  H    0.277046
    24  H    0.268757
    25  H    0.223561
    26  N    0.490311
    27  O   -0.471645
    28  O   -0.454992
 Sum of Mulliken charges =  -0.00000

 Dipole moment (field-independent basis, Debye):
    X=             -4.7158    Y=              4.6960    Z=              3.2234  Tot=              7.3947
 Quadrupole moment (field-independent basis, Debye-Ang):
   XX=           -117.0410   YY=           -104.0800   ZZ=           -103.3486
   XY=            -15.0648   XZ=             21.5823   YZ=              2.6626

 Normal termination of Gaussian 16 at Wed May  5 19:25:27 2021.
