 Gaussian 16, Revision A.03,
 Gaussian 16:  EM64L-G16RevA.03 25-Dec-2016

 -------------
 #p 6-31g* mp2
 -------------

 ------------------------------------------------------
 Input file generated by CHIRIPA (05-May-2021 14:53:17)
 ------------------------------------------------------
 Symbolic Z-matrix:
 Charge =  0 Multiplicity = 1

                         Standard orientation:
 ---------------------------------------------------------------------
 Center     Atomic      Atomic             Coordinates (Angstroms)
 Number     Number       Type             X           Y           Z
 ---------------------------------------------------------------------
      1          6           0       -2.374756    1.113374   -0.531323
      2          6           0       -2.087807    2.353383    0.316040
      3          6           0       -0.977668    3.226093   -0.270274
      4          1           0       -1.453944    0.522011   -0.627965
      5          1           0       -2.652201    1.428012   -1.546913
      6          1           0       -1.812328    2.036548    1.330113
      7          1           0       -3.009456    2.941764    0.410837
      8          1           0       -1.247794    3.570442   -1.273796
      9          1           0       -0.043865    2.660082   -0.349297
     10          1           0       -0.788913    4.106937    0.351291
     11          6           0       -3.482199    0.230919    0.041886
     12          6           0       -3.769149   -1.009089   -0.805477
     13          6           0       -4.879287   -1.881799   -0.219162
     14          1           0       -3.204754   -0.083719    1.057476
     15          1           0       -4.403012    0.822282    0.138529
     16          1           0       -2.847500   -1.597471   -0.900273
     17          1           0       -4.044627   -0.692254   -1.819550
     18          1           0       -5.813090   -1.315789   -0.140140
     19          1           0       -4.609161   -2.226149    0.784360
     20          1           0       -5.068043   -2.762644   -0.840728
     21          6           0        0.119556   -1.503889    1.031617
     22          6           0        0.968374   -2.270906    0.226809
     23          6           0        2.172256   -1.738872   -0.244525
     24          6           0        2.497498   -0.430490    0.109937
     25          6           0        1.672871    0.358844    0.910082
     26          6           0        0.473889   -0.193773    1.370087
     27          1           0       -0.813746   -1.925179    1.393360
     28          1           0        0.695764   -3.288644   -0.037646
     29          1           0        2.847976   -2.310493   -0.869083
     30          1           0        1.971704    1.370374    1.156908
     31          1           0       -0.183366    0.404228    1.994953
     32          7           0        3.769401    0.143644   -0.383047
     33          8           0        4.033075    1.298866   -0.056586
     34          8           0        4.478560   -0.572441   -1.086574
 ---------------------------------------------------------------------

 SCF Done:  E(RHF) =  -669.534034355     A.U. after   15 cycles
 E2 =    -0.2095478418D+01 EUMP2 =    -0.67162951277308D+03

 The electronic state is 1-A.
 Alpha  occ. eigenvalues --  -20.60842 -20.60837 -15.85897 -11.31315 -11.27866
 Alpha  occ. eigenvalues --  -11.27852 -11.27603 -11.26909 -11.26864 -11.22369
 Alpha  occ. eigenvalues --  -11.22291 -11.22177 -11.21836 -11.21829 -11.21522
 Alpha  occ. eigenvalues --   -1.59917  -1.39468  -1.19493  -1.09162  -1.08845
 Alpha  occ. eigenvalues --   -1.04909  -1.04204  -0.96634  -0.95696  -0.87649
 Alpha  occ. eigenvalues --   -0.86285  -0.82528  -0.80281  -0.78929  -0.77575
 Alpha  occ. eigenvalues --   -0.72114  -0.71241  -0.70595  -0.65969  -0.65136
 Alpha  occ. eigenvalues --   -0.64773  -0.62372  -0.61491  -0.59997  -0.58238
 Alpha  occ. eigenvalues --   -0.55950  -0.55361  -0.53336  -0.53232  -0.53032
 Alpha  occ. eigenvalues --   -0.53001  -0.50559  -0.48881  -0.48866  -0.48572
 Alpha  occ. eigenvalues --   -0.47338  -0.46465  -0.46370  -0.44862  -0.44442
 Alpha  occ. eigenvalues --   -0.37411  -0.36430
 Alpha virt. eigenvalues --    0.04894   0.11037   0.16238   0.18795   0.22554
 Alpha virt. eigenvalues --    0.23773   0.25035   0.26338   0.26864   0.28026
 Alpha virt. eigenvalues --    0.29346   0.30356   0.31050   0.31628   0.32297

 Mulliken charges:
               1
     1  C   -0.306958
     2  C   -0.300307
     3  C   -0.480443
     4  H    0.160639
     5  H    0.152869
     6  H    0.139534
     7  H    0.155370
     8  H    0.159986
     9  H    0.157655
    10  H    0.161536
    11  C   -0.297368
    12  C   -0.301404
    13  C   -0.475558
    14  H    0.137923
    15  H    0.153277
    16  H    0.148102
    17  H    0.156554
    18  H    0.158503
    19  H    0.150428
    20  H    0.162111
    21  C   -0.172641
    22  C   -0.218648
    23  C   -0.170906
    24  C    0.158552
    25  C   -0.173054
    26  C   -0.219231
    27  H    0.228143
    28  H    0.224371
    29  H    0.276195
    30  H    0.277175
    31  H    0.229217
    32  N    0.488154
    33  O   -0.459788
    34  O   -0.459990
 Sum of Mulliken charges =  -0.00000

 Dipole moment (field-independent basis, Debye):
    X=             -4.4515    Y=             -2.0030    Z=              1.6017  Tot=              5.1374
 Quadrupole moment (field-independent basis, Debye-Ang):
   XX=           -117.5509   YY=            -89.6103   ZZ=            -93.6951
   XY=             -5.1842   XZ=              4.3187   YZ=              1.1321

 Normal termination of Gaussian 16 at Wed May  5 18:48:34 2021.
