 Gaussian 16, Revision A.03,
 Gaussian 16:  EM64L-G16RevA.03 25-Dec-2016

 -------------
 #p 6-31g* mp2
 -------------

 ------------------------------------------------------
 Input file generated by CHIRIPA (05-May-2021 14:57:26)
 ------------------------------------------------------
 Symbolic Z-matrix:
 Charge =  0 Multiplicity = 1

                         Standard orientation:
 ---------------------------------------------------------------------
 Center     Atomic      Atomic             Coordinates (Angstroms)
 Number     Number       Type             X           Y           Z
 ---------------------------------------------------------------------
      1          6           0        2.192942   -2.558740    0.468289
      2          6           0        3.215891   -2.245278   -0.432731
      3          6           0        3.596435   -0.916159   -0.640525
      4          6           0        2.929729    0.078865    0.072721
      5          6           0        1.906746   -0.201541    0.977247
      6          6           0        1.542780   -1.537671    1.169167
      7          1           0        1.903766   -3.593955    0.623543
      8          1           0        3.722566   -3.036191   -0.978425
      9          1           0        4.385019   -0.645336   -1.332051
     10          1           0        1.420119    0.608606    1.506657
     11          1           0        0.747994   -1.778160    1.869542
     12          7           0        3.323818    1.489655   -0.138858
     13          8           0        2.720872    2.347931    0.501809
     14          8           0        4.228190    1.710442   -0.941355
     15          6           0       -2.529098    2.646189    0.093633
     16          6           0       -3.822439    2.115876    0.043048
     17          6           0       -4.020328    0.736395   -0.068396
     18          6           0       -2.897231   -0.087319   -0.127046
     19          6           0       -1.596122    0.410772   -0.078984
     20          6           0       -1.422019    1.793448    0.032563
     21          1           0       -2.384612    3.719044    0.180246
     22          1           0       -4.684069    2.775731    0.090272
     23          1           0       -5.010539    0.299132   -0.109622
     24          1           0       -0.756781   -0.272239   -0.128200
     25          1           0       -0.416435    2.202496    0.071633
     26          7           0       -3.094136   -1.549405   -0.245082
     27          8           0       -2.088159   -2.253793   -0.294945
     28          8           0       -4.250718   -1.963315   -0.285500
 ---------------------------------------------------------------------

 SCF Done:  E(RHF) =  -868.340007033     A.U. after   16 cycles
 E2 =    -0.2601845690D+01 EUMP2 =    -0.87094185272274D+03

 The electronic state is 1-A.
 Alpha  occ. eigenvalues --  -20.61496 -20.61435 -20.61092 -20.61050 -15.86483
 Alpha  occ. eigenvalues --  -15.86112 -11.31629 -11.31238 -11.28173 -11.28100
 Alpha  occ. eigenvalues --  -11.27791 -11.27686 -11.27668 -11.27418 -11.27026
 Alpha  occ. eigenvalues --  -11.27015 -11.26751 -11.26601  -1.60523  -1.60148
 Alpha  occ. eigenvalues --   -1.40088  -1.39710  -1.19757  -1.19378  -1.09141
 Alpha  occ. eigenvalues --   -1.08806  -1.05154  -1.04720  -0.96031  -0.95686
 Alpha  occ. eigenvalues --   -0.86495  -0.86135  -0.82881  -0.82529  -0.78048
 Alpha  occ. eigenvalues --   -0.77564  -0.72701  -0.72343  -0.71836  -0.71468
 Alpha  occ. eigenvalues --   -0.70789  -0.70456  -0.65394  -0.65132  -0.64964
 Alpha  occ. eigenvalues --   -0.64667  -0.62589  -0.61963  -0.55499  -0.55230
 Alpha  occ. eigenvalues --   -0.53522  -0.53188  -0.53073  -0.52667  -0.49481
 Alpha  occ. eigenvalues --   -0.49428  -0.49103  -0.49063  -0.45528  -0.45169
 Alpha  occ. eigenvalues --   -0.37629  -0.37339  -0.36752  -0.36304
 Alpha virt. eigenvalues --    0.04431   0.04895   0.10826   0.11294   0.16010
 Alpha virt. eigenvalues --    0.16387   0.20896   0.22074   0.26362   0.27605
 Alpha virt. eigenvalues --    0.28484   0.29114   0.30062   0.31441   0.32281

 Mulliken charges:
               1
     1  C   -0.165095
     2  C   -0.217940
     3  C   -0.170644
     4  C    0.160147
     5  C   -0.189025
     6  C   -0.218700
     7  H    0.234826
     8  H    0.226878
     9  H    0.276497
    10  H    0.273279
    11  H    0.233816
    12  N    0.489011
    13  O   -0.469053
    14  O   -0.454858
    15  C   -0.170403
    16  C   -0.218937
    17  C   -0.170986
    18  C    0.156635
    19  C   -0.184574
    20  C   -0.233491
    21  H    0.229891
    22  H    0.223840
    23  H    0.274711
    24  H    0.282626
    25  H    0.240549
    26  N    0.488163
    27  O   -0.468130
    28  O   -0.459032
 Sum of Mulliken charges =  -0.00000

 Dipole moment (field-independent basis, Debye):
    X=             -0.4667    Y=             -0.0112    Z=              1.1247  Tot=              1.2177
 Quadrupole moment (field-independent basis, Debye-Ang):
   XX=           -109.5218   YY=           -106.1000   ZZ=           -103.8720
   XY=            -32.7657   XZ=             -2.0156   YZ=             -0.1404

 Normal termination of Gaussian 16 at Fri May  7 11:16:09 2021.
