 Gaussian 16, Revision A.03,
 Gaussian 16:  EM64L-G16RevA.03 25-Dec-2016

 -------------
 #p 6-31g* mp2
 -------------

 ------------------------------------------------------
 Input file generated by CHIRIPA (05-May-2021 14:55:19)
 ------------------------------------------------------
 Symbolic Z-matrix:
 Charge =  0 Multiplicity = 1

                         Standard orientation:
 ---------------------------------------------------------------------
 Center     Atomic      Atomic             Coordinates (Angstroms)
 Number     Number       Type             X           Y           Z
 ---------------------------------------------------------------------
      1          6           0        1.093828    0.912150    1.120590
      2          6           0        2.088210    1.713678    0.550258
      3          6           0        3.249162    1.138603    0.024876
      4          6           0        3.383507   -0.247546    0.086781
      5          6           0        2.410664   -1.072917    0.648590
      6          6           0        1.257940   -0.476142    1.167852
      7          1           0        0.195168    1.367311    1.526342
      8          1           0        1.963455    2.792118    0.512183
      9          1           0        4.034759    1.735482   -0.422326
     10          1           0        2.563447   -2.145075    0.672106
     11          1           0        0.487344   -1.101097    1.610185
     12          7           0        4.608200   -0.867839   -0.466178
     13          8           0        4.702564   -2.091473   -0.399450
     14          8           0        5.450561   -0.118646   -0.955846
     15          6           0       -3.762244    0.808808    0.087338
     16          6           0       -2.909698    1.621137   -0.887993
     17          6           0       -2.295754    2.864022   -0.242932
     18          1           0       -4.560845    1.448646    0.487074
     19          1           0       -3.142590    0.510198    0.944224
     20          1           0       -3.530422    1.916951   -1.743453
     21          1           0       -2.113149    0.979236   -1.285599
     22          1           0       -1.653808    2.584087    0.598580
     23          1           0       -3.079134    3.527130    0.138126
     24          1           0       -1.690375    3.429919   -0.957871
     25          6           0       -4.382814   -0.436803   -0.542800
     26          6           0       -5.235360   -1.249132    0.432530
     27          6           0       -5.849304   -2.492017   -0.212530
     28          1           0       -5.002469   -0.138194   -1.399687
     29          1           0       -3.584213   -1.076641   -0.942536
     30          1           0       -6.031908   -0.607232    0.830137
     31          1           0       -4.614635   -1.544945    1.287991
     32          1           0       -5.065924   -3.155124   -0.593588
     33          1           0       -6.491249   -2.212083   -1.054043
     34          1           0       -6.454682   -3.057914    0.502409
 ---------------------------------------------------------------------

 SCF Done:  E(RHF) =  -669.535415997     A.U. after   15 cycles
 E2 =    -0.2091246362D+01 EUMP2 =    -0.67162666235874D+03

 The electronic state is 1-A.
 Alpha  occ. eigenvalues --  -20.60768 -20.60762 -15.85822 -11.31193 -11.27763
 Alpha  occ. eigenvalues --  -11.27754 -11.27491 -11.26784 -11.26764 -11.22433
 Alpha  occ. eigenvalues --  -11.22223 -11.22197 -11.22145 -11.22032 -11.21550
 Alpha  occ. eigenvalues --   -1.59843  -1.39396  -1.19365  -1.09179  -1.08758
 Alpha  occ. eigenvalues --   -1.04768  -1.04274  -0.96741  -0.95593  -0.87756
 Alpha  occ. eigenvalues --   -0.86164  -0.82427  -0.80336  -0.78971  -0.77470
 Alpha  occ. eigenvalues --   -0.72039  -0.71166  -0.70503  -0.65815  -0.65016
 Alpha  occ. eigenvalues --   -0.64770  -0.62115  -0.61682  -0.60106  -0.58336
 Alpha  occ. eigenvalues --   -0.56153  -0.55190  -0.53420  -0.53153  -0.53084
 Alpha  occ. eigenvalues --   -0.52859  -0.50677  -0.48801  -0.48794  -0.48643
 Alpha  occ. eigenvalues --   -0.47365  -0.46516  -0.46433  -0.44801  -0.44523
 Alpha  occ. eigenvalues --   -0.37336  -0.36373
 Alpha virt. eigenvalues --    0.05043   0.11271   0.16445   0.19313   0.22627
 Alpha virt. eigenvalues --    0.23837   0.25403   0.26168   0.26632   0.27864
 Alpha virt. eigenvalues --    0.28808   0.30230   0.30965   0.31385   0.32132

 Mulliken charges:
               1
     1  C   -0.172805
     2  C   -0.219881
     3  C   -0.171032
     4  C    0.158544
     5  C   -0.170915
     6  C   -0.220022
     7  H    0.230605
     8  H    0.224197
     9  H    0.275667
    10  H    0.275515
    11  H    0.223246
    12  N    0.488038
    13  O   -0.460458
    14  O   -0.460366
    15  C   -0.296927
    16  C   -0.301669
    17  C   -0.476344
    18  H    0.151997
    19  H    0.141268
    20  H    0.156368
    21  H    0.155099
    22  H    0.142804
    23  H    0.159327
    24  H    0.163083
    25  C   -0.299065
    26  C   -0.299680
    27  C   -0.476112
    28  H    0.152255
    29  H    0.150303
    30  H    0.153149
    31  H    0.149572
    32  H    0.155779
    33  H    0.156748
    34  H    0.161713
 Sum of Mulliken charges =  -0.00000

 Dipole moment (field-independent basis, Debye):
    X=             -4.4805    Y=              2.1911    Z=              1.8394  Tot=              5.3159
 Quadrupole moment (field-independent basis, Debye-Ang):
   XX=           -122.8572   YY=            -92.2823   ZZ=            -94.9220
   XY=              9.3849   XZ=              6.0909   YZ=             -2.2091

 Normal termination of Gaussian 16 at Thu May  6 02:52:13 2021.
