 Gaussian 16, Revision A.03,
 Gaussian 16:  EM64L-G16RevA.03 25-Dec-2016

 -------------
 #p 6-31g* mp2
 -------------

 ------------------------------------------------------
 Input file generated by CHIRIPA (05-May-2021 14:51:13)
 ------------------------------------------------------
 Symbolic Z-matrix:
 Charge =  0 Multiplicity = 1

                         Standard orientation:
 ---------------------------------------------------------------------
 Center     Atomic      Atomic             Coordinates (Angstroms)
 Number     Number       Type             X           Y           Z
 ---------------------------------------------------------------------
      1          6           0       -3.050575    0.482130    0.474673
      2          6           0       -3.170849   -1.039683    0.561870
      3          6           0       -4.219542   -1.492528    1.578221
      4          1           0       -2.798106    0.881058    1.466672
      5          1           0       -4.028615    0.905533    0.207160
      6          1           0       -2.192546   -1.460192    0.827785
      7          1           0       -3.422873   -1.435052   -0.430492
      8          1           0       -5.206925   -1.100530    1.313620
      9          1           0       -3.969607   -1.125812    2.579047
     10          1           0       -4.288972   -2.583819    1.624305
     11          6           0       -2.006191    0.950305   -0.537158
     12          6           0       -1.885916    2.472118   -0.624355
     13          6           0       -0.837223    2.924963   -1.640705
     14          1           0       -1.028151    0.526903   -0.269644
     15          1           0       -2.258660    0.551377   -1.529156
     16          1           0       -1.633893    2.867487    0.368008
     17          1           0       -2.864220    2.892627   -0.890270
     18          1           0       -1.087159    2.558248   -2.641532
     19          1           0        0.150159    2.532965   -1.376105
     20          1           0       -0.767793    4.016254   -1.686790
     21          6           0        2.458889   -1.219532   -0.539089
     22          6           0        1.195916   -2.075903   -0.441541
     23          6           0        1.071020   -3.077978   -1.589601
     24          1           0        2.457130   -0.682758   -1.497638
     25          1           0        3.339271   -1.876944   -0.550605
     26          1           0        0.318244   -1.417006   -0.428816
     27          1           0        1.200590   -2.610553    0.516970
     28          1           0        1.928302   -3.758802   -1.601670
     29          1           0        1.040944   -2.558474   -2.552831
     30          1           0        0.161177   -3.679673   -1.500104
     31          6           0        2.597876   -0.212904    0.601573
     32          6           0        3.860849    0.643468    0.504025
     33          6           0        3.985746    1.645542    1.652085
     34          1           0        1.717494    0.444508    0.613090
     35          1           0        2.599636   -0.749677    1.560121
     36          1           0        3.856176    1.178118   -0.454486
     37          1           0        4.738521   -0.015428    0.491301
     38          1           0        4.015822    1.126038    2.615315
     39          1           0        3.128463    2.326366    1.664154
     40          1           0        4.895589    2.247237    1.562589
 ---------------------------------------------------------------------

 SCF Done:  E(RHF) =  -470.733194045     A.U. after   11 cycles
 E2 =    -0.1583943026D+01 EUMP2 =    -0.47231713707126D+03

 The electronic state is 1-A.
 Alpha  occ. eigenvalues --  -11.21659 -11.21636 -11.21603 -11.21564 -11.21446
 Alpha  occ. eigenvalues --  -11.21445 -11.21382 -11.21371 -11.21145 -11.21101
 Alpha  occ. eigenvalues --  -11.21076 -11.21047  -1.08495  -1.08434  -1.03566
 Alpha  occ. eigenvalues --   -1.03538  -0.96020  -0.95990  -0.87036  -0.87005
 Alpha  occ. eigenvalues --   -0.79632  -0.79612  -0.78427  -0.78141  -0.65285
 Alpha  occ. eigenvalues --   -0.64921  -0.60971  -0.60934  -0.59400  -0.59345
 Alpha  occ. eigenvalues --   -0.57630  -0.57599  -0.55316  -0.55273  -0.52718
 Alpha  occ. eigenvalues --   -0.52676  -0.52456  -0.52405  -0.49989  -0.49913
 Alpha  occ. eigenvalues --   -0.47979  -0.47934  -0.46805  -0.46670  -0.46251
 Alpha  occ. eigenvalues --   -0.45793  -0.45775  -0.45043  -0.43822  -0.43792
 Alpha virt. eigenvalues --    0.19705   0.22800   0.23688   0.24498   0.25233
 Alpha virt. eigenvalues --    0.26780   0.26913   0.27736   0.27969   0.29660
 Alpha virt. eigenvalues --    0.31259   0.31537   0.31682   0.31821   0.32146

 Mulliken charges:
               1
     1  C   -0.297714
     2  C   -0.303072
     3  C   -0.475666
     4  H    0.149632
     5  H    0.149686
     6  H    0.155812
     7  H    0.151712
     8  H    0.155173
     9  H    0.155255
    10  H    0.160313
    11  C   -0.308269
    12  C   -0.298844
    13  C   -0.476545
    14  H    0.158283
    15  H    0.149590
    16  H    0.151914
    17  H    0.152407
    18  H    0.155436
    19  H    0.154665
    20  H    0.160744
    21  C   -0.297632
    22  C   -0.310438
    23  C   -0.475109
    24  H    0.149859
    25  H    0.149736
    26  H    0.162702
    27  H    0.151171
    28  H    0.154906
    29  H    0.155251
    30  H    0.160490
    31  C   -0.301911
    32  C   -0.299673
    33  C   -0.475725
    34  H    0.150791
    35  H    0.149820
    36  H    0.152203
    37  H    0.152336
    38  H    0.155179
    39  H    0.154996
    40  H    0.160537
 Sum of Mulliken charges =  -0.00000

 Dipole moment (field-independent basis, Debye):
    X=             -0.0127    Y=              0.0019    Z=             -0.0024  Tot=              0.0130
 Quadrupole moment (field-independent basis, Debye-Ang):
   XX=            -84.5461   YY=            -85.1580   ZZ=            -84.9918
   XY=             -0.8889   XZ=              1.1497   YZ=             -0.6637

 Normal termination of Gaussian 16 at Thu May  6 00:49:38 2021.
