 Gaussian 16, Revision A.03,
 Gaussian 16:  EM64L-G16RevA.03 25-Dec-2016

 -------------
 #p 6-31g* mp2
 -------------

 ------------------------------------------------------
 Input file generated by CHIRIPA (05-May-2021 14:51:13)
 ------------------------------------------------------
 Symbolic Z-matrix:
 Charge =  0 Multiplicity = 1

                         Standard orientation:
 ---------------------------------------------------------------------
 Center     Atomic      Atomic             Coordinates (Angstroms)
 Number     Number       Type             X           Y           Z
 ---------------------------------------------------------------------
      1          6           0        4.020442   -0.139154   -0.080338
      2          6           0        3.515735   -1.563961    0.150269
      3          6           0        4.614816   -2.614195   -0.013509
      4          1           0        4.450264   -0.067949   -1.088865
      5          1           0        4.837739    0.071266    0.623328
      6          1           0        2.698707   -1.771151   -0.552691
      7          1           0        3.086891   -1.631732    1.158295
      8          1           0        5.427569   -2.435424    0.697881
      9          1           0        5.037179   -2.575636   -1.022827
     10          1           0        4.232148   -3.625525    0.155718
     11          6           0        2.933254    0.922020    0.079851
     12          6           0        3.437960    2.346827   -0.150756
     13          6           0        2.338879    3.397061    0.013022
     14          1           0        2.115957    0.711600   -0.623814
     15          1           0        2.503432    0.850816    1.088379
     16          1           0        3.866804    2.414598   -1.158782
     17          1           0        4.254988    2.554018    0.552205
     18          1           0        1.916516    3.358503    1.022341
     19          1           0        1.526127    3.218291   -0.698367
     20          1           0        2.721547    4.408391   -0.156204
     21          6           0       -2.937285   -0.911279   -0.148293
     22          6           0       -1.528906   -0.446883    0.224251
     23          6           0       -0.460428   -1.497736   -0.078831
     24          1           0       -3.167069   -1.837480    0.396039
     25          1           0       -2.962013   -1.162851   -1.217636
     26          1           0       -1.507197   -0.194946    1.292273
     27          1           0       -1.302520    0.478423   -0.320885
     28          1           0       -0.452971   -1.742941   -1.145798
     29          1           0       -0.658810   -2.420136    0.476527
     30          1           0        0.538737   -1.144974    0.195193
     31          6           0       -4.016411    0.128413    0.148780
     32          6           0       -5.424790   -0.335983   -0.223765
     33          6           0       -6.493268    0.714869    0.079317
     34          1           0       -3.991683    0.379984    1.218123
     35          1           0       -3.786627    1.054614   -0.395553
     36          1           0       -5.651175   -1.261289    0.321372
     37          1           0       -5.446499   -0.587920   -1.291787
     38          1           0       -6.294884    1.637270   -0.476040
     39          1           0       -6.500724    0.960075    1.146284
     40          1           0       -7.492433    0.362108   -0.194707
 ---------------------------------------------------------------------

 SCF Done:  E(RHF) =  -470.732440929     A.U. after   11 cycles
 E2 =    -0.1583656669D+01 EUMP2 =    -0.47231609759714D+03

 The electronic state is 1-A.
 Alpha  occ. eigenvalues --  -11.21622 -11.21574 -11.21564 -11.21529 -11.21423
 Alpha  occ. eigenvalues --  -11.21362 -11.21360 -11.21299 -11.21085 -11.21052
 Alpha  occ. eigenvalues --  -11.21049 -11.20890  -1.08461  -1.08374  -1.03542
 Alpha  occ. eigenvalues --   -1.03467  -0.95992  -0.95919  -0.87016  -0.86936
 Alpha  occ. eigenvalues --   -0.79676  -0.79488  -0.78281  -0.78191  -0.65100
 Alpha  occ. eigenvalues --   -0.65000  -0.60936  -0.60872  -0.59484  -0.59191
 Alpha  occ. eigenvalues --   -0.57663  -0.57477  -0.55278  -0.55206  -0.52862
 Alpha  occ. eigenvalues --   -0.52524  -0.52399  -0.52321  -0.49929  -0.49868
 Alpha  occ. eigenvalues --   -0.47970  -0.47824  -0.46667  -0.46547  -0.45778
 Alpha  occ. eigenvalues --   -0.45743  -0.45708  -0.45663  -0.43816  -0.43572
 Alpha virt. eigenvalues --    0.21825   0.23167   0.24006   0.24064   0.26055
 Alpha virt. eigenvalues --    0.26463   0.26899   0.27456   0.27868   0.29536
 Alpha virt. eigenvalues --    0.30567   0.31370   0.31406   0.31905   0.32157

 Mulliken charges:
               1
     1  C   -0.297352
     2  C   -0.305306
     3  C   -0.475067
     4  H    0.149497
     5  H    0.149411
     6  H    0.157860
     7  H    0.151798
     8  H    0.154858
     9  H    0.155009
    10  H    0.160551
    11  C   -0.302559
    12  C   -0.299422
    13  C   -0.475624
    14  H    0.152843
    15  H    0.149682
    16  H    0.151990
    17  H    0.152061
    18  H    0.155469
    19  H    0.154948
    20  H    0.160310
    21  C   -0.298356
    22  C   -0.299218
    23  C   -0.486009
    24  H    0.149497
    25  H    0.149136
    26  H    0.151448
    27  H    0.151434
    28  H    0.152650
    29  H    0.154114
    30  H    0.174702
    31  C   -0.298126
    32  C   -0.299563
    33  C   -0.475660
    34  H    0.149414
    35  H    0.149518
    36  H    0.151858
    37  H    0.151795
    38  H    0.155140
    39  H    0.155140
    40  H    0.160131
 Sum of Mulliken charges =  -0.00000

 Dipole moment (field-independent basis, Debye):
    X=              0.0540    Y=              0.0059    Z=              0.0028  Tot=              0.0544
 Quadrupole moment (field-independent basis, Debye-Ang):
   XX=            -86.1011   YY=            -85.8517   ZZ=            -82.9203
   XY=              1.2024   XZ=              0.2719   YZ=             -0.4811

 Normal termination of Gaussian 16 at Thu May  6 07:09:35 2021.
