 Gaussian 16, Revision A.03,
 Gaussian 16:  EM64L-G16RevA.03 25-Dec-2016

 -------------
 #p 6-31g* mp2
 -------------

 ------------------------------------------------------
 Input file generated by CHIRIPA (05-May-2021 14:51:11)
 ------------------------------------------------------
 Symbolic Z-matrix:
 Charge =  0 Multiplicity = 1

                         Standard orientation:
 ---------------------------------------------------------------------
 Center     Atomic      Atomic             Coordinates (Angstroms)
 Number     Number       Type             X           Y           Z
 ---------------------------------------------------------------------
      1          6           0        2.887834    0.301372    0.426113
      2          6           0        2.126291   -0.067304    1.699736
      3          6           0        0.860431    0.767883    1.894304
      4          1           0        3.151689    1.367294    0.459842
      5          1           0        2.224549    0.170816   -0.440145
      6          1           0        2.791244    0.062584    2.563206
      7          1           0        1.864385   -1.132516    1.663058
      8          1           0        0.175130    0.630777    1.051591
      9          1           0        1.107256    1.832668    1.956854
     10          1           0        0.331585    0.487816    2.810680
     11          6           0        4.155700   -0.524951    0.217710
     12          6           0        4.917244   -0.156275   -1.055912
     13          6           0        6.183103   -0.991462   -1.250481
     14          1           0        4.818985   -0.394395    1.083968
     15          1           0        3.891845   -1.590872    0.183981
     16          1           0        5.179149    0.908937   -1.019235
     17          1           0        4.252290   -0.286163   -1.919383
     18          1           0        5.936279   -2.056246   -1.313031
     19          1           0        6.868404   -0.854356   -0.407768
     20          1           0        6.711949   -0.711395   -2.166856
     21          6           0       -3.560354    0.829026   -0.581749
     22          6           0       -2.347995    1.678608   -0.199150
     23          6           0       -2.439847    3.110952   -0.726171
     24          1           0       -3.658359    0.813093   -1.675863
     25          1           0       -4.470858    1.305964   -0.193282
     26          1           0       -1.439918    1.199487   -0.587033
     27          1           0       -2.252752    1.692363    0.894173
     28          1           0       -3.328950    3.611302   -0.328998
     29          1           0       -2.511497    3.115625   -1.818621
     30          1           0       -1.562950    3.700601   -0.441169
     31          6           0       -3.483181   -0.605447   -0.062075
     32          6           0       -4.695539   -1.455029   -0.444673
     33          6           0       -4.603688   -2.887373    0.082348
     34          1           0       -2.572677   -1.082384   -0.450541
     35          1           0       -3.385176   -0.589514    1.032040
     36          1           0       -4.790782   -1.468784   -1.537996
     37          1           0       -5.603617   -0.975908   -0.056790
     38          1           0       -4.532038   -2.892046    1.174798
     39          1           0       -3.714585   -3.387723   -0.314825
     40          1           0       -5.480584   -3.477022   -0.202654
 ---------------------------------------------------------------------

 SCF Done:  E(RHF) =  -470.732778604     A.U. after   11 cycles
 E2 =    -0.1582933671D+01 EUMP2 =    -0.47231571227540D+03

 The electronic state is 1-A.
 Alpha  occ. eigenvalues --  -11.21613 -11.21594 -11.21573 -11.21537 -11.21411
 Alpha  occ. eigenvalues --  -11.21386 -11.21349 -11.21326 -11.21082 -11.21066
 Alpha  occ. eigenvalues --  -11.21053 -11.20911  -1.08442  -1.08396  -1.03550
 Alpha  occ. eigenvalues --   -1.03470  -0.95987  -0.95928  -0.87023  -0.86931
 Alpha  occ. eigenvalues --   -0.79715  -0.79458  -0.78301  -0.78161  -0.65080
 Alpha  occ. eigenvalues --   -0.65022  -0.60962  -0.60866  -0.59371  -0.59298
 Alpha  occ. eigenvalues --   -0.57669  -0.57472  -0.55274  -0.55225  -0.52698
 Alpha  occ. eigenvalues --   -0.52620  -0.52446  -0.52317  -0.49961  -0.49887
 Alpha  occ. eigenvalues --   -0.48126  -0.47667  -0.46695  -0.46553  -0.45893
 Alpha  occ. eigenvalues --   -0.45733  -0.45708  -0.45439  -0.43783  -0.43743
 Alpha virt. eigenvalues --    0.21992   0.23100   0.23736   0.24630   0.25832
 Alpha virt. eigenvalues --    0.26446   0.26984   0.27691   0.27964   0.29148
 Alpha virt. eigenvalues --    0.30654   0.31222   0.31514   0.32014   0.32176

 Mulliken charges:
               1
     1  C   -0.298008
     2  C   -0.299752
     3  C   -0.481885
     4  H    0.149565
     5  H    0.148453
     6  H    0.151347
     7  H    0.151533
     8  H    0.164814
     9  H    0.153842
    10  H    0.158817
    11  C   -0.298211
    12  C   -0.299600
    13  C   -0.475686
    14  H    0.149613
    15  H    0.149550
    16  H    0.151931
    17  H    0.151710
    18  H    0.155136
    19  H    0.155208
    20  H    0.160191
    21  C   -0.297812
    22  C   -0.303535
    23  C   -0.475473
    24  H    0.149320
    25  H    0.149538
    26  H    0.153060
    27  H    0.156048
    28  H    0.155088
    29  H    0.154796
    30  H    0.160827
    31  C   -0.298611
    32  C   -0.299550
    33  C   -0.475680
    34  H    0.148664
    35  H    0.150185
    36  H    0.151908
    37  H    0.152075
    38  H    0.155272
    39  H    0.155019
    40  H    0.160294
 Sum of Mulliken charges =  -0.00000

 Dipole moment (field-independent basis, Debye):
    X=             -0.0440    Y=              0.0163    Z=             -0.0039  Tot=              0.0470
 Quadrupole moment (field-independent basis, Debye-Ang):
   XX=            -85.2186   YY=            -85.6241   ZZ=            -84.0200
   XY=              0.6205   XZ=              0.0794   YZ=              0.8202

 Normal termination of Gaussian 16 at Thu May  6 02:14:58 2021.
