 Gaussian 16, Revision A.03,
 Gaussian 16:  EM64L-G16RevA.03 25-Dec-2016

 -------------
 #p 6-31g* mp2
 -------------

 ------------------------------------------------------
 Input file generated by CHIRIPA (05-May-2021 14:55:24)
 ------------------------------------------------------
 Symbolic Z-matrix:
 Charge =  0 Multiplicity = 1

                         Standard orientation:
 ---------------------------------------------------------------------
 Center     Atomic      Atomic             Coordinates (Angstroms)
 Number     Number       Type             X           Y           Z
 ---------------------------------------------------------------------
      1          6           0       -3.234374    2.456973    0.218688
      2          6           0       -1.891466    2.095176    0.069613
      3          6           0       -1.530046    0.752826   -0.078771
      4          6           0       -2.541934   -0.206000   -0.073528
      5          6           0       -3.888655    0.122871    0.073018
      6          6           0       -4.226932    1.471403    0.219912
      7          1           0       -3.506145    3.502144    0.333377
      8          1           0       -1.118508    2.858444    0.068290
      9          1           0       -0.498132    0.444856   -0.195928
     10          1           0       -4.636786   -0.660526    0.070416
     11          1           0       -5.270661    1.749457    0.335502
     12          7           0       -2.171564   -1.630359   -0.229827
     13          8           0       -3.081943   -2.456061   -0.221898
     14          8           0       -0.977903   -1.894098   -0.357304
     15          6           0        3.252685    0.679119    0.315365
     16          6           0        3.957791    1.715092   -0.560747
     17          6           0        3.790387    3.142598   -0.039214
     18          1           0        2.183868    0.925927    0.375878
     19          1           0        3.647169    0.745196    1.338796
     20          1           0        3.563078    1.646140   -1.582540
     21          1           0        5.025020    1.465680   -0.619338
     22          1           0        4.201258    3.234169    0.971430
     23          1           0        2.731009    3.415653    0.002755
     24          1           0        4.302281    3.866909   -0.680461
     25          6           0        3.410930   -0.752723   -0.193078
     26          6           0        2.705825   -1.788695    0.683032
     27          6           0        2.873229   -3.216202    0.161501
     28          1           0        3.016447   -0.818800   -1.216510
     29          1           0        4.479747   -0.999531   -0.253593
     30          1           0        1.638596   -1.539284    0.741624
     31          1           0        3.100538   -1.719743    1.704827
     32          1           0        3.932606   -3.489257    0.119532
     33          1           0        2.462357   -3.307773   -0.849143
     34          1           0        2.361335   -3.940513    0.802747
 ---------------------------------------------------------------------

 SCF Done:  E(RHF) =  -669.536006739     A.U. after   15 cycles
 E2 =    -0.2092029935D+01 EUMP2 =    -0.67162803667323D+03

 The electronic state is 1-A.
 Alpha  occ. eigenvalues --  -20.60935 -20.60923 -15.85968 -11.31280 -11.27846
 Alpha  occ. eigenvalues --  -11.27840 -11.27577 -11.26850 -11.26840 -11.21752
 Alpha  occ. eigenvalues --  -11.21477 -11.21401 -11.21008 -11.20763 -11.20104
 Alpha  occ. eigenvalues --   -1.59994  -1.39551  -1.19449  -1.08853  -1.08238
 Alpha  occ. eigenvalues --   -1.04845  -1.03208  -0.95713  -0.95686  -0.86718
 Alpha  occ. eigenvalues --   -0.86246  -0.82535  -0.79364  -0.77984  -0.77562
 Alpha  occ. eigenvalues --   -0.72197  -0.71308  -0.70561  -0.65113  -0.64940
 Alpha  occ. eigenvalues --   -0.64786  -0.62191  -0.60580  -0.59143  -0.57273
 Alpha  occ. eigenvalues --   -0.55352  -0.55001  -0.53175  -0.52938  -0.52371
 Alpha  occ. eigenvalues --   -0.52118  -0.49670  -0.48960  -0.48938  -0.47649
 Alpha  occ. eigenvalues --   -0.46433  -0.45521  -0.45394  -0.44865  -0.43495
 Alpha  occ. eigenvalues --   -0.37426  -0.36444
 Alpha virt. eigenvalues --    0.04920   0.11201   0.16413   0.19086   0.22970
 Alpha virt. eigenvalues --    0.24144   0.25120   0.27227   0.27388   0.28257
 Alpha virt. eigenvalues --    0.29630   0.31006   0.31830   0.32011   0.32709

 Mulliken charges:
               1
     1  C   -0.170420
     2  C   -0.220241
     3  C   -0.176145
     4  C    0.157996
     5  C   -0.170274
     6  C   -0.218801
     7  H    0.226114
     8  H    0.223959
     9  H    0.282761
    10  H    0.275774
    11  H    0.223833
    12  N    0.491383
    13  O   -0.458903
    14  O   -0.464423
    15  C   -0.297836
    16  C   -0.299826
    17  C   -0.473591
    18  H    0.138163
    19  H    0.150962
    20  H    0.151679
    21  H    0.154675
    22  H    0.156654
    23  H    0.146170
    24  H    0.161166
    25  C   -0.298569
    26  C   -0.308065
    27  C   -0.473020
    28  H    0.151166
    29  H    0.148590
    30  H    0.170012
    31  H    0.146016
    32  H    0.148046
    33  H    0.161507
    34  H    0.163486
 Sum of Mulliken charges =  -0.00000

 Dipole moment (field-independent basis, Debye):
    X=             -1.4343    Y=              4.8784    Z=              0.5202  Tot=              5.1114
 Quadrupole moment (field-independent basis, Debye-Ang):
   XX=            -82.7754   YY=            -98.1424   ZZ=            -95.5370
   XY=            -11.3127   XZ=             -1.3335   YZ=             -0.8172

 Normal termination of Gaussian 16 at Wed May  5 17:37:48 2021.
