 Gaussian 16, Revision A.03,
 Gaussian 16:  EM64L-G16RevA.03 25-Dec-2016

 -------------
 #p 6-31g* mp2
 -------------

 ------------------------------------------------------
 Input file generated by CHIRIPA (05-May-2021 14:55:21)
 ------------------------------------------------------
 Symbolic Z-matrix:
 Charge =  0 Multiplicity = 1

                         Standard orientation:
 ---------------------------------------------------------------------
 Center     Atomic      Atomic             Coordinates (Angstroms)
 Number     Number       Type             X           Y           Z
 ---------------------------------------------------------------------
      1          6           0        3.857484    1.348125    0.162609
      2          6           0        2.883329    1.226491    1.158976
      3          6           0        1.968866    0.169321    1.132594
      4          6           0        2.057704   -0.752322    0.090494
      5          6           0        3.016837   -0.658280   -0.916735
      6          6           0        3.921017    0.407011   -0.870246
      7          1           0        4.563867    2.172515    0.190913
      8          1           0        2.831626    1.955892    1.962310
      9          1           0        1.204611    0.051203    1.891133
     10          1           0        3.043487   -1.400989   -1.704828
     11          1           0        4.676501    0.498963   -1.645381
     12          7           0        1.095045   -1.875799    0.051921
     13          8           0        1.194325   -2.674591   -0.876901
     14          8           0        0.259463   -1.936315    0.951241
     15          6           0       -2.902882    1.486829   -0.136938
     16          6           0       -1.567095    2.208211   -0.319325
     17          6           0       -1.715406    3.729797   -0.343259
     18          1           0       -3.583262    1.777617   -0.949017
     19          1           0       -3.369794    1.825408    0.798345
     20          1           0       -1.102194    1.867346   -1.253292
     21          1           0       -0.889752    1.915524    0.493175
     22          1           0       -2.156407    4.088639    0.592343
     23          1           0       -2.370056    4.040186   -1.164046
     24          1           0       -0.748452    4.225399   -0.474552
     25          6           0       -2.771002   -0.034902   -0.111001
     26          6           0       -4.106790   -0.756284    0.071386
     27          6           0       -3.958479   -2.277870    0.095320
     28          1           0       -2.304091   -0.373481   -1.046284
     29          1           0       -2.090624   -0.325689    0.701078
     30          1           0       -4.784134   -0.463597   -0.741115
     31          1           0       -4.571691   -0.415419    1.005353
     32          1           0       -3.303829   -2.588260    0.916107
     33          1           0       -3.517478   -2.636711   -0.840282
     34          1           0       -4.925434   -2.773472    0.226613
 ---------------------------------------------------------------------

 SCF Done:  E(RHF) =  -669.536176575     A.U. after   15 cycles
 E2 =    -0.2092544730D+01 EUMP2 =    -0.67162872130443D+03

 The electronic state is 1-A.
 Alpha  occ. eigenvalues --  -20.60916 -20.60900 -15.85934 -11.31265 -11.27840
 Alpha  occ. eigenvalues --  -11.27825 -11.27563 -11.26843 -11.26832 -11.21424
 Alpha  occ. eigenvalues --  -11.21037 -11.20900 -11.20724 -11.20429 -11.19893
 Alpha  occ. eigenvalues --   -1.59961  -1.39520  -1.19433  -1.08834  -1.07827
 Alpha  occ. eigenvalues --   -1.04834  -1.02935  -0.95678  -0.95363  -0.86379
 Alpha  occ. eigenvalues --   -0.86232  -0.82517  -0.79062  -0.77654  -0.77464
 Alpha  occ. eigenvalues --   -0.72164  -0.71263  -0.70545  -0.65094  -0.64840
 Alpha  occ. eigenvalues --   -0.64466  -0.62186  -0.60342  -0.58805  -0.56956
 Alpha  occ. eigenvalues --   -0.55337  -0.54642  -0.53160  -0.52928  -0.52112
 Alpha  occ. eigenvalues --   -0.51757  -0.49308  -0.48920  -0.48911  -0.47344
 Alpha  occ. eigenvalues --   -0.46119  -0.45467  -0.45044  -0.44440  -0.43170
 Alpha  occ. eigenvalues --   -0.37402  -0.36416
 Alpha virt. eigenvalues --    0.04918   0.11179   0.16386   0.21068   0.23262
 Alpha virt. eigenvalues --    0.24951   0.26064   0.27468   0.27641   0.28594
 Alpha virt. eigenvalues --    0.29060   0.31106   0.31898   0.32066   0.32452

 Mulliken charges:
               1
     1  C   -0.170551
     2  C   -0.218641
     3  C   -0.169019
     4  C    0.159084
     5  C   -0.171020
     6  C   -0.218344
     7  H    0.225938
     8  H    0.223875
     9  H    0.274919
    10  H    0.275683
    11  H    0.223719
    12  N    0.489174
    13  O   -0.459320
    14  O   -0.460040
    15  C   -0.297857
    16  C   -0.298365
    17  C   -0.475079
    18  H    0.147896
    19  H    0.146869
    20  H    0.151563
    21  H    0.145649
    22  H    0.154038
    23  H    0.156176
    24  H    0.155661
    25  C   -0.304956
    26  C   -0.299517
    27  C   -0.476099
    28  H    0.148843
    29  H    0.166004
    30  H    0.147312
    31  H    0.147734
    32  H    0.166604
    33  H    0.158110
    34  H    0.153956
 Sum of Mulliken charges =  -0.00000

 Dipole moment (field-independent basis, Debye):
    X=              3.5680    Y=              3.7570    Z=              0.1617  Tot=              5.1838
 Quadrupole moment (field-independent basis, Debye-Ang):
   XX=            -81.0534   YY=           -102.2854   ZZ=            -90.4245
   XY=              5.1565   XZ=             -1.5016   YZ=              1.9666

 Normal termination of Gaussian 16 at Wed May  5 20:35:39 2021.
