 Gaussian 16, Revision A.03,
 Gaussian 16:  EM64L-G16RevA.03 25-Dec-2016

 -------------
 #p 6-31g* mp2
 -------------

 ------------------------------------------------------
 Input file generated by CHIRIPA (05-May-2021 14:55:23)
 ------------------------------------------------------
 Symbolic Z-matrix:
 Charge =  0 Multiplicity = 1

                         Standard orientation:
 ---------------------------------------------------------------------
 Center     Atomic      Atomic             Coordinates (Angstroms)
 Number     Number       Type             X           Y           Z
 ---------------------------------------------------------------------
      1          6           0        4.140079    2.446695   -0.192098
      2          6           0        3.283338    2.151537    0.873452
      3          6           0        2.785401    0.856671    1.046451
      4          6           0        3.166506   -0.123138    0.131015
      5          6           0        4.018389    0.139712   -0.940665
      6          6           0        4.504228    1.441612   -1.094165
      7          1           0        4.522190    3.455310   -0.318914
      8          1           0        2.998843    2.930101    1.575553
      9          1           0        2.120632    0.600618    1.862501
     10          1           0        4.284158   -0.657431   -1.624293
     11          1           0        5.169426    1.667948   -1.922615
     12          7           0        2.645766   -1.497679    0.303839
     13          8           0        2.996573   -2.343136   -0.516388
     14          8           0        1.896663   -1.703559    1.256255
     15          6           0       -4.551482    0.523753   -0.176207
     16          6           0       -6.053499    0.356192    0.055853
     17          6           0       -6.817092    1.677572   -0.037302
     18          1           0       -4.150100    1.233528    0.560040
     19          1           0       -4.388293    0.973670   -1.165318
     20          1           0       -6.213750   -0.094549    1.043663
     21          1           0       -6.451316   -0.353412   -0.680910
     22          1           0       -6.686764    2.128931   -1.026184
     23          1           0       -6.447848    2.389265    0.708187
     24          1           0       -7.888929    1.534644    0.131801
     25          6           0       -3.774484   -0.788464   -0.086272
     26          6           0       -2.272467   -0.620902   -0.318333
     27          6           0       -1.508874   -1.942282   -0.225178
     28          1           0       -3.937673   -1.238380    0.902838
     29          1           0       -4.175866   -1.498238   -0.822520
     30          1           0       -1.874650    0.088702    0.418430
     31          1           0       -2.112215   -0.170162   -1.306142
     32          1           0       -1.878117   -2.653975   -0.970666
     33          1           0       -1.639202   -2.393641    0.763705
     34          1           0       -0.437037   -1.799355   -0.394280
 ---------------------------------------------------------------------

 SCF Done:  E(RHF) =  -669.535691892     A.U. after   15 cycles
 E2 =    -0.2091133935D+01 EUMP2 =    -0.67162682582675D+03

 The electronic state is 1-A.
 Alpha  occ. eigenvalues --  -20.60896 -20.60882 -15.85918 -11.31260 -11.27826
 Alpha  occ. eigenvalues --  -11.27823 -11.27566 -11.26836 -11.26826 -11.21336
 Alpha  occ. eigenvalues --  -11.21053 -11.20955 -11.20890 -11.20860 -11.19934
 Alpha  occ. eigenvalues --   -1.59960  -1.39512  -1.19431  -1.08833  -1.07985
 Alpha  occ. eigenvalues --   -1.04829  -1.03007  -0.95674  -0.95420  -0.86430
 Alpha  occ. eigenvalues --   -0.86228  -0.82503  -0.79089  -0.77793  -0.77556
 Alpha  occ. eigenvalues --   -0.72138  -0.71295  -0.70539  -0.65085  -0.64832
 Alpha  occ. eigenvalues --   -0.64623  -0.62176  -0.60408  -0.58828  -0.57040
 Alpha  occ. eigenvalues --   -0.55333  -0.54713  -0.53164  -0.52921  -0.52077
 Alpha  occ. eigenvalues --   -0.51854  -0.49373  -0.48903  -0.48890  -0.47398
 Alpha  occ. eigenvalues --   -0.46150  -0.45329  -0.45258  -0.44904  -0.43213
 Alpha  occ. eigenvalues --   -0.37410  -0.36429
 Alpha virt. eigenvalues --    0.04954   0.11222   0.16440   0.21341   0.23266
 Alpha virt. eigenvalues --    0.24816   0.27010   0.27283   0.27840   0.28203
 Alpha virt. eigenvalues --    0.28643   0.30849   0.31876   0.32170   0.32465

 Mulliken charges:
               1
     1  C   -0.170574
     2  C   -0.218478
     3  C   -0.170660
     4  C    0.158111
     5  C   -0.170870
     6  C   -0.218564
     7  H    0.225907
     8  H    0.223732
     9  H    0.275759
    10  H    0.275822
    11  H    0.223721
    12  N    0.486296
    13  O   -0.459320
    14  O   -0.457567
    15  C   -0.297388
    16  C   -0.299300
    17  C   -0.475333
    18  H    0.147268
    19  H    0.147943
    20  H    0.151983
    21  H    0.152032
    22  H    0.154344
    23  H    0.153946
    24  H    0.159621
    25  C   -0.297728
    26  C   -0.300347
    27  C   -0.473057
    28  H    0.149896
    29  H    0.149389
    30  H    0.147341
    31  H    0.147442
    32  H    0.150855
    33  H    0.159008
    34  H    0.168772
 Sum of Mulliken charges =  -0.00000

 Dipole moment (field-independent basis, Debye):
    X=              2.0359    Y=              4.7676    Z=             -0.5648  Tot=              5.2148
 Quadrupole moment (field-independent basis, Debye-Ang):
   XX=            -83.4732   YY=            -96.7100   ZZ=            -90.9212
   XY=             15.3370   XZ=             -4.1391   YZ=              2.2142

 Normal termination of Gaussian 16 at Thu May  6 04:41:01 2021.
