 Gaussian 16, Revision A.03,
 Gaussian 16:  EM64L-G16RevA.03 25-Dec-2016

 -------------
 #p 6-31g* mp2
 -------------

 ------------------------------------------------------
 Input file generated by CHIRIPA (05-May-2021 14:53:12)
 ------------------------------------------------------
 Symbolic Z-matrix:
 Charge =  0 Multiplicity = 1

                         Standard orientation:
 ---------------------------------------------------------------------
 Center     Atomic      Atomic             Coordinates (Angstroms)
 Number     Number       Type             X           Y           Z
 ---------------------------------------------------------------------
      1          6           0        4.100894    0.494413   -0.021969
      2          6           0        5.591885    0.833396   -0.017502
      3          6           0        5.857796    2.332199   -0.161289
      4          1           0        3.650997    0.860214   -0.955097
      5          1           0        3.606485    1.035648    0.796578
      6          1           0        6.083576    0.290605   -0.834957
      7          1           0        6.038324    0.466576    0.915638
      8          1           0        5.393396    2.886447    0.660747
      9          1           0        5.438906    2.709476   -1.099796
     10          1           0        6.929936    2.552073   -0.155677
     11          6           0        3.818994   -1.000186    0.120982
     12          6           0        2.328003   -1.339170    0.116516
     13          6           0        2.062091   -2.837973    0.260303
     14          1           0        4.313403   -1.541422   -0.697565
     15          1           0        4.268891   -1.365987    1.054110
     16          1           0        1.881564   -0.972350   -0.816625
     17          1           0        1.836312   -0.796378    0.933971
     18          1           0        2.480982   -3.215249    1.198809
     19          1           0        2.526492   -3.392220   -0.561733
     20          1           0        0.989951   -3.057846    0.254690
     21          6           0       -3.678120    2.645427    0.141236
     22          6           0       -4.689741    1.679990    0.174002
     23          6           0       -4.377557    0.320830    0.075134
     24          6           0       -3.037207   -0.039082   -0.056070
     25          6           0       -2.006774    0.899117   -0.091866
     26          6           0       -2.342221    2.252602    0.008641
     27          1           0       -3.929668    3.699050    0.218675
     28          1           0       -5.728084    1.982152    0.276893
     29          1           0       -5.140842   -0.447483    0.097720
     30          1           0       -0.980825    0.567237   -0.195314
     31          1           0       -1.554498    3.000183   -0.017097
     32          7           0       -2.694399   -1.474960   -0.161605
     33          8           0       -1.505847   -1.766151   -0.276452
     34          8           0       -3.620748   -2.282022   -0.127477
 ---------------------------------------------------------------------

 SCF Done:  E(RHF) =  -669.536312071     A.U. after   15 cycles
 E2 =    -0.2091217136D+01 EUMP2 =    -0.67162752920715D+03

 The electronic state is 1-A.
 Alpha  occ. eigenvalues --  -20.60908 -20.60902 -15.85948 -11.31249 -11.27817
 Alpha  occ. eigenvalues --  -11.27795 -11.27554 -11.26822 -11.26807 -11.21489
 Alpha  occ. eigenvalues --  -11.21224 -11.21062 -11.20973 -11.20913 -11.19890
 Alpha  occ. eigenvalues --   -1.59971  -1.39527  -1.19419  -1.08828  -1.08090
 Alpha  occ. eigenvalues --   -1.04812  -1.03071  -0.95682  -0.95491  -0.86523
 Alpha  occ. eigenvalues --   -0.86212  -0.82505  -0.79189  -0.77895  -0.77547
 Alpha  occ. eigenvalues --   -0.72180  -0.71286  -0.70527  -0.65076  -0.64815
 Alpha  occ. eigenvalues --   -0.64731  -0.62157  -0.60484  -0.58905  -0.57061
 Alpha  occ. eigenvalues --   -0.55320  -0.54821  -0.53148  -0.52904  -0.52130
 Alpha  occ. eigenvalues --   -0.51919  -0.49484  -0.48936  -0.48911  -0.47460
 Alpha  occ. eigenvalues --   -0.46259  -0.45417  -0.45347  -0.44938  -0.43305
 Alpha  occ. eigenvalues --   -0.37401  -0.36414
 Alpha virt. eigenvalues --    0.04962   0.11238   0.16459   0.20994   0.23105
 Alpha virt. eigenvalues --    0.24352   0.26330   0.26915   0.27593   0.28458
 Alpha virt. eigenvalues --    0.28990   0.30571   0.31597   0.31784   0.32655

 Mulliken charges:
               1
     1  C   -0.297465
     2  C   -0.299077
     3  C   -0.475416
     4  H    0.146556
     5  H    0.145490
     6  H    0.152677
     7  H    0.152359
     8  H    0.153326
     9  H    0.153791
    10  H    0.160251
    11  C   -0.297739
    12  C   -0.297157
    13  C   -0.485541
    14  H    0.149614
    15  H    0.149015
    16  H    0.151220
    17  H    0.146369
    18  H    0.148777
    19  H    0.150810
    20  H    0.189699
    21  C   -0.170473
    22  C   -0.218775
    23  C   -0.170442
    24  C    0.157170
    25  C   -0.173052
    26  C   -0.219213
    27  H    0.225844
    28  H    0.223611
    29  H    0.275652
    30  H    0.279479
    31  H    0.224187
    32  N    0.493772
    33  O   -0.466119
    34  O   -0.459202
 Sum of Mulliken charges =  -0.00000

 Dipole moment (field-independent basis, Debye):
    X=             -1.4285    Y=              4.9485    Z=              0.3528  Tot=              5.1626
 Quadrupole moment (field-independent basis, Debye-Ang):
   XX=            -83.4276   YY=            -96.3478   ZZ=            -94.7556
   XY=            -14.6468   XZ=             -1.5387   YZ=             -0.1334

 Normal termination of Gaussian 16 at Thu May  6 08:51:39 2021.
