 Gaussian 16, Revision A.03,
 Gaussian 16:  EM64L-G16RevA.03 25-Dec-2016

 -------------
 #p 6-31g* mp2
 -------------

 ------------------------------------------------------
 Input file generated by CHIRIPA (05-May-2021 14:51:13)
 ------------------------------------------------------
 Symbolic Z-matrix:
 Charge =  0 Multiplicity = 1

                         Standard orientation:
 ---------------------------------------------------------------------
 Center     Atomic      Atomic             Coordinates (Angstroms)
 Number     Number       Type             X           Y           Z
 ---------------------------------------------------------------------
      1          6           0       -4.675353   -0.084674    0.250923
      2          6           0       -5.361763   -1.187728   -0.555362
      3          6           0       -6.884457   -1.158655   -0.419895
      4          1           0       -4.952758   -0.186039    1.309090
      5          1           0       -5.055222    0.891971   -0.079621
      6          1           0       -4.979697   -2.161932   -0.224353
      7          1           0       -5.082539   -1.083841   -1.611704
      8          1           0       -7.284036   -0.200932   -0.768757
      9          1           0       -7.180609   -1.285149    0.626477
     10          1           0       -7.354790   -1.955587   -1.004315
     11          6           0       -3.152930   -0.100688    0.125624
     12          6           0       -2.466519    1.002367    0.931910
     13          6           0       -0.943825    0.973294    0.796443
     14          1           0       -2.773061   -1.077332    0.456169
     15          1           0       -2.875525    0.000677   -0.932542
     16          1           0       -2.745743    0.898480    1.988252
     17          1           0       -2.848585    1.976571    0.600901
     18          1           0       -0.647673    1.099787   -0.249929
     19          1           0       -0.544247    0.015571    1.145304
     20          1           0       -0.473492    1.770226    1.380863
     21          6           0        4.188958   -0.585652   -0.406843
     22          6           0        5.260573   -1.137441    0.533983
     23          6           0        5.800616   -2.495052    0.083385
     24          1           0        3.362690   -1.306554   -0.474130
     25          1           0        4.609346   -0.496756   -1.418162
     26          1           0        4.838704   -1.223967    1.543516
     27          1           0        6.084298   -0.415055    0.599187
     28          1           0        6.246877   -2.420509   -0.913557
     29          1           0        4.994204   -3.234017    0.036136
     30          1           0        6.565398   -2.870924    0.770182
     31          6           0        3.639325    0.771014    0.030295
     32          6           0        2.567710    1.322802   -0.910531
     33          6           0        2.027666    2.680413   -0.459933
     34          1           0        3.218936    0.682117    1.041615
     35          1           0        4.465592    1.491915    0.097581
     36          1           0        1.743984    0.600417   -0.975736
     37          1           0        2.989579    1.409329   -1.920064
     38          1           0        2.834078    3.419378   -0.412684
     39          1           0        1.581406    2.605871    0.537010
     40          1           0        1.262885    3.056285   -1.146730
 ---------------------------------------------------------------------

 SCF Done:  E(RHF) =  -470.732100601     A.U. after   11 cycles
 E2 =    -0.1583396657D+01 EUMP2 =    -0.47231549725736D+03

 The electronic state is 1-A.
 Alpha  occ. eigenvalues --  -11.21614 -11.21607 -11.21563 -11.21480 -11.21422
 Alpha  occ. eigenvalues --  -11.21363 -11.21340 -11.21276 -11.21081 -11.21063
 Alpha  occ. eigenvalues --  -11.21043 -11.20910  -1.08451  -1.08356  -1.03583
 Alpha  occ. eigenvalues --   -1.03423  -0.96074  -0.95840  -0.87088  -0.86862
 Alpha  occ. eigenvalues --   -0.79624  -0.79519  -0.78263  -0.78174  -0.65100
 Alpha  occ. eigenvalues --   -0.64977  -0.61087  -0.60774  -0.59380  -0.59279
 Alpha  occ. eigenvalues --   -0.57701  -0.57447  -0.55471  -0.55046  -0.52739
 Alpha  occ. eigenvalues --   -0.52591  -0.52427  -0.52268  -0.49995  -0.49732
 Alpha  occ. eigenvalues --   -0.47964  -0.47830  -0.46637  -0.46522  -0.45841
 Alpha  occ. eigenvalues --   -0.45729  -0.45693  -0.45584  -0.43754  -0.43713
 Alpha virt. eigenvalues --    0.21743   0.22957   0.23618   0.24893   0.26307
 Alpha virt. eigenvalues --    0.26429   0.26860   0.27603   0.27833   0.29289
 Alpha virt. eigenvalues --    0.29309   0.31155   0.31498   0.32008   0.32349

 Mulliken charges:
               1
     1  C   -0.298257
     2  C   -0.299637
     3  C   -0.475710
     4  H    0.149684
     5  H    0.149605
     6  H    0.151881
     7  H    0.151958
     8  H    0.155223
     9  H    0.155189
    10  H    0.160289
    11  C   -0.298667
    12  C   -0.300086
    13  C   -0.478459
    14  H    0.149292
    15  H    0.149570
    16  H    0.151650
    17  H    0.152147
    18  H    0.160242
    19  H    0.153799
    20  H    0.161693
    21  C   -0.298295
    22  C   -0.299594
    23  C   -0.475652
    24  H    0.149567
    25  H    0.149321
    26  H    0.151794
    27  H    0.151857
    28  H    0.155123
    29  H    0.155052
    30  H    0.160090
    31  C   -0.298163
    32  C   -0.303089
    33  C   -0.476982
    34  H    0.149675
    35  H    0.149290
    36  H    0.155750
    37  H    0.151004
    38  H    0.153828
    39  H    0.159734
    40  H    0.158283
 Sum of Mulliken charges =  -0.00000

 Dipole moment (field-independent basis, Debye):
    X=             -0.0376    Y=              0.0031    Z=              0.0123  Tot=              0.0397
 Quadrupole moment (field-independent basis, Debye-Ang):
   XX=            -85.9429   YY=            -85.2310   ZZ=            -83.8989
   XY=              0.5946   XZ=             -0.1986   YZ=             -0.9164

 Normal termination of Gaussian 16 at Thu May  6 02:22:20 2021.
