 Gaussian 16, Revision A.03,
 Gaussian 16:  EM64L-G16RevA.03 25-Dec-2016

 -------------
 #p 6-31g* mp2
 -------------

 ------------------------------------------------------
 Input file generated by CHIRIPA (05-May-2021 14:57:25)
 ------------------------------------------------------
 Symbolic Z-matrix:
 Charge =  0 Multiplicity = 1

                         Standard orientation:
 ---------------------------------------------------------------------
 Center     Atomic      Atomic             Coordinates (Angstroms)
 Number     Number       Type             X           Y           Z
 ---------------------------------------------------------------------
      1          6           0       -3.921728   -2.097731    0.243208
      2          6           0       -4.037438   -1.252177    1.351436
      3          6           0       -3.528699    0.049292    1.307705
      4          6           0       -2.907501    0.474387    0.134378
      5          6           0       -2.776738   -0.344282   -0.986324
      6          6           0       -3.292855   -1.641889   -0.920084
      7          1           0       -4.319794   -3.107243    0.285922
      8          1           0       -4.525333   -1.603501    2.256188
      9          1           0       -3.604622    0.724873    2.151058
     10          1           0       -2.285154    0.034268   -1.874278
     11          1           0       -3.201561   -2.296358   -1.782279
     12          7           0       -2.365016    1.850149    0.076168
     13          8           0       -1.822151    2.200737   -0.969310
     14          8           0       -2.492953    2.551832    1.077122
     15          6           0        5.253002    0.134648    0.918957
     16          6           0        4.606550    1.181180    0.253081
     17          6           0        3.356279    0.980779   -0.339548
     18          6           0        2.778798   -0.284603   -0.246732
     19          6           0        3.397734   -1.347253    0.409761
     20          6           0        4.647598   -1.124010    0.995038
     21          1           0        6.224085    0.299196    1.376470
     22          1           0        5.074338    2.159719    0.192422
     23          1           0        2.833635    1.773353   -0.861169
     24          1           0        2.906375   -2.311649    0.453646
     25          1           0        5.147316   -1.938606    1.511525
     26          7           0        1.455408   -0.508850   -0.870231
     27          8           0        0.967790   -1.632992   -0.774459
     28          8           0        0.930810    0.443773   -1.442894
 ---------------------------------------------------------------------

 SCF Done:  E(RHF) =  -868.338610224     A.U. after   16 cycles
 E2 =    -0.2600289269D+01 EUMP2 =    -0.87093889949284D+03

 The electronic state is 1-A.
 Alpha  occ. eigenvalues --  -20.60756 -20.60652 -20.59595 -20.59478 -15.85709
 Alpha  occ. eigenvalues --  -15.84574 -11.31014 -11.29862 -11.27620 -11.27522
 Alpha  occ. eigenvalues --  -11.27333 -11.26616 -11.26566 -11.26552 -11.26321
 Alpha  occ. eigenvalues --  -11.26288 -11.25581 -11.25405  -1.59777  -1.58613
 Alpha  occ. eigenvalues --   -1.39321  -1.38159  -1.19188  -1.18064  -1.08605
 Alpha  occ. eigenvalues --   -1.07497  -1.04577  -1.03455  -0.95446  -0.94332
 Alpha  occ. eigenvalues --   -0.85980  -0.84871  -0.82270  -0.81163  -0.77323
 Alpha  occ. eigenvalues --   -0.76194  -0.71941  -0.71106  -0.70802  -0.70299
 Alpha  occ. eigenvalues --   -0.69904  -0.69213  -0.64839  -0.64586  -0.63732
 Alpha  occ. eigenvalues --   -0.63492  -0.61919  -0.60800  -0.55099  -0.54033
 Alpha  occ. eigenvalues --   -0.52917  -0.52669  -0.51799  -0.51571  -0.48732
 Alpha  occ. eigenvalues --   -0.48710  -0.47591  -0.47534  -0.44781  -0.43498
 Alpha  occ. eigenvalues --   -0.37176  -0.36177  -0.36087  -0.35016
 Alpha virt. eigenvalues --    0.05173   0.06357   0.11478   0.12614   0.16695
 Alpha virt. eigenvalues --    0.17807   0.21611   0.22603   0.27530   0.28478
 Alpha virt. eigenvalues --    0.28562   0.29537   0.31162   0.32068   0.32795

 Mulliken charges:
               1
     1  C   -0.171065
     2  C   -0.220052
     3  C   -0.173043
     4  C    0.153258
     5  C   -0.156982
     6  C   -0.215229
     7  H    0.220646
     8  H    0.217374
     9  H    0.270334
    10  H    0.285591
    11  H    0.222584
    12  N    0.486944
    13  O   -0.450802
    14  O   -0.471038
    15  C   -0.170545
    16  C   -0.218765
    17  C   -0.169949
    18  C    0.157537
    19  C   -0.171261
    20  C   -0.218842
    21  H    0.225230
    22  H    0.224773
    23  H    0.281831
    24  H    0.273258
    25  H    0.222105
    26  N    0.487165
    27  O   -0.468485
    28  O   -0.452572
 Sum of Mulliken charges =  -0.00000

 Dipole moment (field-independent basis, Debye):
    X=              3.0435    Y=             -3.9233    Z=              2.0538  Tot=              5.3734
 Quadrupole moment (field-independent basis, Debye-Ang):
   XX=            -69.8965   YY=           -106.3549   ZZ=           -101.8932
   XY=             14.2870   XZ=              3.4132   YZ=             -2.4376

 Normal termination of Gaussian 16 at Fri May  7 03:30:39 2021.
