 Gaussian 16, Revision A.03,
 Gaussian 16:  EM64L-G16RevA.03 25-Dec-2016

 -------------
 #p 6-31g* mp2
 -------------

 ------------------------------------------------------
 Input file generated by CHIRIPA (05-May-2021 14:55:21)
 ------------------------------------------------------
 Symbolic Z-matrix:
 Charge =  0 Multiplicity = 1

                         Standard orientation:
 ---------------------------------------------------------------------
 Center     Atomic      Atomic             Coordinates (Angstroms)
 Number     Number       Type             X           Y           Z
 ---------------------------------------------------------------------
      1          6           0        1.311370    1.121670    1.335761
      2          6           0        2.425928    0.672012    2.051366
      3          6           0        3.473497    0.017650    1.396418
      4          6           0        3.373149   -0.171074    0.018882
      5          6           0        2.275815    0.265316   -0.721868
      6          6           0        1.239997    0.917248   -0.046136
      7          1           0        0.502158    1.629050    1.852613
      8          1           0        2.484061    0.829386    3.124631
      9          1           0        4.347933   -0.340710    1.925906
     10          1           0        2.246358    0.093870   -1.791053
     11          1           0        0.375631    1.265384   -0.604453
     12          7           0        4.475944   -0.862532   -0.685483
     13          8           0        4.363481   -1.016500   -1.899684
     14          8           0        5.431896   -1.237435   -0.010028
     15          6           0       -3.686903    0.678508    0.069005
     16          6           0       -3.324678    1.653096   -1.052136
     17          6           0       -2.528410    2.859073   -0.552767
     18          1           0       -4.266697    1.210567    0.835619
     19          1           0       -2.765109    0.333602    0.557606
     20          1           0       -4.246805    1.994993   -1.539377
     21          1           0       -2.745844    1.118608   -1.816263
     22          1           0       -1.592956    2.535996   -0.084635
     23          1           0       -3.102445    3.417361    0.193824
     24          1           0       -2.280090    3.542740   -1.370568
     25          6           0       -4.483068   -0.532296   -0.414529
     26          6           0       -4.845294   -1.506884    0.706611
     27          6           0       -5.641562   -2.712862    0.207244
     28          1           0       -5.404863   -0.187392   -0.903131
     29          1           0       -3.903275   -1.064355   -1.181144
     30          1           0       -5.424129   -0.972397    1.470738
     31          1           0       -3.923168   -1.848782    1.193853
     32          1           0       -5.067528   -3.271150   -0.539349
     33          1           0       -6.577017   -2.389785   -0.260889
     34          1           0       -5.889882   -3.396529    1.025043
 ---------------------------------------------------------------------

 SCF Done:  E(RHF) =  -669.535449672     A.U. after   15 cycles
 E2 =    -0.2091288220D+01 EUMP2 =    -0.67162673789243D+03

 The electronic state is 1-A.
 Alpha  occ. eigenvalues --  -20.60754 -20.60749 -15.85808 -11.31173 -11.27742
 Alpha  occ. eigenvalues --  -11.27737 -11.27482 -11.26758 -11.26727 -11.22575
 Alpha  occ. eigenvalues --  -11.22286 -11.22242 -11.22128 -11.22007 -11.21476
 Alpha  occ. eigenvalues --   -1.59830  -1.39383  -1.19345  -1.09200  -1.08741
 Alpha  occ. eigenvalues --   -1.04750  -1.04305  -0.96765  -0.95576  -0.87781
 Alpha  occ. eigenvalues --   -0.86150  -0.82407  -0.80377  -0.78973  -0.77457
 Alpha  occ. eigenvalues --   -0.72027  -0.71153  -0.70457  -0.65875  -0.64998
 Alpha  occ. eigenvalues --   -0.64765  -0.62189  -0.61612  -0.60141  -0.58349
 Alpha  occ. eigenvalues --   -0.56077  -0.55245  -0.53448  -0.53205  -0.53076
 Alpha  occ. eigenvalues --   -0.52815  -0.50706  -0.48794  -0.48781  -0.48672
 Alpha  occ. eigenvalues --   -0.47414  -0.46520  -0.46422  -0.44789  -0.44538
 Alpha  occ. eigenvalues --   -0.37327  -0.36351
 Alpha virt. eigenvalues --    0.05079   0.11275   0.16572   0.18703   0.22612
 Alpha virt. eigenvalues --    0.23768   0.25280   0.26169   0.27036   0.27742
 Alpha virt. eigenvalues --    0.28789   0.29999   0.30962   0.31420   0.31755

 Mulliken charges:
               1
     1  C   -0.173185
     2  C   -0.218509
     3  C   -0.171188
     4  C    0.158817
     5  C   -0.171365
     6  C   -0.224125
     7  H    0.226479
     8  H    0.223475
     9  H    0.275574
    10  H    0.275735
    11  H    0.230595
    12  N    0.487956
    13  O   -0.460458
    14  O   -0.460427
    15  C   -0.298523
    16  C   -0.301535
    17  C   -0.479202
    18  H    0.151254
    19  H    0.144987
    20  H    0.157409
    21  H    0.151163
    22  H    0.143408
    23  H    0.160217
    24  H    0.165230
    25  C   -0.298771
    26  C   -0.300283
    27  C   -0.476210
    28  H    0.151525
    29  H    0.151155
    30  H    0.152167
    31  H    0.152198
    32  H    0.156639
    33  H    0.156001
    34  H    0.161800
 Sum of Mulliken charges =  -0.00000

 Dipole moment (field-independent basis, Debye):
    X=             -4.1058    Y=              2.4245    Z=              2.4534  Tot=              5.3623
 Quadrupole moment (field-independent basis, Debye-Ang):
   XX=           -119.0081   YY=            -96.7235   ZZ=            -91.0079
   XY=              7.5716   XZ=             10.7069   YZ=             -1.0424

 Normal termination of Gaussian 16 at Thu May  6 22:19:24 2021.
