 Gaussian 16, Revision A.03,
 Gaussian 16:  EM64L-G16RevA.03 25-Dec-2016

 -------------
 #p 6-31g* mp2
 -------------

 ------------------------------------------------------
 Input file generated by CHIRIPA (05-May-2021 14:53:12)
 ------------------------------------------------------
 Symbolic Z-matrix:
 Charge =  0 Multiplicity = 1

                         Standard orientation:
 ---------------------------------------------------------------------
 Center     Atomic      Atomic             Coordinates (Angstroms)
 Number     Number       Type             X           Y           Z
 ---------------------------------------------------------------------
      1          6           0       -4.001707    0.823921   -0.222335
      2          6           0       -2.763828    1.338114    0.513359
      3          6           0       -2.277342    2.686381   -0.018902
      4          1           0       -3.773787    0.736256   -1.293462
      5          1           0       -4.806988    1.566275   -0.133856
      6          1           0       -1.961562    0.594391    0.424691
      7          1           0       -2.994663    1.424383    1.582886
      8          1           0       -3.058906    3.446043    0.084407
      9          1           0       -2.019936    2.611336   -1.080369
     10          1           0       -1.391622    3.035263    0.521136
     11          6           0       -4.500019   -0.523011    0.298421
     12          6           0       -5.737898   -1.037204   -0.437273
     13          6           0       -6.224384   -2.385471    0.094988
     14          1           0       -3.694738   -1.265365    0.209941
     15          1           0       -4.727939   -0.435346    1.369547
     16          1           0       -5.507063   -1.123473   -1.506801
     17          1           0       -6.540163   -0.293481   -0.348605
     18          1           0       -6.481790   -2.310425    1.156454
     19          1           0       -5.442820   -3.145133   -0.008322
     20          1           0       -7.110104   -2.734353   -0.445050
     21          6           0        5.320723   -1.654093    0.047688
     22          6           0        5.503387   -0.267337    0.039745
     23          6           0        4.402671    0.593560   -0.003012
     24          6           0        3.127660    0.031005   -0.037205
     25          6           0        2.913118   -1.346389   -0.030346
     26          6           0        4.028450   -2.188251    0.012679
     27          1           0        6.181463   -2.315465    0.081007
     28          1           0        6.505826    0.150305    0.066869
     29          1           0        4.515362    1.670903   -0.010094
     30          1           0        1.901642   -1.733128   -0.058056
     31          1           0        3.883581   -3.264830    0.018750
     32          7           0        1.954644    0.932322   -0.082611
     33          8           0        0.841654    0.411731   -0.112168
     34          8           0        2.170436    2.142298   -0.087784
 ---------------------------------------------------------------------

 SCF Done:  E(RHF) =  -669.536244913     A.U. after   15 cycles
 E2 =    -0.2091195820D+01 EUMP2 =    -0.67162744073292D+03

 The electronic state is 1-A.
 Alpha  occ. eigenvalues --  -20.60996 -20.60991 -15.86026 -11.31332 -11.27893
 Alpha  occ. eigenvalues --  -11.27888 -11.27625 -11.26895 -11.26885 -11.20915
 Alpha  occ. eigenvalues --  -11.20551 -11.20486 -11.20178 -11.19883 -11.19267
 Alpha  occ. eigenvalues --   -1.60049  -1.39607  -1.19497  -1.08904  -1.07351
 Alpha  occ. eigenvalues --   -1.04891  -1.02351  -0.95749  -0.94829  -0.86292
 Alpha  occ. eigenvalues --   -0.85859  -0.82585  -0.78498  -0.77640  -0.77075
 Alpha  occ. eigenvalues --   -0.72249  -0.71363  -0.70606  -0.65155  -0.64895
 Alpha  occ. eigenvalues --   -0.63988  -0.62239  -0.59741  -0.58281  -0.56399
 Alpha  occ. eigenvalues --   -0.55394  -0.54140  -0.53223  -0.52982  -0.51510
 Alpha  occ. eigenvalues --   -0.51266  -0.48997  -0.48981  -0.48808  -0.46789
 Alpha  occ. eigenvalues --   -0.45555  -0.45035  -0.44641  -0.44440  -0.42614
 Alpha  occ. eigenvalues --   -0.37475  -0.36491
 Alpha virt. eigenvalues --    0.04890   0.11164   0.16391   0.21287   0.23839
 Alpha virt. eigenvalues --    0.25536   0.27218   0.27628   0.28136   0.28631
 Alpha virt. eigenvalues --    0.29124   0.30864   0.32286   0.32529   0.32774

 Mulliken charges:
               1
     1  C   -0.297436
     2  C   -0.306372
     3  C   -0.470670
     4  H    0.148118
     5  H    0.144881
     6  H    0.173410
     7  H    0.143370
     8  H    0.143320
     9  H    0.155041
    10  H    0.170351
    11  C   -0.296972
    12  C   -0.298679
    13  C   -0.474867
    14  H    0.148195
    15  H    0.147317
    16  H    0.150768
    17  H    0.150788
    18  H    0.154082
    19  H    0.153204
    20  H    0.157875
    21  C   -0.170541
    22  C   -0.218593
    23  C   -0.170427
    24  C    0.157474
    25  C   -0.170657
    26  C   -0.218522
    27  H    0.226131
    28  H    0.223953
    29  H    0.275987
    30  H    0.275440
    31  H    0.223939
    32  N    0.493236
    33  O   -0.464280
    34  O   -0.458864
 Sum of Mulliken charges =  -0.00000

 Dipole moment (field-independent basis, Debye):
    X=              4.5748    Y=             -3.1716    Z=              0.1442  Tot=              5.5686
 Quadrupole moment (field-independent basis, Debye-Ang):
   XX=            -68.8305   YY=            -93.0533   ZZ=            -95.4487
   XY=             -7.8590   XZ=              0.1943   YZ=              0.7429

 Normal termination of Gaussian 16 at Wed May  5 23:21:24 2021.
