 Gaussian 16, Revision A.03,
 Gaussian 16:  EM64L-G16RevA.03 25-Dec-2016

 -------------
 #p 6-31g* mp2
 -------------

 ------------------------------------------------------
 Input file generated by CHIRIPA (05-May-2021 14:51:14)
 ------------------------------------------------------
 Symbolic Z-matrix:
 Charge =  0 Multiplicity = 1

                         Standard orientation:
 ---------------------------------------------------------------------
 Center     Atomic      Atomic             Coordinates (Angstroms)
 Number     Number       Type             X           Y           Z
 ---------------------------------------------------------------------
      1          6           0       -2.482800   -1.084644   -0.252229
      2          6           0       -2.019399   -2.162238    0.728606
      3          6           0       -0.943756   -3.075069    0.139092
      4          1           0       -2.866919   -1.566424   -1.161782
      5          1           0       -1.617116   -0.481744   -0.559632
      6          1           0       -2.885931   -2.762053    1.035134
      7          1           0       -1.636516   -1.677842    1.636007
      8          1           0       -0.061893   -2.494356   -0.150201
      9          1           0       -1.318407   -3.584727   -0.754489
     10          1           0       -0.627022   -3.837977    0.857082
     11          6           0       -3.558000   -0.164186    0.322600
     12          6           0       -4.021402    0.913407   -0.658235
     13          6           0       -5.097044    1.826238   -0.068721
     14          1           0       -4.423685   -0.767086    0.630003
     15          1           0       -3.173882    0.317594    1.232153
     16          1           0       -4.404284    0.429012   -1.565636
     17          1           0       -3.154869    1.513222   -0.964763
     18          1           0       -4.722394    2.335897    0.824860
     19          1           0       -5.978908    1.245526    0.220572
     20          1           0       -5.413778    2.589147   -0.786711
     21          6           0        3.481437    0.045155    0.152791
     22          6           0        3.134411   -1.262069   -0.560457
     23          6           0        4.065618   -2.411567   -0.174059
     24          1           0        4.519695    0.318247   -0.080419
     25          1           0        3.436763   -0.114864    1.238973
     26          1           0        3.178377   -1.099271   -1.644976
     27          1           0        2.096798   -1.531981   -0.325677
     28          1           0        4.015458   -2.602642    0.902777
     29          1           0        5.103183   -2.167473   -0.424017
     30          1           0        3.799590   -3.336348   -0.695468
     31          6           0        2.559364    1.203676   -0.223161
     32          6           0        2.906389    2.510899    0.490086
     33          6           0        1.975182    3.660396    0.103687
     34          1           0        2.604038    1.363695   -1.309344
     35          1           0        1.521105    0.930583    0.010048
     36          1           0        3.944003    2.780811    0.255306
     37          1           0        2.862424    2.348101    1.574605
     38          1           0        0.937617    3.416303    0.353646
     39          1           0        2.025342    3.851473   -0.973148
     40          1           0        2.241211    4.585178    0.625097
 ---------------------------------------------------------------------

 SCF Done:  E(RHF) =  -470.733390873     A.U. after   11 cycles
 E2 =    -0.1582839032D+01 EUMP2 =    -0.47231622990439D+03

 The electronic state is 1-A.
 Alpha  occ. eigenvalues --  -11.21643 -11.21630 -11.21610 -11.21609 -11.21448
 Alpha  occ. eigenvalues --  -11.21426 -11.21384 -11.21367 -11.21112 -11.21080
 Alpha  occ. eigenvalues --  -11.21075 -11.21066  -1.08468  -1.08447  -1.03567
 Alpha  occ. eigenvalues --   -1.03536  -0.96012  -0.95988  -0.87033  -0.87000
 Alpha  occ. eigenvalues --   -0.79665  -0.79568  -0.78307  -0.78235  -0.65167
 Alpha  occ. eigenvalues --   -0.65020  -0.61072  -0.60844  -0.59382  -0.59354
 Alpha  occ. eigenvalues --   -0.57652  -0.57570  -0.55361  -0.55224  -0.52698
 Alpha  occ. eigenvalues --   -0.52685  -0.52459  -0.52395  -0.50064  -0.49852
 Alpha  occ. eigenvalues --   -0.48041  -0.47841  -0.46814  -0.46499  -0.45950
 Alpha  occ. eigenvalues --   -0.45780  -0.45769  -0.45498  -0.43811  -0.43802
 Alpha virt. eigenvalues --    0.20563   0.23245   0.23612   0.24518   0.25529
 Alpha virt. eigenvalues --    0.26987   0.27074   0.27396   0.28127   0.29222
 Alpha virt. eigenvalues --    0.30391   0.31622   0.31698   0.31891   0.31994

 Mulliken charges:
               1
     1  C   -0.299139
     2  C   -0.299144
     3  C   -0.484136
     4  H    0.150005
     5  H    0.149838
     6  H    0.152169
     7  H    0.151346
     8  H    0.162664
     9  H    0.155681
    10  H    0.160392
    11  C   -0.298277
    12  C   -0.299750
    13  C   -0.475707
    14  H    0.149660
    15  H    0.149346
    16  H    0.152046
    17  H    0.152153
    18  H    0.155128
    19  H    0.155167
    20  H    0.160407
    21  C   -0.297585
    22  C   -0.309102
    23  C   -0.475120
    24  H    0.149934
    25  H    0.149497
    26  H    0.152123
    27  H    0.160028
    28  H    0.155158
    29  H    0.155123
    30  H    0.160842
    31  C   -0.298773
    32  C   -0.299687
    33  C   -0.475652
    34  H    0.149874
    35  H    0.148682
    36  H    0.152275
    37  H    0.151990
    38  H    0.154700
    39  H    0.155361
    40  H    0.160483
 Sum of Mulliken charges =  -0.00000

 Dipole moment (field-independent basis, Debye):
    X=              0.0098    Y=             -0.0056    Z=             -0.0112  Tot=              0.0159
 Quadrupole moment (field-independent basis, Debye-Ang):
   XX=            -84.7285   YY=            -85.6978   ZZ=            -84.1849
   XY=              1.7561   XZ=             -0.0983   YZ=             -0.0035

 Normal termination of Gaussian 16 at Thu May  6 02:25:19 2021.
