 Gaussian 16, Revision A.03,
 Gaussian 16:  EM64L-G16RevA.03 25-Dec-2016

 -------------
 #p 6-31g* mp2
 -------------

 ------------------------------------------------------
 Input file generated by CHIRIPA (05-May-2021 14:53:16)
 ------------------------------------------------------
 Symbolic Z-matrix:
 Charge =  0 Multiplicity = 1

                         Standard orientation:
 ---------------------------------------------------------------------
 Center     Atomic      Atomic             Coordinates (Angstroms)
 Number     Number       Type             X           Y           Z
 ---------------------------------------------------------------------
      1          6           0        3.714944   -0.022695   -0.209784
      2          6           0        3.440940   -1.517366   -0.039888
      3          6           0        4.713953   -2.327385    0.207302
      4          1           0        4.412182    0.123031   -1.046186
      5          1           0        4.221932    0.354538    0.689133
      6          1           0        2.933380   -1.891374   -0.938284
      7          1           0        2.744123   -1.659537    0.796084
      8          1           0        5.220277   -1.981989    1.114462
      9          1           0        5.410608   -2.215143   -0.629761
     10          1           0        4.494975   -3.393147    0.325870
     11          6           0        2.452074    0.800390   -0.457614
     12          6           0        2.726077    2.295061   -0.627510
     13          6           0        1.453064    3.105080   -0.874700
     14          1           0        1.945085    0.423157   -1.356531
     15          1           0        1.754835    0.654664    0.378788
     16          1           0        3.422894    2.437232   -1.463482
     17          1           0        3.233637    2.669069    0.270886
     18          1           0        0.756409    2.992838   -0.037637
     19          1           0        0.946740    2.759684   -1.781860
     20          1           0        1.672042    4.170842   -0.993268
     21          6           0       -3.697335   -0.805647   -1.849802
     22          6           0       -4.242454    0.045033   -0.882483
     23          6           0       -3.537546    0.330157    0.290700
     24          6           0       -2.284439   -0.255269    0.464738
     25          6           0       -1.714546   -1.106834   -0.480434
     26          6           0       -2.437341   -1.377857   -1.646050
     27          1           0       -4.251871   -1.021661   -2.758220
     28          1           0       -5.220773    0.490836   -1.038041
     29          1           0       -3.935933    0.985187    1.055972
     30          1           0       -0.737112   -1.536302   -0.297138
     31          1           0       -2.011518   -2.038877   -2.395564
     32          7           0       -1.528716    0.039115    1.702729
     33          8           0       -0.426582   -0.489251    1.832224
     34          8           0       -2.052824    0.792643    2.520129
 ---------------------------------------------------------------------

 SCF Done:  E(RHF) =  -669.536646105     A.U. after   15 cycles
 E2 =    -0.2091875623D+01 EUMP2 =    -0.67162852172807D+03

 The electronic state is 1-A.
 Alpha  occ. eigenvalues --  -20.60976 -20.60969 -15.85992 -11.31253 -11.27820
 Alpha  occ. eigenvalues --  -11.27800 -11.27554 -11.26817 -11.26804 -11.21127
 Alpha  occ. eigenvalues --  -11.21100 -11.20855 -11.20690 -11.20688 -11.20672
 Alpha  occ. eigenvalues --   -1.60027  -1.39585  -1.19421  -1.08839  -1.07895
 Alpha  occ. eigenvalues --   -1.04810  -1.03064  -0.95691  -0.95511  -0.86536
 Alpha  occ. eigenvalues --   -0.86214  -0.82527  -0.79128  -0.77776  -0.77517
 Alpha  occ. eigenvalues --   -0.72220  -0.71333  -0.70533  -0.65085  -0.64816
 Alpha  occ. eigenvalues --   -0.64501  -0.62157  -0.60455  -0.58889  -0.57130
 Alpha  occ. eigenvalues --   -0.55324  -0.54793  -0.53143  -0.52904  -0.52236
 Alpha  occ. eigenvalues --   -0.51952  -0.49456  -0.48988  -0.48970  -0.47458
 Alpha  occ. eigenvalues --   -0.46156  -0.45482  -0.45258  -0.44592  -0.43290
 Alpha  occ. eigenvalues --   -0.37400  -0.36406
 Alpha virt. eigenvalues --    0.04902   0.11232   0.16370   0.21080   0.23322
 Alpha virt. eigenvalues --    0.24653   0.26055   0.27098   0.27642   0.28309
 Alpha virt. eigenvalues --    0.29257   0.31207   0.31791   0.31922   0.32307

 Mulliken charges:
               1
     1  C   -0.296536
     2  C   -0.303699
     3  C   -0.475150
     4  H    0.145627
     5  H    0.151818
     6  H    0.142389
     7  H    0.165369
     8  H    0.156991
     9  H    0.152728
    10  H    0.158176
    11  C   -0.310815
    12  C   -0.298398
    13  C   -0.476282
    14  H    0.138771
    15  H    0.173780
    16  H    0.148340
    17  H    0.154082
    18  H    0.158684
    19  H    0.150488
    20  H    0.158845
    21  C   -0.170349
    22  C   -0.218661
    23  C   -0.170614
    24  C    0.158216
    25  C   -0.170597
    26  C   -0.219063
    27  H    0.225858
    28  H    0.223669
    29  H    0.275587
    30  H    0.277869
    31  H    0.223802
    32  N    0.488527
    33  O   -0.460792
    34  O   -0.458660
 Sum of Mulliken charges =  -0.00000

 Dipole moment (field-independent basis, Debye):
    X=             -2.8198    Y=             -1.0381    Z=             -4.1509  Tot=              5.1243
 Quadrupole moment (field-independent basis, Debye-Ang):
   XX=            -81.0549   YY=            -93.8568   ZZ=            -98.0633
   XY=              1.2000   XZ=              7.8822   YZ=              2.1790

 Normal termination of Gaussian 16 at Thu May  6 09:03:42 2021.
