 Gaussian 16, Revision A.03,
 Gaussian 16:  EM64L-G16RevA.03 25-Dec-2016

 -------------
 #p 6-31g* mp2
 -------------

 ------------------------------------------------------
 Input file generated by CHIRIPA (05-May-2021 14:55:19)
 ------------------------------------------------------
 Symbolic Z-matrix:
 Charge =  0 Multiplicity = 1

                         Standard orientation:
 ---------------------------------------------------------------------
 Center     Atomic      Atomic             Coordinates (Angstroms)
 Number     Number       Type             X           Y           Z
 ---------------------------------------------------------------------
      1          6           0       -5.508823   -0.259998   -0.011838
      2          6           0       -4.782723   -1.386564    0.388350
      3          6           0       -3.384814   -1.366687    0.389607
      4          6           0       -2.742517   -0.198256   -0.017226
      5          6           0       -3.437884    0.940320   -0.421453
      6          6           0       -4.835273    0.897807   -0.414752
      7          1           0       -6.594550   -0.284231   -0.009723
      8          1           0       -5.303149   -2.287107    0.701758
      9          1           0       -2.797929   -2.224586    0.694556
     10          1           0       -2.891053    1.823523   -0.728612
     11          1           0       -5.396576    1.774207   -0.726052
     12          7           0       -1.262888   -0.165231   -0.020108
     13          8           0       -0.720702    0.876403   -0.382971
     14          8           0       -0.673359   -1.181606    0.340550
     15          6           0        3.997539   -0.347654   -0.405969
     16          6           0        4.703371   -1.455620    0.376461
     17          6           0        5.046940   -2.666035   -0.492245
     18          1           0        3.079401   -0.751679   -0.854001
     19          1           0        4.639292   -0.031312   -1.239920
     20          1           0        4.061071   -1.768816    1.209512
     21          1           0        5.619836   -1.048861    0.822840
     22          1           0        5.707363   -2.374493   -1.315316
     23          1           0        4.139741   -3.098539   -0.926449
     24          1           0        5.550875   -3.445933    0.087124
     25          6           0        3.647588    0.869122    0.448852
     26          6           0        2.941755    1.977088   -0.333578
     27          6           0        2.598187    3.187503    0.535129
     28          1           0        3.005835    0.552781    1.282803
     29          1           0        4.565725    1.273146    0.896884
     30          1           0        2.025290    1.570329   -0.779958
     31          1           0        3.584055    2.290285   -1.166629
     32          1           0        3.505385    3.620007    0.969331
     33          1           0        1.937763    2.895961    1.358199
     34          1           0        2.094251    3.967401   -0.044241
 ---------------------------------------------------------------------

 SCF Done:  E(RHF) =  -669.536629821     A.U. after   15 cycles
 E2 =    -0.2091240813D+01 EUMP2 =    -0.67162787063434D+03

 The electronic state is 1-A.
 Alpha  occ. eigenvalues --  -20.61107 -20.61088 -15.86117 -11.31383 -11.27937
 Alpha  occ. eigenvalues --  -11.27933 -11.27665 -11.26932 -11.26922 -11.20412
 Alpha  occ. eigenvalues --  -11.20077 -11.19940 -11.19839 -11.19776 -11.19649
 Alpha  occ. eigenvalues --   -1.60152  -1.39709  -1.19544  -1.08960  -1.06962
 Alpha  occ. eigenvalues --   -1.04931  -1.02136  -0.95811  -0.94636  -0.86334
 Alpha  occ. eigenvalues --   -0.85664  -0.82646  -0.78219  -0.77705  -0.76758
 Alpha  occ. eigenvalues --   -0.72340  -0.71459  -0.70652  -0.65201  -0.64936
 Alpha  occ. eigenvalues --   -0.63561  -0.62278  -0.59508  -0.58027  -0.56246
 Alpha  occ. eigenvalues --   -0.55438  -0.53915  -0.53267  -0.53022  -0.51379
 Alpha  occ. eigenvalues --   -0.51076  -0.49154  -0.49093  -0.48549  -0.46541
 Alpha  occ. eigenvalues --   -0.45210  -0.45112  -0.44323  -0.44120  -0.42388
 Alpha  occ. eigenvalues --   -0.37521  -0.36530
 Alpha virt. eigenvalues --    0.04821   0.11127   0.16331   0.21262   0.24334
 Alpha virt. eigenvalues --    0.25627   0.27191   0.28002   0.28275   0.29005
 Alpha virt. eigenvalues --    0.29284   0.30852   0.32351   0.32707   0.33113

 Mulliken charges:
               1
     1  C   -0.170380
     2  C   -0.218618
     3  C   -0.170440
     4  C    0.157480
     5  C   -0.170701
     6  C   -0.218566
     7  H    0.226339
     8  H    0.224118
     9  H    0.275933
    10  H    0.276150
    11  H    0.224195
    12  N    0.490401
    13  O   -0.460913
    14  O   -0.459762
    15  C   -0.299570
    16  C   -0.298747
    17  C   -0.475281
    18  H    0.160515
    19  H    0.143413
    20  H    0.154007
    21  H    0.147338
    22  H    0.152095
    23  H    0.156598
    24  H    0.155919
    25  C   -0.296233
    26  C   -0.309026
    27  C   -0.472618
    28  H    0.154137
    29  H    0.141337
    30  H    0.180508
    31  H    0.141951
    32  H    0.147242
    33  H    0.156529
    34  H    0.154650
 Sum of Mulliken charges =  -0.00000

 Dipole moment (field-independent basis, Debye):
    X=             -5.7061    Y=             -0.2275    Z=             -0.0190  Tot=              5.7107
 Quadrupole moment (field-independent basis, Debye-Ang):
   XX=            -67.7956   YY=            -91.8850   ZZ=            -95.3443
   XY=              1.5866   XZ=              0.0211   YZ=             -2.5455

 Normal termination of Gaussian 16 at Wed May  5 20:31:58 2021.
