 Gaussian 16, Revision A.03,
 Gaussian 16:  EM64L-G16RevA.03 25-Dec-2016

 -------------
 #p 6-31g* mp2
 -------------

 ------------------------------------------------------
 Input file generated by CHIRIPA (05-May-2021 14:55:19)
 ------------------------------------------------------
 Symbolic Z-matrix:
 Charge =  0 Multiplicity = 1

                         Standard orientation:
 ---------------------------------------------------------------------
 Center     Atomic      Atomic             Coordinates (Angstroms)
 Number     Number       Type             X           Y           Z
 ---------------------------------------------------------------------
      1          6           0       -1.118860   -1.631412    0.358130
      2          6           0       -1.096004   -0.537271   -0.512992
      3          6           0       -2.265772    0.178532   -0.784686
      4          6           0       -3.446125   -0.229155   -0.165133
      5          6           0       -3.501115   -1.314913    0.707448
      6          6           0       -2.319226   -2.016062    0.964501
      7          1           0       -0.205449   -2.181773    0.563502
      8          1           0       -0.165227   -0.236285   -0.985333
      9          1           0       -2.276505    1.029428   -1.454969
     10          1           0       -4.444165   -1.591122    1.163282
     11          1           0       -2.339957   -2.865383    1.641458
     12          7           0       -4.690921    0.520877   -0.445013
     13          8           0       -5.717978    0.141586    0.113495
     14          8           0       -4.615966    1.473841   -1.217592
     15          6           0        3.791393    1.116327    0.270715
     16          6           0        2.417381    0.958931    0.922868
     17          6           0        1.715534    2.297631    1.153273
     18          1           0        4.419738    1.757101    0.904383
     19          1           0        3.676608    1.640978   -0.687910
     20          1           0        2.534556    0.433506    1.879328
     21          1           0        1.792297    0.318301    0.287669
     22          1           0        1.569483    2.824321    0.204661
     23          1           0        2.315960    2.940182    1.805362
     24          1           0        0.735097    2.161758    1.620328
     25          6           0        4.505484   -0.213236    0.033938
     26          6           0        5.879495   -0.055841   -0.618215
     27          6           0        6.581342   -1.394541   -0.848621
     28          1           0        4.620268   -0.737888    0.992562
     29          1           0        3.877138   -0.854010   -0.599730
     30          1           0        6.504580    0.584790    0.016984
     31          1           0        5.762320    0.469584   -1.574674
     32          1           0        5.980917   -2.037090   -1.500709
     33          1           0        6.727393   -1.921231    0.099993
     34          1           0        7.561779   -1.258666   -1.315675
 ---------------------------------------------------------------------

 SCF Done:  E(RHF) =  -669.535378390     A.U. after   15 cycles
 E2 =    -0.2091536272D+01 EUMP2 =    -0.67162691466204D+03

 The electronic state is 1-A.
 Alpha  occ. eigenvalues --  -20.60756 -20.60751 -15.85810 -11.31179 -11.27753
 Alpha  occ. eigenvalues --  -11.27748 -11.27488 -11.26762 -11.26748 -11.22494
 Alpha  occ. eigenvalues --  -11.22207 -11.22145 -11.22089 -11.21719 -11.21610
 Alpha  occ. eigenvalues --   -1.59832  -1.39385  -1.19354  -1.09167  -1.08746
 Alpha  occ. eigenvalues --   -1.04761  -1.04218  -0.96639  -0.95580  -0.87654
 Alpha  occ. eigenvalues --   -0.86161  -0.82412  -0.80301  -0.78990  -0.77460
 Alpha  occ. eigenvalues --   -0.72029  -0.71155  -0.70455  -0.65848  -0.65005
 Alpha  occ. eigenvalues --   -0.64764  -0.62175  -0.61557  -0.60004  -0.58254
 Alpha  occ. eigenvalues --   -0.55929  -0.55249  -0.53328  -0.53097  -0.53031
 Alpha  occ. eigenvalues --   -0.52859  -0.50585  -0.48802  -0.48783  -0.48586
 Alpha  occ. eigenvalues --   -0.47338  -0.46521  -0.46444  -0.44790  -0.44471
 Alpha  occ. eigenvalues --   -0.37322  -0.36353
 Alpha virt. eigenvalues --    0.05075   0.11194   0.16553   0.19756   0.22601
 Alpha virt. eigenvalues --    0.23788   0.25319   0.26358   0.27285   0.28006
 Alpha virt. eigenvalues --    0.28826   0.30394   0.31093   0.31376   0.31747

 Mulliken charges:
               1
     1  C   -0.171090
     2  C   -0.218623
     3  C   -0.171827
     4  C    0.158407
     5  C   -0.170943
     6  C   -0.218861
     7  H    0.226476
     8  H    0.225830
     9  H    0.275749
    10  H    0.275610
    11  H    0.223450
    12  N    0.488060
    13  O   -0.460466
    14  O   -0.460383
    15  C   -0.298459
    16  C   -0.301873
    17  C   -0.477128
    18  H    0.153352
    19  H    0.150109
    20  H    0.153511
    21  H    0.140835
    22  H    0.154758
    23  H    0.158966
    24  H    0.164649
    25  C   -0.297788
    26  C   -0.300058
    27  C   -0.476059
    28  H    0.149989
    29  H    0.144268
    30  H    0.154005
    31  H    0.153005
    32  H    0.154478
    33  H    0.155532
    34  H    0.162520
 Sum of Mulliken charges =  -0.00000

 Dipole moment (field-independent basis, Debye):
    X=              4.5125    Y=             -2.5767    Z=              1.0475  Tot=              5.3008
 Quadrupole moment (field-independent basis, Debye-Ang):
   XX=           -123.8282   YY=            -92.7392   ZZ=            -92.8632
   XY=             10.7138   XZ=             -5.2997   YZ=             -2.0446

 Normal termination of Gaussian 16 at Thu May  6 17:23:58 2021.
