 Gaussian 16, Revision A.03,
 Gaussian 16:  EM64L-G16RevA.03 25-Dec-2016

 -------------
 #p 6-31g* mp2
 -------------

 ------------------------------------------------------
 Input file generated by CHIRIPA (05-May-2021 14:53:13)
 ------------------------------------------------------
 Symbolic Z-matrix:
 Charge =  0 Multiplicity = 1

                         Standard orientation:
 ---------------------------------------------------------------------
 Center     Atomic      Atomic             Coordinates (Angstroms)
 Number     Number       Type             X           Y           Z
 ---------------------------------------------------------------------
      1          6           0        3.584074    1.032702    0.481067
      2          6           0        2.220487    1.670370    0.212748
      3          6           0        1.977889    2.923388    1.054703
      4          1           0        3.660100    0.779992    1.547511
      5          1           0        4.372507    1.770546    0.277707
      6          1           0        1.434920    0.931111    0.415225
      7          1           0        2.147624    1.921417   -0.853218
      8          1           0        2.740406    3.680927    0.846608
      9          1           0        2.023653    2.684994    2.122258
     10          1           0        0.997353    3.363004    0.846986
     11          6           0        3.841296   -0.220944   -0.353161
     12          6           0        5.204883   -0.858612   -0.084842
     13          6           0        5.447481   -2.111629   -0.926797
     14          1           0        3.052863   -0.958787   -0.149802
     15          1           0        3.765271    0.031767   -1.419605
     16          1           0        5.277746   -1.109658    0.981123
     17          1           0        5.990450   -0.119352   -0.287320
     18          1           0        5.401717   -1.873236   -1.994352
     19          1           0        4.684964   -2.869169   -0.718703
     20          1           0        6.428017   -2.551245   -0.719080
     21          6           0       -2.416315   -2.684311    0.676489
     22          6           0       -3.733677   -2.282756    0.431889
     23          6           0       -4.013700   -0.973644    0.028945
     24          6           0       -2.947348   -0.088239   -0.120194
     25          6           0       -1.624212   -0.458181    0.115907
     26          6           0       -1.367634   -1.772350    0.517997
     27          1           0       -2.207893   -3.703225    0.989173
     28          1           0       -4.550087   -2.988850    0.554164
     29          1           0       -5.024192   -0.636180   -0.167121
     30          1           0       -0.831353    0.268303   -0.014530
     31          1           0       -0.343572   -2.081416    0.707254
     32          7           0       -3.231384    1.300335   -0.546320
     33          8           0       -2.274216    2.061286   -0.670496
     34          8           0       -4.405803    1.601457   -0.748071
 ---------------------------------------------------------------------

 SCF Done:  E(RHF) =  -669.535643870     A.U. after   15 cycles
 E2 =    -0.2091397677D+01 EUMP2 =    -0.67162704154683D+03

 The electronic state is 1-A.
 Alpha  occ. eigenvalues --  -20.60765 -20.60760 -15.85816 -11.31160 -11.27740
 Alpha  occ. eigenvalues --  -11.27704 -11.27489 -11.26756 -11.26745 -11.21940
 Alpha  occ. eigenvalues --  -11.21883 -11.21784 -11.21646 -11.21411 -11.20963
 Alpha  occ. eigenvalues --   -1.59838  -1.39392  -1.19339  -1.08740  -1.08738
 Alpha  occ. eigenvalues --   -1.04743  -1.03766  -0.96186  -0.95576  -0.87201
 Alpha  occ. eigenvalues --   -0.86143  -0.82410  -0.79850  -0.78575  -0.77450
 Alpha  occ. eigenvalues --   -0.72036  -0.71159  -0.70458  -0.65389  -0.64993
 Alpha  occ. eigenvalues --   -0.64751  -0.62129  -0.61147  -0.59547  -0.57791
 Alpha  occ. eigenvalues --   -0.55490  -0.55247  -0.53072  -0.52875  -0.52814
 Alpha  occ. eigenvalues --   -0.52598  -0.50139  -0.48793  -0.48790  -0.48139
 Alpha  occ. eigenvalues --   -0.46897  -0.46105  -0.46027  -0.44801  -0.44019
 Alpha  occ. eigenvalues --   -0.37326  -0.36344
 Alpha virt. eigenvalues --    0.05075   0.11306   0.16566   0.19580   0.22792
 Alpha virt. eigenvalues --    0.23787   0.24974   0.26644   0.27020   0.28271
 Alpha virt. eigenvalues --    0.29323   0.30634   0.31342   0.31552   0.32053

 Mulliken charges:
               1
     1  C   -0.298160
     2  C   -0.300990
     3  C   -0.479421
     4  H    0.148891
     5  H    0.152732
     6  H    0.138944
     7  H    0.158263
     8  H    0.156259
     9  H    0.152834
    10  H    0.174451
    11  C   -0.296574
    12  C   -0.299883
    13  C   -0.475464
    14  H    0.140307
    15  H    0.152400
    16  H    0.151542
    17  H    0.154243
    18  H    0.156632
    19  H    0.152244
    20  H    0.161458
    21  C   -0.170600
    22  C   -0.219085
    23  C   -0.170083
    24  C    0.159405
    25  C   -0.181613
    26  C   -0.222098
    27  H    0.225512
    28  H    0.223395
    29  H    0.275521
    30  H    0.289851
    31  H    0.222931
    32  N    0.487285
    33  O   -0.460798
    34  O   -0.460332
 Sum of Mulliken charges =  -0.00000

 Dipole moment (field-independent basis, Debye):
    X=              1.0778    Y=             -4.7334    Z=              1.4625  Tot=              5.0700
 Quadrupole moment (field-independent basis, Debye-Ang):
   XX=            -95.4443   YY=            -94.3320   ZZ=            -95.7651
   XY=             16.5048   XZ=             -4.6777   YZ=             -0.4864

 Normal termination of Gaussian 16 at Thu May  6 18:41:46 2021.
