 Gaussian 16, Revision A.03,
 Gaussian 16:  EM64L-G16RevA.03 25-Dec-2016

 -------------
 #p 6-31g* mp2
 -------------

 ------------------------------------------------------
 Input file generated by CHIRIPA (05-May-2021 14:57:23)
 ------------------------------------------------------
 Symbolic Z-matrix:
 Charge =  0 Multiplicity = 1

                         Standard orientation:
 ---------------------------------------------------------------------
 Center     Atomic      Atomic             Coordinates (Angstroms)
 Number     Number       Type             X           Y           Z
 ---------------------------------------------------------------------
      1          6           0       -3.843398    1.988571   -0.575042
      2          6           0       -2.562804    1.863517   -0.026441
      3          6           0       -2.036346    0.602154    0.267421
      4          6           0       -2.821446   -0.517971   -0.001327
      5          6           0       -4.100718   -0.426043   -0.547498
      6          6           0       -4.606922    0.845408   -0.833364
      7          1           0       -4.244496    2.972346   -0.800215
      8          1           0       -1.967587    2.749570    0.175227
      9          1           0       -1.047940    0.476517    0.692494
     10          1           0       -4.670298   -1.327662   -0.737446
     11          1           0       -5.601760    0.939506   -1.259376
     12          7           0       -2.274830   -1.858659    0.305539
     13          8           0       -2.986567   -2.829993    0.059412
     14          8           0       -1.145005   -1.912770    0.786376
     15          6           0        1.675108    2.326655    0.899079
     16          6           0        1.532884    1.097541    1.551437
     17          6           0        2.213161   -0.033656    1.090822
     18          6           0        3.031069    0.100791   -0.030000
     19          6           0        3.193293    1.311568   -0.701560
     20          6           0        2.503399    2.429565   -0.223357
     21          1           0        1.142917    3.200268    1.263726
     22          1           0        0.890300    1.014668    2.423368
     23          1           0        2.121164   -0.997390    1.576796
     24          1           0        3.841004    1.363076   -1.568298
     25          1           0        2.615750    3.382833   -0.731986
     26          7           0        3.756339   -1.089769   -0.526941
     27          8           0        4.470878   -0.945062   -1.516451
     28          8           0        3.596533   -2.145093    0.082476
 ---------------------------------------------------------------------

 SCF Done:  E(RHF) =  -868.337033931     A.U. after   16 cycles
 E2 =    -0.2602090929D+01 EUMP2 =    -0.87093912485949D+03

 The electronic state is 1-A.
 Alpha  occ. eigenvalues --  -20.61056 -20.61031 -20.60589 -20.60546 -15.86100
 Alpha  occ. eigenvalues --  -15.85633 -11.31472 -11.31238 -11.28055 -11.28004
 Alpha  occ. eigenvalues --  -11.27917 -11.27852 -11.27832 -11.27799 -11.27152
 Alpha  occ. eigenvalues --  -11.27072 -11.26996 -11.26952  -1.60110  -1.59641
 Alpha  occ. eigenvalues --   -1.39668  -1.39184  -1.19672  -1.19496  -1.09068
 Alpha  occ. eigenvalues --   -1.08879  -1.05101  -1.04910  -0.95893  -0.95641
 Alpha  occ. eigenvalues --   -0.86513  -0.86302  -0.82737  -0.82456  -0.77803
 Alpha  occ. eigenvalues --   -0.77402  -0.72326  -0.71853  -0.71431  -0.70965
 Alpha  occ. eigenvalues --   -0.70797  -0.70629  -0.65338  -0.65167  -0.65143
 Alpha  occ. eigenvalues --   -0.64897  -0.62511  -0.62160  -0.55617  -0.55509
 Alpha  occ. eigenvalues --   -0.53492  -0.53406  -0.53036  -0.52883  -0.49076
 Alpha  occ. eigenvalues --   -0.49063  -0.48639  -0.48578  -0.45069  -0.44534
 Alpha  occ. eigenvalues --   -0.37665  -0.37567  -0.36687  -0.36493
 Alpha virt. eigenvalues --    0.04767   0.05067   0.10939   0.11002   0.16213
 Alpha virt. eigenvalues --    0.16382   0.19941   0.22017   0.25949   0.26672
 Alpha virt. eigenvalues --    0.28274   0.29354   0.30118   0.31530   0.32547

 Mulliken charges:
               1
     1  C   -0.170040
     2  C   -0.223263
     3  C   -0.177265
     4  C    0.156766
     5  C   -0.168926
     6  C   -0.219228
     7  H    0.225312
     8  H    0.215915
     9  H    0.285230
    10  H    0.277080
    11  H    0.224548
    12  N    0.488190
    13  O   -0.456925
    14  O   -0.464205
    15  C   -0.174992
    16  C   -0.238283
    17  C   -0.158123
    18  C    0.157542
    19  C   -0.169088
    20  C   -0.218783
    21  H    0.220550
    22  H    0.226637
    23  H    0.289165
    24  H    0.276805
    25  H    0.222344
    26  N    0.488046
    27  O   -0.462211
    28  O   -0.452800
 Sum of Mulliken charges =  -0.00000

 Dipole moment (field-independent basis, Debye):
    X=             -4.3288    Y=              8.5581    Z=              0.6393  Tot=              9.6119
 Quadrupole moment (field-independent basis, Debye-Ang):
   XX=           -105.1185   YY=           -107.7095   ZZ=           -102.7738
   XY=              3.1369   XZ=              8.7739   YZ=             -1.1725

 Normal termination of Gaussian 16 at Fri May  7 00:18:45 2021.
