 Gaussian 16, Revision A.03,
 Gaussian 16:  EM64L-G16RevA.03 25-Dec-2016

 -------------
 #p 6-31g* mp2
 -------------

 ------------------------------------------------------
 Input file generated by CHIRIPA (05-May-2021 14:55:22)
 ------------------------------------------------------
 Symbolic Z-matrix:
 Charge =  0 Multiplicity = 1

                         Standard orientation:
 ---------------------------------------------------------------------
 Center     Atomic      Atomic             Coordinates (Angstroms)
 Number     Number       Type             X           Y           Z
 ---------------------------------------------------------------------
      1          6           0       -1.992441    1.962386    0.812231
      2          6           0       -1.932516    1.497532   -0.505662
      3          6           0       -2.690585    0.392415   -0.903904
      4          6           0       -3.501515   -0.226668    0.046054
      5          6           0       -3.582723    0.212780    1.366501
      6          6           0       -2.815901    1.319660    1.742466
      7          1           0       -1.400155    2.821552    1.112942
      8          1           0       -1.293886    1.994713   -1.230235
      9          1           0       -2.663168    0.011630   -1.917644
     10          1           0       -4.228604   -0.303575    2.066239
     11          1           0       -2.864427    1.678480    2.766643
     12          7           0       -4.308682   -1.397538   -0.363755
     13          8           0       -5.015292   -1.925441    0.492199
     14          8           0       -4.219444   -1.765194   -1.533158
     15          6           0        5.036608   -0.175557   -0.245693
     16          6           0        5.497121   -1.229114    0.762240
     17          6           0        6.949548   -1.656493    0.548705
     18          1           0        5.157690   -0.572749   -1.262808
     19          1           0        5.692735    0.702856   -0.173000
     20          1           0        4.839472   -2.104726    0.688631
     21          1           0        5.374749   -0.829440    1.777081
     22          1           0        7.621685   -0.797419    0.642652
     23          1           0        7.083366   -2.079951   -0.451983
     24          1           0        7.257939   -2.410107    1.280019
     25          6           0        3.586711    0.261814   -0.045110
     26          6           0        3.126198    1.315371   -1.053044
     27          6           0        1.673772    1.742749   -0.839509
     28          1           0        2.930585   -0.616598   -0.117804
     29          1           0        3.465630    0.659005    0.972005
     30          1           0        3.248570    0.915697   -2.067885
     31          1           0        3.783848    2.190983   -0.979434
     32          1           0        1.539954    2.166208    0.161179
     33          1           0        1.001635    0.883676   -0.933455
     34          1           0        1.365379    2.496364   -1.570822
 ---------------------------------------------------------------------

 SCF Done:  E(RHF) =  -669.535108740     A.U. after   15 cycles
 E2 =    -0.2091715106D+01 EUMP2 =    -0.67162682384603D+03

 The electronic state is 1-A.
 Alpha  occ. eigenvalues --  -20.60726 -20.60721 -15.85778 -11.31131 -11.27690
 Alpha  occ. eigenvalues --  -11.27673 -11.27408 -11.26711 -11.26635 -11.22273
 Alpha  occ. eigenvalues --  -11.22040 -11.21907 -11.21891 -11.21755 -11.21313
 Alpha  occ. eigenvalues --   -1.59802  -1.39356  -1.19295  -1.08917  -1.08688
 Alpha  occ. eigenvalues --   -1.04699  -1.04058  -0.96543  -0.95527  -0.87591
 Alpha  occ. eigenvalues --   -0.86075  -0.82362  -0.80144  -0.78693  -0.77408
 Alpha  occ. eigenvalues --   -0.71996  -0.71125  -0.70396  -0.65545  -0.64942
 Alpha  occ. eigenvalues --   -0.64700  -0.62069  -0.61440  -0.59927  -0.58124
 Alpha  occ. eigenvalues --   -0.55849  -0.55168  -0.53410  -0.53162  -0.52827
 Alpha  occ. eigenvalues --   -0.52622  -0.50455  -0.48754  -0.48753  -0.48437
 Alpha  occ. eigenvalues --   -0.47138  -0.46246  -0.46142  -0.44765  -0.44307
 Alpha  occ. eigenvalues --   -0.37251  -0.36271
 Alpha virt. eigenvalues --    0.05102   0.11305   0.16550   0.20703   0.22483
 Alpha virt. eigenvalues --    0.23899   0.26000   0.26164   0.26941   0.27708
 Alpha virt. eigenvalues --    0.28794   0.29516   0.30985   0.31684   0.32159

 Mulliken charges:
               1
     1  C   -0.172174
     2  C   -0.216674
     3  C   -0.174377
     4  C    0.158896
     5  C   -0.171319
     6  C   -0.218600
     7  H    0.225752
     8  H    0.229571
     9  H    0.275229
    10  H    0.275263
    11  H    0.223032
    12  N    0.488061
    13  O   -0.460613
    14  O   -0.460686
    15  C   -0.298823
    16  C   -0.300094
    17  C   -0.476000
    18  H    0.150912
    19  H    0.149670
    20  H    0.153431
    21  H    0.151724
    22  H    0.155148
    23  H    0.155998
    24  H    0.161422
    25  C   -0.299016
    26  C   -0.299989
    27  C   -0.481820
    28  H    0.152137
    29  H    0.148995
    30  H    0.154505
    31  H    0.153069
    32  H    0.152120
    33  H    0.160681
    34  H    0.154570
 Sum of Mulliken charges =  -0.00000

 Dipole moment (field-independent basis, Debye):
    X=              2.9949    Y=              4.0817    Z=              1.4513  Tot=              5.2665
 Quadrupole moment (field-independent basis, Debye-Ang):
   XX=           -115.3773   YY=            -97.0818   ZZ=            -90.0336
   XY=            -14.5723   XZ=             -6.7243   YZ=              0.0191

 Normal termination of Gaussian 16 at Thu May  6 19:12:36 2021.
