 Gaussian 16, Revision A.03,
 Gaussian 16:  EM64L-G16RevA.03 25-Dec-2016

 -------------
 #p 6-31g* mp2
 -------------

 ------------------------------------------------------
 Input file generated by CHIRIPA (05-May-2021 14:55:23)
 ------------------------------------------------------
 Symbolic Z-matrix:
 Charge =  0 Multiplicity = 1

                         Standard orientation:
 ---------------------------------------------------------------------
 Center     Atomic      Atomic             Coordinates (Angstroms)
 Number     Number       Type             X           Y           Z
 ---------------------------------------------------------------------
      1          6           0       -0.397532   -0.853721    1.107329
      2          6           0       -1.063141    0.328571    1.447435
      3          6           0       -2.344937    0.588970    0.953735
      4          6           0       -2.934066   -0.359059    0.118595
      5          6           0       -2.296638   -1.546284   -0.238437
      6          6           0       -1.015316   -1.785732    0.266960
      7          1           0        0.598014   -1.047867    1.495390
      8          1           0       -0.585802    1.054181    2.099878
      9          1           0       -2.882937    1.496073    1.200996
     10          1           0       -2.798187   -2.250660   -0.890911
     11          1           0       -0.500776   -2.704773    0.001148
     12          7           0       -4.290795   -0.094476   -0.410254
     13          8           0       -4.788110   -0.945688   -1.144253
     14          8           0       -4.831196    0.959105   -0.080754
     15          6           0        3.799426   -0.130994   -0.501417
     16          6           0        5.090444   -0.464021    0.247148
     17          6           0        5.738954   -1.760001   -0.240363
     18          1           0        3.091258   -0.962964   -0.386222
     19          1           0        4.016649   -0.051884   -1.575638
     20          1           0        4.871113   -0.541115    1.319793
     21          1           0        5.795551    0.368921    0.130318
     22          1           0        5.986026   -1.690506   -1.304659
     23          1           0        5.056335   -2.605711   -0.108426
     24          1           0        6.660352   -1.978941    0.308226
     25          6           0        3.139353    1.161817   -0.025317
     26          6           0        1.848334    1.494844   -0.773883
     27          6           0        1.199826    2.790824   -0.286372
     28          1           0        2.922131    1.082707    1.048904
     29          1           0        3.847522    1.993786   -0.140512
     30          1           0        1.143229    0.661902   -0.657052
     31          1           0        2.067666    1.571938   -1.846528
     32          1           0        1.882443    3.636535   -0.418308
     33          1           0        0.952754    2.721328    0.777924
     34          1           0        0.278428    3.009764   -0.834961
 ---------------------------------------------------------------------

 SCF Done:  E(RHF) =  -669.534311965     A.U. after   15 cycles
 E2 =    -0.2094034930D+01 EUMP2 =    -0.67162834689418D+03

 The electronic state is 1-A.
 Alpha  occ. eigenvalues --  -20.60811 -20.60805 -15.85866 -11.31257 -11.27833
 Alpha  occ. eigenvalues --  -11.27821 -11.27578 -11.26860 -11.26835 -11.22324
 Alpha  occ. eigenvalues --  -11.22200 -11.22138 -11.22041 -11.21721 -11.21668
 Alpha  occ. eigenvalues --   -1.59886  -1.39438  -1.19447  -1.09171  -1.08831
 Alpha  occ. eigenvalues --   -1.04850  -1.04173  -0.96653  -0.95669  -0.87667
 Alpha  occ. eigenvalues --   -0.86246  -0.82494  -0.80238  -0.78969  -0.77528
 Alpha  occ. eigenvalues --   -0.72084  -0.71210  -0.70575  -0.65852  -0.65093
 Alpha  occ. eigenvalues --   -0.64835  -0.62231  -0.61573  -0.60006  -0.58249
 Alpha  occ. eigenvalues --   -0.56046  -0.55316  -0.53338  -0.53137  -0.53083
 Alpha  occ. eigenvalues --   -0.52899  -0.50603  -0.48845  -0.48836  -0.48546
 Alpha  occ. eigenvalues --   -0.47285  -0.46497  -0.46460  -0.44838  -0.44455
 Alpha  occ. eigenvalues --   -0.37326  -0.36429
 Alpha virt. eigenvalues --    0.04971   0.11120   0.16343   0.19026   0.22673
 Alpha virt. eigenvalues --    0.23777   0.25377   0.25610   0.26951   0.28355
 Alpha virt. eigenvalues --    0.29219   0.30793   0.31395   0.31460   0.31640

 Mulliken charges:
               1
     1  C   -0.175752
     2  C   -0.213573
     3  C   -0.171538
     4  C    0.158563
     5  C   -0.170522
     6  C   -0.218486
     7  H    0.228653
     8  H    0.224921
     9  H    0.276243
    10  H    0.276036
    11  H    0.223975
    12  N    0.488060
    13  O   -0.460230
    14  O   -0.460121
    15  C   -0.297733
    16  C   -0.299763
    17  C   -0.475576
    18  H    0.141472
    19  H    0.153836
    20  H    0.149227
    21  H    0.154970
    22  H    0.157418
    23  H    0.152721
    24  H    0.162442
    25  C   -0.298405
    26  C   -0.308607
    27  C   -0.473678
    28  H    0.140291
    29  H    0.153434
    30  H    0.160480
    31  H    0.154705
    32  H    0.157232
    33  H    0.144217
    34  H    0.165086
 Sum of Mulliken charges =  -0.00000

 Dipole moment (field-independent basis, Debye):
    X=              4.7887    Y=             -0.9213    Z=              1.7708  Tot=              5.1880
 Quadrupole moment (field-independent basis, Debye-Ang):
   XX=           -123.1698   YY=            -90.9954   ZZ=            -93.3057
   XY=              1.7519   XZ=             -5.5060   YZ=              0.9516

 Normal termination of Gaussian 16 at Wed May  5 20:44:53 2021.
