 Gaussian 16, Revision A.03,
 Gaussian 16:  EM64L-G16RevA.03 25-Dec-2016

 -------------
 #p 6-31g* mp2
 -------------

 ------------------------------------------------------
 Input file generated by CHIRIPA (05-May-2021 14:53:17)
 ------------------------------------------------------
 Symbolic Z-matrix:
 Charge =  0 Multiplicity = 1

                         Standard orientation:
 ---------------------------------------------------------------------
 Center     Atomic      Atomic             Coordinates (Angstroms)
 Number     Number       Type             X           Y           Z
 ---------------------------------------------------------------------
      1          6           0        2.925752   -0.796946    0.523024
      2          6           0        1.822324   -0.128866    1.344061
      3          6           0        0.649125   -1.066405    1.631148
      4          1           0        2.502018   -1.157123   -0.424428
      5          1           0        3.287357   -1.684185    1.061025
      6          1           0        1.463867    0.757634    0.805319
      7          1           0        2.248776    0.229932    2.289586
      8          1           0        0.986315   -1.945587    2.189667
      9          1           0        0.196946   -1.414887    0.696967
     10          1           0       -0.128114   -0.568457    2.219202
     11          6           0        4.105462    0.127669    0.227899
     12          6           0        5.208890   -0.540411   -0.593137
     13          6           0        6.382089    0.397128   -0.880225
     14          1           0        3.743858    1.014908   -0.310101
     15          1           0        4.529196    0.487846    1.175352
     16          1           0        4.782438   -0.899209   -1.538663
     17          1           0        5.567347   -1.426911   -0.054395
     18          1           0        6.834268    0.745610    0.053957
     19          1           0        6.044899    1.276310   -1.438744
     20          1           0        7.159328   -0.100820   -1.468279
     21          6           0       -1.534607    2.469473   -0.146194
     22          6           0       -0.955205    1.397318   -0.832704
     23          6           0       -1.617660    0.169324   -0.920628
     24          6           0       -2.863736    0.047971   -0.307554
     25          6           0       -3.467104    1.097552    0.383547
     26          6           0       -2.786501    2.316437    0.458674
     27          1           0       -1.012948    3.419871   -0.082862
     28          1           0        0.016920    1.513289   -1.303416
     29          1           0       -1.192130   -0.677146   -1.445824
     30          1           0       -4.437350    0.951617    0.842612
     31          1           0       -3.238887    3.147364    0.992484
     32          7           0       -3.574653   -1.247231   -0.393862
     33          8           0       -4.671447   -1.328535    0.154838
     34          8           0       -3.021617   -2.156578   -1.008575
 ---------------------------------------------------------------------

 SCF Done:  E(RHF) =  -669.534330255     A.U. after   15 cycles
 E2 =    -0.2093785530D+01 EUMP2 =    -0.67162811578482D+03

 The electronic state is 1-A.
 Alpha  occ. eigenvalues --  -20.60791 -20.60785 -15.85843 -11.31214 -11.27809
 Alpha  occ. eigenvalues --  -11.27797 -11.27552 -11.26814 -11.26802 -11.21975
 Alpha  occ. eigenvalues --  -11.21942 -11.21849 -11.21767 -11.21420 -11.21181
 Alpha  occ. eigenvalues --   -1.59862  -1.39417  -1.19410  -1.08838  -1.08786
 Alpha  occ. eigenvalues --   -1.04835  -1.03852  -0.96300  -0.95627  -0.87316
 Alpha  occ. eigenvalues --   -0.86216  -0.82464  -0.79928  -0.78649  -0.77512
 Alpha  occ. eigenvalues --   -0.72063  -0.71184  -0.70525  -0.65509  -0.65061
 Alpha  occ. eigenvalues --   -0.64822  -0.62231  -0.61243  -0.59672  -0.57910
 Alpha  occ. eigenvalues --   -0.55687  -0.55305  -0.53187  -0.52941  -0.52808
 Alpha  occ. eigenvalues --   -0.52700  -0.50224  -0.48824  -0.48817  -0.48233
 Alpha  occ. eigenvalues --   -0.46985  -0.46176  -0.46137  -0.44814  -0.44130
 Alpha  occ. eigenvalues --   -0.37354  -0.36341
 Alpha virt. eigenvalues --    0.05019   0.11111   0.16462   0.20022   0.22839
 Alpha virt. eigenvalues --    0.24032   0.25626   0.26154   0.27493   0.28445
 Alpha virt. eigenvalues --    0.28490   0.30775   0.31379   0.31452   0.32191

 Mulliken charges:
               1
     1  C   -0.298314
     2  C   -0.302601
     3  C   -0.474193
     4  H    0.145840
     5  H    0.153453
     6  H    0.145034
     7  H    0.152732
     8  H    0.157490
     9  H    0.155117
    10  H    0.161591
    11  C   -0.297097
    12  C   -0.299820
    13  C   -0.475729
    14  H    0.143004
    15  H    0.151148
    16  H    0.151711
    17  H    0.154241
    18  H    0.155829
    19  H    0.153577
    20  H    0.161861
    21  C   -0.171584
    22  C   -0.214946
    23  C   -0.169829
    24  C    0.159901
    25  C   -0.171158
    26  C   -0.218664
    27  H    0.226025
    28  H    0.223548
    29  H    0.275052
    30  H    0.275818
    31  H    0.223625
    32  N    0.488451
    33  O   -0.460199
    34  O   -0.460915
 Sum of Mulliken charges =  -0.00000

 Dipole moment (field-independent basis, Debye):
    X=              2.4811    Y=              4.5177    Z=              0.3518  Tot=              5.1662
 Quadrupole moment (field-independent basis, Debye-Ang):
   XX=           -106.9641   YY=            -94.3303   ZZ=            -93.4456
   XY=            -15.5660   XZ=             -3.2707   YZ=             -0.3744

 Normal termination of Gaussian 16 at Thu May  6 10:42:18 2021.
