 Gaussian 16, Revision A.03,
 Gaussian 16:  EM64L-G16RevA.03 25-Dec-2016

 -------------
 #p 6-31g* mp2
 -------------

 ------------------------------------------------------
 Input file generated by CHIRIPA (05-May-2021 14:51:12)
 ------------------------------------------------------
 Symbolic Z-matrix:
 Charge =  0 Multiplicity = 1

                         Standard orientation:
 ---------------------------------------------------------------------
 Center     Atomic      Atomic             Coordinates (Angstroms)
 Number     Number       Type             X           Y           Z
 ---------------------------------------------------------------------
      1          6           0        4.276404    0.543083    0.075519
      2          6           0        3.945641    2.032557   -0.024731
      3          6           0        5.108331    2.926676    0.407122
      4          1           0        4.558788    0.305535    1.110302
      5          1           0        5.156506    0.327412   -0.546012
      6          1           0        3.065589    2.245094    0.595715
      7          1           0        3.663827    2.266548   -1.059354
      8          1           0        5.988010    2.743653   -0.218393
      9          1           0        5.386374    2.722078    1.446080
     10          1           0        4.850202    3.987289    0.327567
     11          6           0        3.123919   -0.363583   -0.352807
     12          6           0        3.454681   -1.853056   -0.252557
     13          6           0        2.291991   -2.747175   -0.684410
     14          1           0        2.243817   -0.147911    0.268724
     15          1           0        2.841535   -0.126035   -1.387590
     16          1           0        3.736496   -2.087047    0.782066
     17          1           0        4.334733   -2.065594   -0.873003
     18          1           0        2.013948   -2.542578   -1.723368
     19          1           0        1.412312   -2.564153   -0.058896
     20          1           0        2.550120   -3.807788   -0.604855
     21          6           0       -3.104086   -0.373459    0.522877
     22          6           0       -2.747606   -1.804386    0.118702
     23          6           0       -1.553113   -2.358086    0.896132
     24          1           0       -2.230416    0.273719    0.365377
     25          1           0       -3.322254   -0.347522    1.599504
     26          1           0       -2.531521   -1.827875   -0.957111
     27          1           0       -3.622286   -2.448196    0.277002
     28          1           0       -1.762029   -2.363654    1.970806
     29          1           0       -0.665067   -1.739808    0.729682
     30          1           0       -1.315555   -3.382078    0.591393
     31          6           0       -4.296237    0.193959   -0.245589
     32          6           0       -4.652716    1.624885    0.158587
     33          6           0       -5.847208    2.178586   -0.618844
     34          1           0       -4.078067    0.168022   -1.322215
     35          1           0       -5.169906   -0.453219   -0.088089
     36          1           0       -3.778037    2.268696    0.000286
     37          1           0       -4.868801    1.648374    1.234398
     38          1           0       -6.735256    1.560308   -0.452394
     39          1           0       -5.638293    2.184154   -1.693519
     40          1           0       -6.084768    3.202578   -0.314105
 ---------------------------------------------------------------------

 SCF Done:  E(RHF) =  -470.733130289     A.U. after   11 cycles
 E2 =    -0.1582503233D+01 EUMP2 =    -0.47231563352143D+03

 The electronic state is 1-A.
 Alpha  occ. eigenvalues --  -11.21608 -11.21607 -11.21604 -11.21564 -11.21411
 Alpha  occ. eigenvalues --  -11.21408 -11.21351 -11.21349 -11.21087 -11.21074
 Alpha  occ. eigenvalues --  -11.21072 -11.20957  -1.08439  -1.08420  -1.03550
 Alpha  occ. eigenvalues --   -1.03497  -0.96021  -0.95929  -0.87060  -0.86927
 Alpha  occ. eigenvalues --   -0.79654  -0.79524  -0.78262  -0.78224  -0.65100
 Alpha  occ. eigenvalues --   -0.65024  -0.61049  -0.60815  -0.59358  -0.59326
 Alpha  occ. eigenvalues --   -0.57614  -0.57562  -0.55460  -0.55093  -0.52735
 Alpha  occ. eigenvalues --   -0.52636  -0.52450  -0.52314  -0.50122  -0.49715
 Alpha  occ. eigenvalues --   -0.47980  -0.47826  -0.46757  -0.46465  -0.45842
 Alpha  occ. eigenvalues --   -0.45755  -0.45732  -0.45598  -0.43791  -0.43762
 Alpha virt. eigenvalues --    0.21669   0.23065   0.23570   0.24813   0.25932
 Alpha virt. eigenvalues --    0.26833   0.27141   0.27404   0.27875   0.29017
 Alpha virt. eigenvalues --    0.30616   0.31540   0.31718   0.31833   0.31992

 Mulliken charges:
               1
     1  C   -0.298243
     2  C   -0.299672
     3  C   -0.475703
     4  H    0.149815
     5  H    0.149696
     6  H    0.151833
     7  H    0.151791
     8  H    0.155208
     9  H    0.155260
    10  H    0.160221
    11  C   -0.298779
    12  C   -0.299246
    13  C   -0.483408
    14  H    0.148840
    15  H    0.149438
    16  H    0.151884
    17  H    0.151647
    18  H    0.154147
    19  H    0.164642
    20  H    0.159753
    21  C   -0.298736
    22  C   -0.299474
    23  C   -0.480193
    24  H    0.149905
    25  H    0.149393
    26  H    0.152643
    27  H    0.152034
    28  H    0.155128
    29  H    0.158144
    30  H    0.161870
    31  C   -0.298321
    32  C   -0.299685
    33  C   -0.475712
    34  H    0.149673
    35  H    0.149672
    36  H    0.152006
    37  H    0.151870
    38  H    0.155178
    39  H    0.155225
    40  H    0.160257
 Sum of Mulliken charges =  -0.00000

 Dipole moment (field-independent basis, Debye):
    X=             -0.0291    Y=             -0.0091    Z=              0.0091  Tot=              0.0318
 Quadrupole moment (field-independent basis, Debye-Ang):
   XX=            -85.5920   YY=            -85.5545   ZZ=            -83.6534
   XY=              0.1880   XZ=             -1.3688   YZ=             -0.2720

 Normal termination of Gaussian 16 at Thu May  6 02:19:15 2021.
