 Gaussian 16, Revision A.03,
 Gaussian 16:  EM64L-G16RevA.03 25-Dec-2016

 -------------
 #p 6-31g* mp2
 -------------

 ------------------------------------------------------
 Input file generated by CHIRIPA (05-May-2021 14:53:16)
 ------------------------------------------------------
 Symbolic Z-matrix:
 Charge =  0 Multiplicity = 1

                         Standard orientation:
 ---------------------------------------------------------------------
 Center     Atomic      Atomic             Coordinates (Angstroms)
 Number     Number       Type             X           Y           Z
 ---------------------------------------------------------------------
      1          6           0        2.410116    1.001968   -0.777876
      2          6           0        1.923633    2.185786    0.058720
      3          6           0        1.030889    3.141895   -0.732897
      4          1           0        2.958768    1.379485   -1.651608
      5          1           0        1.540255    0.455122   -1.167359
      6          1           0        2.794152    2.729428    0.447649
      7          1           0        1.376240    1.805402    0.930664
      8          1           0        0.144750    2.619843   -1.108157
      9          1           0        1.570717    3.549119   -1.593916
     10          1           0        0.694452    3.980783   -0.115696
     11          6           0        3.303684    0.037225   -0.000358
     12          6           0        3.790167   -1.146593   -0.836955
     13          6           0        4.682911   -2.102702   -0.045337
     14          1           0        4.173545    0.584071    0.389125
     15          1           0        2.755033   -0.340292    0.873374
     16          1           0        4.337560   -0.766209   -1.708898
     17          1           0        2.919649   -1.690235   -1.225884
     18          1           0        4.143083   -2.509926    0.815682
     19          1           0        5.569051   -1.580650    0.329923
     20          1           0        5.019348   -2.941590   -0.662538
     21          6           0       -0.160232   -0.376834    1.743805
     22          6           0       -1.063455    0.689968    1.795221
     23          6           0       -2.214620    0.684494    1.001912
     24          6           0       -2.432240   -0.408748    0.164802
     25          6           0       -1.551216   -1.486558    0.091230
     26          6           0       -0.406561   -1.459782    0.893473
     27          1           0        0.731492   -0.364307    2.363537
     28          1           0       -0.874725    1.532320    2.454666
     29          1           0       -2.930525    1.497202    1.021997
     30          1           0       -1.766449   -2.312346   -0.575979
     31          1           0        0.293148   -2.289655    0.851477
     32          7           0       -3.647481   -0.425818   -0.679767
     33          8           0       -3.816327   -1.400711   -1.408954
     34          8           0       -4.408129    0.536017   -0.596563
 ---------------------------------------------------------------------

 SCF Done:  E(RHF) =  -669.533640208     A.U. after   15 cycles
 E2 =    -0.2095841703D+01 EUMP2 =    -0.67162948191097D+03

 The electronic state is 1-A.
 Alpha  occ. eigenvalues --  -20.60851 -20.60845 -15.85908 -11.31314 -11.27902
 Alpha  occ. eigenvalues --  -11.27888 -11.27626 -11.26917 -11.26892 -11.22303
 Alpha  occ. eigenvalues --  -11.22136 -11.22026 -11.21836 -11.21797 -11.21427
 Alpha  occ. eigenvalues --   -1.59927  -1.39479  -1.19510  -1.09111  -1.08830
 Alpha  occ. eigenvalues --   -1.04918  -1.04100  -0.96555  -0.95723  -0.87565
 Alpha  occ. eigenvalues --   -0.86313  -0.82548  -0.80187  -0.78873  -0.77578
 Alpha  occ. eigenvalues --   -0.72126  -0.71252  -0.70646  -0.65776  -0.65164
 Alpha  occ. eigenvalues --   -0.64838  -0.62284  -0.61514  -0.59928  -0.58175
 Alpha  occ. eigenvalues --   -0.55905  -0.55374  -0.53285  -0.53166  -0.53008
 Alpha  occ. eigenvalues --   -0.52955  -0.50489  -0.48888  -0.48877  -0.48498
 Alpha  occ. eigenvalues --   -0.47250  -0.46412  -0.46297  -0.44876  -0.44362
 Alpha  occ. eigenvalues --   -0.37355  -0.36472
 Alpha virt. eigenvalues --    0.04914   0.10968   0.16300   0.19495   0.22870
 Alpha virt. eigenvalues --    0.23414   0.25590   0.26200   0.27053   0.27718
 Alpha virt. eigenvalues --    0.29779   0.30631   0.30747   0.31194   0.31769

 Mulliken charges:
               1
     1  C   -0.299758
     2  C   -0.300648
     3  C   -0.477041
     4  H    0.152151
     5  H    0.154672
     6  H    0.150340
     7  H    0.146948
     8  H    0.159313
     9  H    0.157530
    10  H    0.157330
    11  C   -0.297957
    12  C   -0.300771
    13  C   -0.475188
    14  H    0.151341
    15  H    0.137224
    16  H    0.156332
    17  H    0.150148
    18  H    0.148906
    19  H    0.157591
    20  H    0.163205
    21  C   -0.169113
    22  C   -0.217018
    23  C   -0.171734
    24  C    0.157846
    25  C   -0.171661
    26  C   -0.219279
    27  H    0.228205
    28  H    0.225221
    29  H    0.276581
    30  H    0.276312
    31  H    0.224858
    32  N    0.488119
    33  O   -0.460106
    34  O   -0.459900
 Sum of Mulliken charges =  -0.00000

 Dipole moment (field-independent basis, Debye):
    X=              4.2314    Y=              0.0571    Z=              2.8921  Tot=              5.1256
 Quadrupole moment (field-independent basis, Debye-Ang):
   XX=           -115.5356   YY=            -91.4904   ZZ=            -93.7294
   XY=             -2.4354   XZ=             -8.0395   YZ=              0.8535

 Normal termination of Gaussian 16 at Wed May  5 17:13:17 2021.
