 Gaussian 16, Revision A.03,
 Gaussian 16:  EM64L-G16RevA.03 25-Dec-2016

 -------------
 #p 6-31g* mp2
 -------------

 ------------------------------------------------------
 Input file generated by CHIRIPA (05-May-2021 14:57:26)
 ------------------------------------------------------
 Symbolic Z-matrix:
 Charge =  0 Multiplicity = 1

                         Standard orientation:
 ---------------------------------------------------------------------
 Center     Atomic      Atomic             Coordinates (Angstroms)
 Number     Number       Type             X           Y           Z
 ---------------------------------------------------------------------
      1          6           0        5.127065   -2.059275   -0.311015
      2          6           0        5.558462   -0.843588   -0.851870
      3          6           0        4.855086    0.337084   -0.595310
      4          6           0        3.719459    0.265268    0.209974
      5          6           0        3.264488   -0.930595    0.763331
      6          6           0        3.983471   -2.098829    0.493440
      7          1           0        5.679527   -2.971619   -0.515495
      8          1           0        6.446245   -0.809873   -1.476971
      9          1           0        5.166860    1.291777   -1.001236
     10          1           0        2.375835   -0.932620    1.382773
     11          1           0        3.646116   -3.041527    0.914815
     12          7           0        2.966565    1.508609    0.488638
     13          8           0        1.969172    1.418675    1.201209
     14          8           0        3.388095    2.549531   -0.010792
     15          6           0       -1.464811    0.651226   -0.612605
     16          6           0       -1.769380   -0.702801   -0.438335
     17          6           0       -3.083880   -1.108536   -0.189302
     18          6           0       -4.073512   -0.129143   -0.120681
     19          6           0       -3.801690    1.227601   -0.289934
     20          6           0       -2.480147    1.610415   -0.537979
     21          1           0       -0.440939    0.957508   -0.805676
     22          1           0       -0.982889   -1.449914   -0.495761
     23          1           0       -3.347576   -2.149989   -0.050528
     24          1           0       -4.607119    1.949236   -0.227104
     25          1           0       -2.246539    2.662682   -0.672914
     26          7           0       -5.468842   -0.546544    0.142436
     27          8           0       -6.322629    0.335826    0.198176
     28          8           0       -5.682294   -1.748168    0.287945
 ---------------------------------------------------------------------

 SCF Done:  E(RHF) =  -868.339088327     A.U. after   16 cycles
 E2 =    -0.2598683508D+01 EUMP2 =    -0.87093777183589D+03

 The electronic state is 1-A.
 Alpha  occ. eigenvalues --  -20.61862 -20.61837 -20.60356 -20.60346 -15.86875
 Alpha  occ. eigenvalues --  -15.85406 -11.32077 -11.30638 -11.28635 -11.28593
 Alpha  occ. eigenvalues --  -11.28295 -11.27588 -11.27556 -11.27265 -11.27187
 Alpha  occ. eigenvalues --  -11.26814 -11.26227 -11.26082  -1.60928  -1.59433
 Alpha  occ. eigenvalues --   -1.40481  -1.38990  -1.20227  -1.18800  -1.09647
 Alpha  occ. eigenvalues --   -1.08188  -1.05598  -1.04201  -0.96509  -0.95048
 Alpha  occ. eigenvalues --   -0.87000  -0.85589  -0.83339  -0.81901  -0.78418
 Alpha  occ. eigenvalues --   -0.76992  -0.73086  -0.72261  -0.71626  -0.71312
 Alpha  occ. eigenvalues --   -0.70756  -0.69827  -0.65871  -0.65584  -0.64445
 Alpha  occ. eigenvalues --   -0.64204  -0.62942  -0.61567  -0.56081  -0.54604
 Alpha  occ. eigenvalues --   -0.53941  -0.53675  -0.52514  -0.52292  -0.49866
 Alpha  occ. eigenvalues --   -0.49836  -0.48388  -0.48372  -0.45903  -0.44427
 Alpha  occ. eigenvalues --   -0.38190  -0.37200  -0.36709  -0.35818
 Alpha virt. eigenvalues --    0.04070   0.05573   0.10445   0.11848   0.15597
 Alpha virt. eigenvalues --    0.17116   0.20563   0.21989   0.26440   0.27266
 Alpha virt. eigenvalues --    0.28073   0.28792   0.30443   0.31379   0.31855

 Mulliken charges:
               1
     1  C   -0.169973
     2  C   -0.218237
     3  C   -0.170701
     4  C    0.156610
     5  C   -0.175136
     6  C   -0.218579
     7  H    0.228785
     8  H    0.226429
     9  H    0.277107
    10  H    0.275065
    11  H    0.225676
    12  N    0.485882
    13  O   -0.463407
    14  O   -0.456896
    15  C   -0.164574
    16  C   -0.220121
    17  C   -0.171529
    18  C    0.157398
    19  C   -0.171204
    20  C   -0.219221
    21  H    0.233175
    22  H    0.215807
    23  H    0.272025
    24  H    0.274513
    25  H    0.227186
    26  N    0.488300
    27  O   -0.461236
    28  O   -0.463145
 Sum of Mulliken charges =  -0.00000

 Dipole moment (field-independent basis, Debye):
    X=              7.9919    Y=             -2.8011    Z=             -1.9350  Tot=              8.6868
 Quadrupole moment (field-independent basis, Debye-Ang):
   XX=           -123.1943   YY=           -101.8219   ZZ=           -104.9144
   XY=            -22.7615   XZ=             -2.1912   YZ=             -3.2071

 Normal termination of Gaussian 16 at Thu May  6 03:34:03 2021.
