 Gaussian 16, Revision A.03,
 Gaussian 16:  EM64L-G16RevA.03 25-Dec-2016

 -------------
 #p 6-31g* mp2
 -------------

 ------------------------------------------------------
 Input file generated by CHIRIPA (05-May-2021 14:57:23)
 ------------------------------------------------------
 Symbolic Z-matrix:
 Charge =  0 Multiplicity = 1

                         Standard orientation:
 ---------------------------------------------------------------------
 Center     Atomic      Atomic             Coordinates (Angstroms)
 Number     Number       Type             X           Y           Z
 ---------------------------------------------------------------------
      1          6           0       -2.804745    2.215005    1.019935
      2          6           0       -4.166986    1.918628    0.906002
      3          6           0       -4.587006    0.732457    0.296797
      4          6           0       -3.613367   -0.138595   -0.189604
      5          6           0       -2.248714    0.128451   -0.091125
      6          6           0       -1.851637    1.320548    0.521886
      7          1           0       -2.487374    3.138753    1.494659
      8          1           0       -4.909405    2.611414    1.291885
      9          1           0       -5.635061    0.478091    0.195326
     10          1           0       -1.532057   -0.581759   -0.485360
     11          1           0       -0.793017    1.548106    0.608978
     12          7           0       -4.045879   -1.397477   -0.836557
     13          8           0       -3.168328   -2.148322   -1.256999
     14          8           0       -5.254245   -1.609507   -0.910946
     15          6           0        4.330017    1.072172   -2.024882
     16          6           0        5.130237    0.101532   -1.413304
     17          6           0        4.703751   -0.537191   -0.245105
     18          6           0        3.465909   -0.179197    0.286759
     19          6           0        2.645913    0.783904   -0.299186
     20          6           0        3.092590    1.409665   -1.466855
     21          1           0        4.669165    1.563314   -2.932161
     22          1           0        6.091698   -0.162579   -1.844446
     23          1           0        5.303209   -1.292131    0.248992
     24          1           0        1.692317    1.025996    0.154098
     25          1           0        2.469028    2.163110   -1.939650
     26          7           0        3.003720   -0.848524    1.523198
     27          8           0        1.909097   -0.515243    1.971931
     28          8           0        3.744830   -1.693750    2.020174
 ---------------------------------------------------------------------

 SCF Done:  E(RHF) =  -868.337261865     A.U. after   16 cycles
 E2 =    -0.2599557676D+01 EUMP2 =    -0.87093681954173D+03

 The electronic state is 1-A.
 Alpha  occ. eigenvalues --  -20.61319 -20.61282 -20.60594 -20.60586 -15.86356
 Alpha  occ. eigenvalues --  -15.85649 -11.31752 -11.31025 -11.28433 -11.28242
 Alpha  occ. eigenvalues --  -11.27992 -11.27612 -11.27604 -11.27382 -11.27351
 Alpha  occ. eigenvalues --  -11.27259 -11.26686 -11.26628  -1.60371  -1.59668
 Alpha  occ. eigenvalues --   -1.39930  -1.39221  -1.19905  -1.19212  -1.09280
 Alpha  occ. eigenvalues --   -1.08610  -1.05323  -1.04626  -0.96124  -0.95437
 Alpha  occ. eigenvalues --   -0.86716  -0.86028  -0.82962  -0.82277  -0.78032
 Alpha  occ. eigenvalues --   -0.77312  -0.72573  -0.71869  -0.71689  -0.71020
 Alpha  occ. eigenvalues --   -0.70989  -0.70325  -0.65558  -0.65343  -0.64872
 Alpha  occ. eigenvalues --   -0.64652  -0.62719  -0.61947  -0.55789  -0.55137
 Alpha  occ. eigenvalues --   -0.53625  -0.53439  -0.52941  -0.52711  -0.49345
 Alpha  occ. eigenvalues --   -0.49316  -0.48630  -0.48619  -0.45328  -0.44624
 Alpha  occ. eigenvalues --   -0.37850  -0.37196  -0.36919  -0.36216
 Alpha virt. eigenvalues --    0.04529   0.05235   0.10729   0.11435   0.16045
 Alpha virt. eigenvalues --    0.16714   0.18551   0.21993   0.24574   0.27282
 Alpha virt. eigenvalues --    0.28429   0.29048   0.30164   0.31143   0.32436

 Mulliken charges:
               1
     1  C   -0.171621
     2  C   -0.218625
     3  C   -0.170672
     4  C    0.158184
     5  C   -0.170166
     6  C   -0.219026
     7  H    0.225648
     8  H    0.223044
     9  H    0.275414
    10  H    0.276654
    11  H    0.223570
    12  N    0.488236
    13  O   -0.459745
    14  O   -0.461104
    15  C   -0.169996
    16  C   -0.217989
    17  C   -0.168942
    18  C    0.159395
    19  C   -0.177213
    20  C   -0.220174
    21  H    0.227995
    22  H    0.226136
    23  H    0.277906
    24  H    0.273718
    25  H    0.223396
    26  N    0.487388
    27  O   -0.465757
    28  O   -0.455654
 Sum of Mulliken charges =  -0.00000

 Dipole moment (field-independent basis, Debye):
    X=              3.3696    Y=              6.6951    Z=             -2.1041  Tot=              7.7850
 Quadrupole moment (field-independent basis, Debye-Ang):
   XX=            -95.3526   YY=           -106.3447   ZZ=           -109.3766
   XY=            -12.5636   XZ=            -24.5707   YZ=              0.3549

 Normal termination of Gaussian 16 at Fri May  7 04:56:08 2021.
