 Gaussian 16, Revision A.03,
 Gaussian 16:  EM64L-G16RevA.03 25-Dec-2016

 -------------
 #p 6-31g* mp2
 -------------

 ------------------------------------------------------
 Input file generated by CHIRIPA (05-May-2021 14:51:12)
 ------------------------------------------------------
 Symbolic Z-matrix:
 Charge =  0 Multiplicity = 1

                         Standard orientation:
 ---------------------------------------------------------------------
 Center     Atomic      Atomic             Coordinates (Angstroms)
 Number     Number       Type             X           Y           Z
 ---------------------------------------------------------------------
      1          6           0       -2.643406   -0.098862   -0.309530
      2          6           0       -1.585559   -1.185988   -0.116915
      3          6           0       -0.191541   -0.739186   -0.558360
      4          1           0       -2.669097    0.195464   -1.367669
      5          1           0       -2.347556    0.795263    0.256515
      6          1           0       -1.884012   -2.078274   -0.682040
      7          1           0       -1.562517   -1.477896    0.940854
      8          1           0        0.131236    0.136917    0.013356
      9          1           0       -0.192085   -0.466873   -1.618760
     10          1           0        0.549121   -1.531553   -0.411954
     11          6           0       -4.042199   -0.530515    0.127257
     12          6           0       -5.100047    0.556611   -0.065359
     13          6           0       -6.494065    0.109809    0.376087
     14          1           0       -4.338050   -1.424640   -0.438789
     15          1           0       -4.016508   -0.824841    1.185395
     16          1           0       -5.123088    0.848519   -1.123128
     17          1           0       -4.801594    1.448897    0.499767
     18          1           0       -6.493521   -0.162504    1.436486
     19          1           0       -6.816842   -0.766294   -0.195630
     20          1           0       -7.234726    0.902176    0.229681
     21          6           0        3.135367    0.957633    0.447544
     22          6           0        2.963194    2.146713   -0.498198
     23          6           0        2.548075    3.425664    0.229643
     24          1           0        2.193027    0.785685    0.985478
     25          1           0        3.887946    1.208703    1.207796
     26          1           0        2.212168    1.892962   -1.257267
     27          1           0        3.905997    2.315729   -1.034084
     28          1           0        3.299486    3.705987    0.974897
     29          1           0        1.596032    3.280817    0.750446
     30          1           0        2.430652    4.262993   -0.465306
     31          6           0        3.550239   -0.328255   -0.265270
     32          6           0        3.722411   -1.517336    0.680472
     33          6           0        4.137531   -2.796287   -0.047370
     34          1           0        2.797659   -0.579326   -1.025522
     35          1           0        4.492579   -0.156308   -0.803204
     36          1           0        2.779608   -1.686352    1.216357
     37          1           0        4.473437   -1.263585    1.439541
     38          1           0        5.089574   -2.651440   -0.568172
     39          1           0        3.386120   -3.076610   -0.792624
     40          1           0        4.254954   -3.633616    0.647579
 ---------------------------------------------------------------------

 SCF Done:  E(RHF) =  -470.732260940     A.U. after   11 cycles
 E2 =    -0.1584271475D+01 EUMP2 =    -0.47231653241488D+03

 The electronic state is 1-A.
 Alpha  occ. eigenvalues --  -11.21675 -11.21635 -11.21536 -11.21523 -11.21461
 Alpha  occ. eigenvalues --  -11.21399 -11.21280 -11.21211 -11.21163 -11.21097
 Alpha  occ. eigenvalues --  -11.21048 -11.21040  -1.08499  -1.08341  -1.03596
 Alpha  occ. eigenvalues --   -1.03475  -0.96084  -0.95892  -0.87082  -0.86938
 Alpha  occ. eigenvalues --   -0.79680  -0.79524  -0.78301  -0.78162  -0.65204
 Alpha  occ. eigenvalues --   -0.64953  -0.61043  -0.60902  -0.59372  -0.59287
 Alpha  occ. eigenvalues --   -0.57650  -0.57528  -0.55470  -0.55115  -0.52738
 Alpha  occ. eigenvalues --   -0.52629  -0.52479  -0.52323  -0.50083  -0.49780
 Alpha  occ. eigenvalues --   -0.48020  -0.47794  -0.46751  -0.46550  -0.45892
 Alpha  occ. eigenvalues --   -0.45807  -0.45627  -0.45507  -0.43802  -0.43703
 Alpha virt. eigenvalues --    0.20530   0.22993   0.23222   0.24722   0.26012
 Alpha virt. eigenvalues --    0.26356   0.27457   0.27512   0.27769   0.29822
 Alpha virt. eigenvalues --    0.30003   0.30977   0.31746   0.31861   0.32402

 Mulliken charges:
               1
     1  C   -0.298643
     2  C   -0.300581
     3  C   -0.482521
     4  H    0.149809
     5  H    0.149404
     6  H    0.152219
     7  H    0.152028
     8  H    0.160100
     9  H    0.155097
    10  H    0.163922
    11  C   -0.298321
    12  C   -0.299681
    13  C   -0.475743
    14  H    0.149677
    15  H    0.149753
    16  H    0.152017
    17  H    0.152014
    18  H    0.155242
    19  H    0.155235
    20  H    0.160399
    21  C   -0.300270
    22  C   -0.301499
    23  C   -0.475396
    24  H    0.151561
    25  H    0.149212
    26  H    0.153753
    27  H    0.151830
    28  H    0.155142
    29  H    0.153897
    30  H    0.160152
    31  C   -0.301807
    32  C   -0.301643
    33  C   -0.476306
    34  H    0.156025
    35  H    0.149125
    36  H    0.152602
    37  H    0.151977
    38  H    0.155429
    39  H    0.154737
    40  H    0.160053
 Sum of Mulliken charges =  -0.00000

 Dipole moment (field-independent basis, Debye):
    X=             -0.0414    Y=             -0.0106    Z=             -0.0192  Tot=              0.0469
 Quadrupole moment (field-independent basis, Debye-Ang):
   XX=            -85.1379   YY=            -85.7512   ZZ=            -84.0941
   XY=              0.4125   XZ=              0.6622   YZ=              0.0267

 Normal termination of Gaussian 16 at Wed May  5 23:07:53 2021.
