 Gaussian 16, Revision A.03,
 Gaussian 16:  EM64L-G16RevA.03 25-Dec-2016

 -------------
 #p 6-31g* mp2
 -------------

 ------------------------------------------------------
 Input file generated by CHIRIPA (05-May-2021 14:57:24)
 ------------------------------------------------------
 Symbolic Z-matrix:
 Charge =  0 Multiplicity = 1

                         Standard orientation:
 ---------------------------------------------------------------------
 Center     Atomic      Atomic             Coordinates (Angstroms)
 Number     Number       Type             X           Y           Z
 ---------------------------------------------------------------------
      1          6           0       -1.693196    2.673607    0.948515
      2          6           0       -2.504101    2.541777   -0.183551
      3          6           0       -2.843357    1.275906   -0.670402
      4          6           0       -2.352034    0.158230    0.002421
      5          6           0       -1.542126    0.256879    1.132733
      6          6           0       -1.215638    1.532749    1.601893
      7          1           0       -1.434613    3.660850    1.319841
      8          1           0       -2.876414    3.426027   -0.692993
      9          1           0       -3.469383    1.144998   -1.544686
     10          1           0       -1.186112   -0.643090    1.619279
     11          1           0       -0.585695    1.632106    2.481293
     12          7           0       -2.704431   -1.187184   -0.503622
     13          8           0       -2.258805   -2.156235    0.107111
     14          8           0       -3.419592   -1.247193   -1.501410
     15          6           0        1.132336   -2.372128    0.937833
     16          6           0        1.793649   -1.450597    1.756347
     17          6           0        2.440644   -0.343117    1.200080
     18          6           0        2.406256   -0.187375   -0.184786
     19          6           0        1.755855   -1.088085   -1.026802
     20          6           0        1.115579   -2.188255   -0.448685
     21          1           0        0.632343   -3.229605    1.378441
     22          1           0        1.808299   -1.590855    2.833453
     23          1           0        2.960096    0.385687    1.810354
     24          1           0        1.758495   -0.921511   -2.097159
     25          1           0        0.602778   -2.902316   -1.086806
     26          7           0        3.087645    0.981195   -0.785247
     27          8           0        3.042791    1.095813   -2.008148
     28          8           0        3.653670    1.760376   -0.021617
 ---------------------------------------------------------------------

 SCF Done:  E(RHF) =  -868.339279983     A.U. after   16 cycles
 E2 =    -0.2603453130D+01 EUMP2 =    -0.87094273311329D+03

 The electronic state is 1-A.
 Alpha  occ. eigenvalues --  -20.61336 -20.61299 -20.60892 -20.60866 -15.86338
 Alpha  occ. eigenvalues --  -15.85931 -11.31358 -11.31209 -11.27914 -11.27879
 Alpha  occ. eigenvalues --  -11.27853 -11.27671 -11.27594 -11.27332 -11.26857
 Alpha  occ. eigenvalues --  -11.26828 -11.26815 -11.26522  -1.60385  -1.59960
 Alpha  occ. eigenvalues --   -1.39952  -1.39516  -1.19530  -1.19355  -1.08975
 Alpha  occ. eigenvalues --   -1.08745  -1.04885  -1.04742  -0.95875  -0.95588
 Alpha  occ. eigenvalues --   -0.86298  -0.86113  -0.82727  -0.82429  -0.77822
 Alpha  occ. eigenvalues --   -0.77512  -0.72604  -0.72149  -0.71700  -0.71281
 Alpha  occ. eigenvalues --   -0.70632  -0.70373  -0.65183  -0.64989  -0.64892
 Alpha  occ. eigenvalues --   -0.64685  -0.62277  -0.62072  -0.55406  -0.55131
 Alpha  occ. eigenvalues --   -0.53583  -0.53065  -0.52790  -0.52606  -0.49359
 Alpha  occ. eigenvalues --   -0.49299  -0.48913  -0.48896  -0.45441  -0.44945
 Alpha  occ. eigenvalues --   -0.37515  -0.37232  -0.36555  -0.36204
 Alpha virt. eigenvalues --    0.04658   0.05007   0.11081   0.11354   0.16245
 Alpha virt. eigenvalues --    0.16494   0.20991   0.21935   0.26864   0.27829
 Alpha virt. eigenvalues --    0.27912   0.28789   0.31072   0.31266   0.32316

 Mulliken charges:
               1
     1  C   -0.168240
     2  C   -0.218396
     3  C   -0.170195
     4  C    0.154531
     5  C   -0.163809
     6  C   -0.220520
     7  H    0.228788
     8  H    0.225478
     9  H    0.275464
    10  H    0.272392
    11  H    0.221166
    12  N    0.488947
    13  O   -0.470844
    14  O   -0.458183
    15  C   -0.170567
    16  C   -0.230718
    17  C   -0.173668
    18  C    0.160836
    19  C   -0.175539
    20  C   -0.213082
    21  H    0.235313
    22  H    0.220887
    23  H    0.271825
    24  H    0.276752
    25  H    0.236738
    26  N    0.488127
    27  O   -0.459449
    28  O   -0.464034
 Sum of Mulliken charges =  -0.00000

 Dipole moment (field-independent basis, Debye):
    X=             -1.2671    Y=              0.5319    Z=              3.7105  Tot=              3.9569
 Quadrupole moment (field-independent basis, Debye-Ang):
   XX=           -122.3020   YY=           -100.5906   ZZ=            -99.3775
   XY=            -21.8218   XZ=              4.9467   YZ=              0.6745

 Normal termination of Gaussian 16 at Fri May  7 09:35:03 2021.
