 Gaussian 16, Revision A.03,
 Gaussian 16:  EM64L-G16RevA.03 25-Dec-2016

 -------------
 #p 6-31g* mp2
 -------------

 ------------------------------------------------------
 Input file generated by CHIRIPA (05-May-2021 14:53:18)
 ------------------------------------------------------
 Symbolic Z-matrix:
 Charge =  0 Multiplicity = 1

                         Standard orientation:
 ---------------------------------------------------------------------
 Center     Atomic      Atomic             Coordinates (Angstroms)
 Number     Number       Type             X           Y           Z
 ---------------------------------------------------------------------
      1          6           0       -3.382392   -0.491637    0.209041
      2          6           0       -3.926428   -1.576742   -0.720775
      3          6           0       -3.464069   -2.979702   -0.326159
      4          1           0       -2.284520   -0.531804    0.206098
      5          1           0       -3.700308   -0.707465    1.238479
      6          1           0       -3.608740   -1.358176   -1.748354
      7          1           0       -5.023129   -1.533862   -0.715766
      8          1           0       -3.793944   -3.222692    0.689095
      9          1           0       -2.371519   -3.046008   -0.349361
     10          1           0       -3.864562   -3.739896   -1.004075
     11          6           0       -3.835869    0.916367   -0.172550
     12          6           0       -3.291833    2.001473    0.757265
     13          6           0       -3.754193    3.404432    0.362649
     14          1           0       -3.517954    1.132196   -1.201988
     15          1           0       -4.933741    0.956534   -0.169607
     16          1           0       -2.195133    1.958593    0.752256
     17          1           0       -3.609522    1.782907    1.784844
     18          1           0       -4.846743    3.470739    0.385851
     19          1           0       -3.424318    3.647423   -0.652604
     20          1           0       -3.353700    4.164627    1.040565
     21          6           0        0.725423   -1.545567    0.262794
     22          6           0        1.922043   -1.962925    0.854770
     23          6           0        3.088513   -1.206407    0.707889
     24          6           0        3.022094   -0.032531   -0.041038
     25          6           0        1.845106    0.409708   -0.643045
     26          6           0        0.690835   -0.362667   -0.482910
     27          1           0       -0.175981   -2.139408    0.382042
     28          1           0        1.951860   -2.881148    1.434444
     29          1           0        4.028336   -1.506206    1.155406
     30          1           0        1.846527    1.329594   -1.215081
     31          1           0       -0.237066   -0.036098   -0.943775
     32          7           0        4.250527    0.776755   -0.203550
     33          8           0        4.165717    1.807096   -0.868263
     34          8           0        5.274921    0.365409    0.336863
 ---------------------------------------------------------------------

 SCF Done:  E(RHF) =  -669.534843520     A.U. after   15 cycles
 E2 =    -0.2092795406D+01 EUMP2 =    -0.67162763892629D+03

 The electronic state is 1-A.
 Alpha  occ. eigenvalues --  -20.60759 -20.60753 -15.85813 -11.31182 -11.27758
 Alpha  occ. eigenvalues --  -11.27752 -11.27469 -11.26759 -11.26749 -11.22687
 Alpha  occ. eigenvalues --  -11.22519 -11.22345 -11.22297 -11.22275 -11.21632
 Alpha  occ. eigenvalues --   -1.59834  -1.39388  -1.19356  -1.09432  -1.08747
 Alpha  occ. eigenvalues --   -1.04762  -1.04455  -0.96919  -0.95585  -0.87930
 Alpha  occ. eigenvalues --   -0.86166  -0.82418  -0.80527  -0.79229  -0.77464
 Alpha  occ. eigenvalues --   -0.72032  -0.71157  -0.70490  -0.66181  -0.65004
 Alpha  occ. eigenvalues --   -0.64699  -0.62116  -0.61848  -0.60288  -0.58516
 Alpha  occ. eigenvalues --   -0.56284  -0.55233  -0.53568  -0.53343  -0.53076
 Alpha  occ. eigenvalues --   -0.52850  -0.50871  -0.48828  -0.48789  -0.48781
 Alpha  occ. eigenvalues --   -0.47566  -0.46737  -0.46665  -0.44792  -0.44716
 Alpha  occ. eigenvalues --   -0.37320  -0.36360
 Alpha virt. eigenvalues --    0.05063   0.11179   0.16518   0.18485   0.21939
 Alpha virt. eigenvalues --    0.23649   0.25277   0.25482   0.26532   0.28392
 Alpha virt. eigenvalues --    0.29242   0.30857   0.31095   0.31294   0.32052

 Mulliken charges:
               1
     1  C   -0.305247
     2  C   -0.300935
     3  C   -0.479080
     4  H    0.143004
     5  H    0.154032
     6  H    0.152333
     7  H    0.157693
     8  H    0.158731
     9  H    0.146414
    10  H    0.166627
    11  C   -0.299468
    12  C   -0.300895
    13  C   -0.476260
    14  H    0.147834
    15  H    0.154037
    16  H    0.150570
    17  H    0.154454
    18  H    0.156768
    19  H    0.155428
    20  H    0.163847
    21  C   -0.176528
    22  C   -0.220362
    23  C   -0.170461
    24  C    0.158236
    25  C   -0.171223
    26  C   -0.223703
    27  H    0.235272
    28  H    0.224165
    29  H    0.275632
    30  H    0.275597
    31  H    0.226285
    32  N    0.488020
    33  O   -0.460463
    34  O   -0.460354
 Sum of Mulliken charges =  -0.00000

 Dipole moment (field-independent basis, Debye):
    X=             -4.5600    Y=             -2.8106    Z=              0.6128  Tot=              5.3916
 Quadrupole moment (field-independent basis, Debye-Ang):
   XX=           -118.3482   YY=            -93.5434   ZZ=            -93.5022
   XY=            -10.1167   XZ=              2.9634   YZ=             -1.8715

 Normal termination of Gaussian 16 at Wed May  5 22:04:00 2021.
