 Gaussian 16, Revision A.03,
 Gaussian 16:  EM64L-G16RevA.03 25-Dec-2016

 -------------
 #p 6-31g* mp2
 -------------

 ------------------------------------------------------
 Input file generated by CHIRIPA (05-May-2021 14:51:14)
 ------------------------------------------------------
 Symbolic Z-matrix:
 Charge =  0 Multiplicity = 1

                         Standard orientation:
 ---------------------------------------------------------------------
 Center     Atomic      Atomic             Coordinates (Angstroms)
 Number     Number       Type             X           Y           Z
 ---------------------------------------------------------------------
      1          6           0       -3.468827   -0.375693   -0.258175
      2          6           0       -4.991705   -0.505168   -0.303612
      3          6           0       -5.497540   -1.071036   -1.630909
      4          1           0       -3.137240    0.269170   -1.083491
      5          1           0       -3.018530   -1.362742   -0.432421
      6          1           0       -5.439015    0.481582   -0.127957
      7          1           0       -5.319722   -1.149643    0.522023
      8          1           0       -5.078667   -2.066583   -1.809884
      9          1           0       -5.198637   -0.426089   -2.463556
     10          1           0       -6.588720   -1.155125   -1.641678
     11          6           0       -2.947938    0.188605    1.062420
     12          6           0       -1.425060    0.318079    1.107857
     13          6           0       -0.919225    0.883947    2.435154
     14          1           0       -3.398235    1.175654    1.236666
     15          1           0       -3.279525   -0.456259    1.887735
     16          1           0       -1.097044    0.962554    0.282222
     17          1           0       -0.977751   -0.668671    0.932201
     18          1           0       -1.218128    0.239000    3.267801
     19          1           0       -1.338099    1.879494    2.614129
     20          1           0        0.171955    0.968037    2.445922
     21          6           0        3.158645   -0.668137   -0.430402
     22          6           0        4.371571   -1.377789    0.172251
     23          6           0        4.257288   -2.901155    0.108294
     24          1           0        2.252022   -0.991794    0.098961
     25          1           0        3.039738   -0.984264   -1.476022
     26          1           0        4.488975   -1.059364    1.216012
     27          1           0        5.275434   -1.052259   -0.358482
     28          1           0        4.163338   -3.237196   -0.929420
     29          1           0        3.372410   -3.244340    0.654019
     30          1           0        5.134965   -3.388258    0.544496
     31          6           0        3.258120    0.855226   -0.373842
     32          6           0        2.045195    1.564877   -0.976496
     33          6           0        2.159477    3.088243   -0.912538
     34          1           0        3.377028    1.171352    0.671778
     35          1           0        4.164743    1.178883   -0.903205
     36          1           0        1.141331    1.239348   -0.445763
     37          1           0        1.927791    1.246452   -2.020258
     38          1           0        3.044355    3.431429   -1.458265
     39          1           0        2.253427    3.424285    0.125176
     40          1           0        1.281800    3.575346   -1.348741
 ---------------------------------------------------------------------

 SCF Done:  E(RHF) =  -470.733243140     A.U. after   11 cycles
 E2 =    -0.1583155124D+01 EUMP2 =    -0.47231639826358D+03

 The electronic state is 1-A.
 Alpha  occ. eigenvalues --  -11.21659 -11.21618 -11.21591 -11.21524 -11.21438
 Alpha  occ. eigenvalues --  -11.21384 -11.21376 -11.21325 -11.21151 -11.21082
 Alpha  occ. eigenvalues --  -11.21066 -11.21054  -1.08475  -1.08402  -1.03589
 Alpha  occ. eigenvalues --   -1.03496  -0.96022  -0.95961  -0.87036  -0.86977
 Alpha  occ. eigenvalues --   -0.79705  -0.79521  -0.78341  -0.78155  -0.65137
 Alpha  occ. eigenvalues --   -0.65016  -0.61083  -0.60827  -0.59423  -0.59288
 Alpha  occ. eigenvalues --   -0.57646  -0.57555  -0.55326  -0.55227  -0.52720
 Alpha  occ. eigenvalues --   -0.52653  -0.52445  -0.52386  -0.49991  -0.49880
 Alpha  occ. eigenvalues --   -0.48097  -0.47819  -0.46846  -0.46455  -0.45990
 Alpha  occ. eigenvalues --   -0.45746  -0.45723  -0.45410  -0.43823  -0.43760
 Alpha virt. eigenvalues --    0.20453   0.23059   0.23769   0.24746   0.25972
 Alpha virt. eigenvalues --    0.26304   0.26868   0.27668   0.28109   0.29213
 Alpha virt. eigenvalues --    0.30458   0.31105   0.31608   0.31797   0.32277

 Mulliken charges:
               1
     1  C   -0.298472
     2  C   -0.299697
     3  C   -0.475733
     4  H    0.149919
     5  H    0.149713
     6  H    0.151955
     7  H    0.151963
     8  H    0.155262
     9  H    0.155250
    10  H    0.160307
    11  C   -0.297585
    12  C   -0.304944
    13  C   -0.477016
    14  H    0.149710
    15  H    0.149705
    16  H    0.156192
    17  H    0.152178
    18  H    0.155730
    19  H    0.155793
    20  H    0.160166
    21  C   -0.299361
    22  C   -0.299617
    23  C   -0.475658
    24  H    0.150497
    25  H    0.149576
    26  H    0.151847
    27  H    0.151982
    28  H    0.155174
    29  H    0.154992
    30  H    0.160231
    31  C   -0.297564
    32  C   -0.310283
    33  C   -0.475263
    34  H    0.148897
    35  H    0.149536
    36  H    0.163439
    37  H    0.151478
    38  H    0.155169
    39  H    0.155093
    40  H    0.159438
 Sum of Mulliken charges =  -0.00000

 Dipole moment (field-independent basis, Debye):
    X=             -0.0379    Y=             -0.0060    Z=              0.0032  Tot=              0.0385
 Quadrupole moment (field-independent basis, Debye-Ang):
   XX=            -84.8933   YY=            -85.3216   ZZ=            -84.6222
   XY=             -0.2391   XZ=             -0.8664   YZ=             -0.6731

 Normal termination of Gaussian 16 at Thu May  6 00:51:35 2021.
