 Gaussian 16, Revision A.03,
 Gaussian 16:  EM64L-G16RevA.03 25-Dec-2016

 -------------
 #p 6-31g* mp2
 -------------

 ------------------------------------------------------
 Input file generated by CHIRIPA (05-May-2021 14:51:12)
 ------------------------------------------------------
 Symbolic Z-matrix:
 Charge =  0 Multiplicity = 1

                         Standard orientation:
 ---------------------------------------------------------------------
 Center     Atomic      Atomic             Coordinates (Angstroms)
 Number     Number       Type             X           Y           Z
 ---------------------------------------------------------------------
      1          6           0       -2.456037    0.480344   -0.071630
      2          6           0       -3.711162    0.470826   -0.944874
      3          6           0       -3.790449    1.678542   -1.879182
      4          1           0       -2.435935    1.405616    0.520326
      5          1           0       -1.568019    0.503688   -0.718371
      6          1           0       -4.596526    0.446109   -0.296695
      7          1           0       -3.728377   -0.454620   -1.534679
      8          1           0       -2.925227    1.704495   -2.549493
      9          1           0       -3.798308    2.610342   -1.304475
     10          1           0       -4.695383    1.651616   -2.494186
     11          6           0       -2.362504   -0.720678    0.867798
     12          6           0       -1.107379   -0.711160    1.741043
     13          6           0       -1.028092   -1.918876    2.675350
     14          1           0       -3.250522   -0.744022    1.514539
     15          1           0       -2.382606   -1.645950    0.275842
     16          1           0       -1.090164    0.214286    2.330847
     17          1           0       -0.222015   -0.686443    1.092863
     18          1           0       -1.020233   -2.850676    2.100644
     19          1           0       -1.893314   -1.944829    3.345662
     20          1           0       -0.123158   -1.891950    3.290354
     21          6           0        2.663443   -0.442872   -0.847323
     22          6           0        1.680471   -1.607073   -0.975340
     23          6           0        2.203160   -2.725632   -1.877237
     24          1           0        2.877205   -0.040194   -1.846874
     25          1           0        3.616937   -0.819019   -0.451399
     26          1           0        0.728665   -1.228605   -1.369604
     27          1           0        1.468876   -2.006904    0.024649
     28          1           0        3.141283   -3.130711   -1.484253
     29          1           0        2.396867   -2.347992   -2.886427
     30          1           0        1.484736   -3.547659   -1.954696
     31          6           0        2.155098    0.683206    0.051155
     32          6           0        3.138070    1.847407    0.179172
     33          6           0        2.615381    2.965966    1.081068
     34          1           0        1.201603    1.059353   -0.344770
     35          1           0        1.941336    0.280528    1.050706
     36          1           0        3.349665    2.247238   -0.820817
     37          1           0        4.089875    1.468939    0.573437
     38          1           0        2.421674    2.588326    2.090259
     39          1           0        1.677258    3.371045    0.688085
     40          1           0        3.333805    3.787993    1.158528
 ---------------------------------------------------------------------

 SCF Done:  E(RHF) =  -470.731659464     A.U. after   11 cycles
 E2 =    -0.1585508430D+01 EUMP2 =    -0.47231716789370D+03

 The electronic state is 1-A.
 Alpha  occ. eigenvalues --  -11.21704 -11.21614 -11.21592 -11.21456 -11.21372
 Alpha  occ. eigenvalues --  -11.21368 -11.21341 -11.21269 -11.21148 -11.21080
 Alpha  occ. eigenvalues --  -11.21070 -11.21007  -1.08532  -1.08338  -1.03590
 Alpha  occ. eigenvalues --   -1.03465  -0.96031  -0.95938  -0.87047  -0.86951
 Alpha  occ. eigenvalues --   -0.79680  -0.79584  -0.78580  -0.77908  -0.65135
 Alpha  occ. eigenvalues --   -0.65009  -0.61023  -0.60855  -0.59391  -0.59306
 Alpha  occ. eigenvalues --   -0.57669  -0.57533  -0.55314  -0.55232  -0.52751
 Alpha  occ. eigenvalues --   -0.52623  -0.52459  -0.52356  -0.49978  -0.49880
 Alpha  occ. eigenvalues --   -0.48013  -0.47944  -0.46861  -0.46677  -0.46332
 Alpha  occ. eigenvalues --   -0.45689  -0.45650  -0.44783  -0.43824  -0.43709
 Alpha virt. eigenvalues --    0.20597   0.22953   0.23312   0.24351   0.24623
 Alpha virt. eigenvalues --    0.26270   0.27121   0.27877   0.28729   0.30615
 Alpha virt. eigenvalues --    0.30671   0.31444   0.31666   0.31842   0.32029

 Mulliken charges:
               1
     1  C   -0.302526
     2  C   -0.299476
     3  C   -0.475622
     4  H    0.149727
     5  H    0.151830
     6  H    0.152224
     7  H    0.151788
     8  H    0.154479
     9  H    0.155197
    10  H    0.160333
    11  C   -0.297091
    12  C   -0.312854
    13  C   -0.476006
    14  H    0.148868
    15  H    0.148925
    16  H    0.150135
    17  H    0.170817
    18  H    0.154597
    19  H    0.154996
    20  H    0.158497
    21  C   -0.296944
    22  C   -0.306975
    23  C   -0.474839
    24  H    0.149644
    25  H    0.149728
    26  H    0.153336
    27  H    0.155344
    28  H    0.155686
    29  H    0.155376
    30  H    0.160272
    31  C   -0.306031
    32  C   -0.298849
    33  C   -0.475682
    34  H    0.153317
    35  H    0.153218
    36  H    0.151755
    37  H    0.151802
    38  H    0.155246
    39  H    0.155580
    40  H    0.160180
 Sum of Mulliken charges =  -0.00000

 Dipole moment (field-independent basis, Debye):
    X=              0.0630    Y=              0.0055    Z=             -0.0235  Tot=              0.0674
 Quadrupole moment (field-independent basis, Debye-Ang):
   XX=            -84.5040   YY=            -85.7950   ZZ=            -84.6753
   XY=             -0.1517   XZ=              0.0438   YZ=              0.1296

 Normal termination of Gaussian 16 at Thu May  6 05:30:14 2021.
