 Gaussian 16, Revision A.03,
 Gaussian 16:  EM64L-G16RevA.03 25-Dec-2016

 -------------
 #p 6-31g* mp2
 -------------

 ------------------------------------------------------
 Input file generated by CHIRIPA (05-May-2021 14:57:27)
 ------------------------------------------------------
 Symbolic Z-matrix:
 Charge =  0 Multiplicity = 1

                         Standard orientation:
 ---------------------------------------------------------------------
 Center     Atomic      Atomic             Coordinates (Angstroms)
 Number     Number       Type             X           Y           Z
 ---------------------------------------------------------------------
      1          6           0        4.249576    1.922722   -1.067135
      2          6           0        3.694622    2.130120    0.199962
      3          6           0        3.019722    1.097140    0.857237
      4          6           0        2.918053   -0.136092    0.215294
      5          6           0        3.460251   -0.373772   -1.046776
      6          6           0        4.130828    0.673640   -1.685370
      7          1           0        4.772176    2.730771   -1.570466
      8          1           0        3.785304    3.099132    0.682494
      9          1           0        2.580639    1.230308    1.838507
     10          1           0        3.353635   -1.350704   -1.502468
     11          1           0        4.560821    0.509701   -2.669379
     12          7           0        2.205855   -1.237301    0.901233
     13          8           0        2.129978   -2.314516    0.314303
     14          8           0        1.736996   -1.002361    2.012814
     15          6           0       -4.468599    2.006490    0.216664
     16          6           0       -4.771228    1.092002   -0.797558
     17          6           0       -3.984071   -0.048342   -0.983433
     18          6           0       -2.896879   -0.243770   -0.133073
     19          6           0       -2.569702    0.648930    0.886404
     20          6           0       -3.370737    1.782431    1.053931
     21          1           0       -5.085473    2.889678    0.353930
     22          1           0       -5.623228    1.263437   -1.449287
     23          1           0       -4.195715   -0.772570   -1.760684
     24          1           0       -1.713920    0.450933    1.520322
     25          1           0       -3.133338    2.490931    1.842421
     26          7           0       -2.056205   -1.447378   -0.320139
     27          8           0       -1.103846   -1.596670    0.442333
     28          8           0       -2.365561   -2.218683   -1.225690
 ---------------------------------------------------------------------

 SCF Done:  E(RHF) =  -868.335674737     A.U. after   16 cycles
 E2 =    -0.2601358528D+01 EUMP2 =    -0.87093703326484D+03

 The electronic state is 1-A.
 Alpha  occ. eigenvalues --  -20.60006 -20.59963 -20.59735 -20.59645 -15.85047
 Alpha  occ. eigenvalues --  -15.84759 -11.30699 -11.30586 -11.27328 -11.27264
 Alpha  occ. eigenvalues --  -11.27249 -11.27161 -11.27128 -11.27032 -11.26403
 Alpha  occ. eigenvalues --  -11.26384 -11.26355 -11.26295  -1.59075  -1.58715
 Alpha  occ. eigenvalues --   -1.38615  -1.38281  -1.18909  -1.18797  -1.08257
 Alpha  occ. eigenvalues --   -1.08101  -1.04351  -1.04272  -0.95040  -0.94858
 Alpha  occ. eigenvalues --   -0.85735  -0.85648  -0.81864  -0.81706  -0.76861
 Alpha  occ. eigenvalues --   -0.76673  -0.71364  -0.70993  -0.70467  -0.70043
 Alpha  occ. eigenvalues --   -0.69907  -0.69821  -0.64547  -0.64444  -0.64357
 Alpha  occ. eigenvalues --   -0.64279  -0.61684  -0.61618  -0.54854  -0.54757
 Alpha  occ. eigenvalues --   -0.52676  -0.52571  -0.52443  -0.52373  -0.48103
 Alpha  occ. eigenvalues --   -0.48010  -0.47711  -0.47657  -0.43980  -0.43545
 Alpha  occ. eigenvalues --   -0.36921  -0.36796  -0.35973  -0.35900
 Alpha virt. eigenvalues --    0.05660   0.05882   0.11673   0.11751   0.17089
 Alpha virt. eigenvalues --    0.17291   0.21715   0.21884   0.27581   0.27750
 Alpha virt. eigenvalues --    0.28545   0.28908   0.31102   0.31494   0.32742

 Mulliken charges:
               1
     1  C   -0.172536
     2  C   -0.218614
     3  C   -0.173513
     4  C    0.161520
     5  C   -0.170785
     6  C   -0.218585
     7  H    0.222763
     8  H    0.219542
     9  H    0.271143
    10  H    0.278074
    11  H    0.222061
    12  N    0.493334
    13  O   -0.448666
    14  O   -0.465160
    15  C   -0.171789
    16  C   -0.218859
    17  C   -0.171634
    18  C    0.157519
    19  C   -0.174197
    20  C   -0.219134
    21  H    0.223229
    22  H    0.221463
    23  H    0.274741
    24  H    0.282449
    25  H    0.221242
    26  N    0.487333
    27  O   -0.449410
    28  O   -0.463530
 Sum of Mulliken charges =  -0.00000

 Dipole moment (field-independent basis, Debye):
    X=             -0.4191    Y=              7.7495    Z=             -1.7111  Tot=              7.9472
 Quadrupole moment (field-independent basis, Debye-Ang):
   XX=            -73.8445   YY=           -106.8381   ZZ=           -100.9616
   XY=             -0.7087   XZ=             -6.6526   YZ=              4.3176

 Normal termination of Gaussian 16 at Thu May  6 03:38:37 2021.
