 Gaussian 16, Revision A.03,
 Gaussian 16:  EM64L-G16RevA.03 25-Dec-2016

 -------------
 #p 6-31g* mp2
 -------------

 ------------------------------------------------------
 Input file generated by CHIRIPA (05-May-2021 14:55:24)
 ------------------------------------------------------
 Symbolic Z-matrix:
 Charge =  0 Multiplicity = 1

                         Standard orientation:
 ---------------------------------------------------------------------
 Center     Atomic      Atomic             Coordinates (Angstroms)
 Number     Number       Type             X           Y           Z
 ---------------------------------------------------------------------
      1          6           0        4.186208   -1.691765   -1.055369
      2          6           0        3.104342   -2.237208   -0.356386
      3          6           0        2.256437   -1.416070    0.392839
      4          6           0        2.520944   -0.047668    0.421156
      5          6           0        3.590699    0.525721   -0.264510
      6          6           0        4.425513   -0.314470   -1.007285
      7          1           0        4.839796   -2.337045   -1.634880
      8          1           0        2.916083   -3.306479   -0.391917
      9          1           0        1.411714   -1.811906    0.943452
     10          1           0        3.752947    1.595357   -0.210000
     11          1           0        5.264952    0.111898   -1.549131
     12          7           0        1.630234    0.831719    1.210912
     13          8           0        1.884725    2.034131    1.219740
     14          8           0        0.694471    0.301920    1.806141
     15          6           0       -3.175911    0.827976   -0.806438
     16          6           0       -1.812053    1.377463   -0.386985
     17          6           0       -1.347874    2.540267   -1.264605
     18          1           0       -3.126040    0.501303   -1.854170
     19          1           0       -3.917706    1.637629   -0.766443
     20          1           0       -1.073331    0.566692   -0.426429
     21          1           0       -1.865125    1.702690    0.659929
     22          1           0       -2.063038    3.367866   -1.217488
     23          1           0       -1.266747    2.225414   -2.310018
     24          1           0       -0.370821    2.917711   -0.947171
     25          6           0       -3.653512   -0.334917    0.061493
     26          6           0       -5.017369   -0.884403   -0.357960
     27          6           0       -5.481549   -2.047208    0.519660
     28          1           0       -2.911717   -1.144569    0.021498
     29          1           0       -3.703383   -0.008243    1.109225
     30          1           0       -4.964299   -1.209630   -1.404873
     31          1           0       -5.756091   -0.073632   -0.318515
     32          1           0       -5.562676   -1.732354    1.565073
     33          1           0       -4.766384   -2.874807    0.472543
     34          1           0       -6.458601   -2.424651    0.202226
 ---------------------------------------------------------------------

 SCF Done:  E(RHF) =  -669.535946495     A.U. after   15 cycles
 E2 =    -0.2092362520D+01 EUMP2 =    -0.67162830901544D+03

 The electronic state is 1-A.
 Alpha  occ. eigenvalues --  -20.60948 -20.60930 -15.85945 -11.31289 -11.27851
 Alpha  occ. eigenvalues --  -11.27845 -11.27587 -11.26859 -11.26849 -11.21081
 Alpha  occ. eigenvalues --  -11.20673 -11.20661 -11.20556 -11.20397 -11.20060
 Alpha  occ. eigenvalues --   -1.59986  -1.39545  -1.19455  -1.08857  -1.07656
 Alpha  occ. eigenvalues --   -1.04852  -1.02751  -0.95698  -0.95238  -0.86260
 Alpha  occ. eigenvalues --   -0.86250  -0.82533  -0.78823  -0.77594  -0.77418
 Alpha  occ. eigenvalues --   -0.72174  -0.71295  -0.70563  -0.65110  -0.64855
 Alpha  occ. eigenvalues --   -0.64302  -0.62199  -0.60162  -0.58599  -0.56805
 Alpha  occ. eigenvalues --   -0.55355  -0.54553  -0.53181  -0.52944  -0.51921
 Alpha  occ. eigenvalues --   -0.51659  -0.49218  -0.48946  -0.48939  -0.47199
 Alpha  occ. eigenvalues --   -0.45886  -0.45340  -0.44872  -0.44451  -0.42981
 Alpha  occ. eigenvalues --   -0.37431  -0.36453
 Alpha virt. eigenvalues --    0.04919   0.11180   0.16376   0.21305   0.23527
 Alpha virt. eigenvalues --    0.24962   0.26999   0.27429   0.27919   0.28555
 Alpha virt. eigenvalues --    0.28678   0.30866   0.31913   0.32306   0.32647

 Mulliken charges:
               1
     1  C   -0.170590
     2  C   -0.218519
     3  C   -0.171724
     4  C    0.158306
     5  C   -0.170718
     6  C   -0.218499
     7  H    0.225992
     8  H    0.223803
     9  H    0.275950
    10  H    0.275851
    11  H    0.223877
    12  N    0.488496
    13  O   -0.460082
    14  O   -0.456068
    15  C   -0.298913
    16  C   -0.296973
    17  C   -0.480882
    18  H    0.143960
    19  H    0.147460
    20  H    0.145743
    21  H    0.167603
    22  H    0.152667
    23  H    0.146826
    24  H    0.168817
    25  C   -0.296079
    26  C   -0.299107
    27  C   -0.474874
    28  H    0.146278
    29  H    0.153972
    30  H    0.149131
    31  H    0.151374
    32  H    0.156156
    33  H    0.152694
    34  H    0.158072
 Sum of Mulliken charges =  -0.00000

 Dipole moment (field-independent basis, Debye):
    X=              3.3479    Y=             -3.0502    Z=             -2.5744  Tot=              5.2096
 Quadrupole moment (field-independent basis, Debye-Ang):
   XX=            -78.4767   YY=            -91.8919   ZZ=            -97.6246
   XY=             -6.5447   XZ=             -7.2762   YZ=             -1.1799

 Normal termination of Gaussian 16 at Thu May  6 17:40:15 2021.
