 Gaussian 16, Revision A.03,
 Gaussian 16:  EM64L-G16RevA.03 25-Dec-2016

 -------------
 #p 6-31g* mp2
 -------------

 ------------------------------------------------------
 Input file generated by CHIRIPA (05-May-2021 14:57:27)
 ------------------------------------------------------
 Symbolic Z-matrix:
 Charge =  0 Multiplicity = 1

                         Standard orientation:
 ---------------------------------------------------------------------
 Center     Atomic      Atomic             Coordinates (Angstroms)
 Number     Number       Type             X           Y           Z
 ---------------------------------------------------------------------
      1          6           0        6.263838   -0.513779    0.587069
      2          6           0        5.268837   -0.691566    1.553964
      3          6           0        3.924811   -0.470956    1.238570
      4          6           0        3.610013   -0.071453   -0.059347
      5          6           0        4.578489    0.114161   -1.044686
      6          6           0        5.916101   -0.112191   -0.706889
      7          1           0        7.305418   -0.687384    0.840776
      8          1           0        5.535966   -1.003389    2.559675
      9          1           0        3.134337   -0.601111    1.967699
     10          1           0        4.281346    0.425594   -2.038735
     11          1           0        6.686716    0.026666   -1.459827
     12          7           0        2.190548    0.165137   -0.405099
     13          8           0        1.939261    0.516598   -1.555736
     14          8           0        1.356136   -0.005366    0.481086
     15          6           0       -2.351709    2.144424    0.047613
     16          6           0       -2.049060    1.072892   -0.798994
     17          6           0       -2.868791   -0.059132   -0.832330
     18          6           0       -3.988224   -0.086192   -0.002012
     19          6           0       -4.316309    0.965376    0.852304
     20          6           0       -3.482374    2.087347    0.869111
     21          1           0       -1.709406    3.019903    0.067090
     22          1           0       -1.171625    1.114462   -1.438075
     23          1           0       -2.657916   -0.902818   -1.478198
     24          1           0       -5.197877    0.894887    1.477833
     25          1           0       -3.719871    2.918030    1.527598
     26          7           0       -4.863554   -1.279293   -0.028555
     27          8           0       -5.843952   -1.278609    0.712699
     28          8           0       -4.552667   -2.192540   -0.790110
 ---------------------------------------------------------------------

 SCF Done:  E(RHF) =  -868.340614843     A.U. after   16 cycles
 E2 =    -0.2598868436D+01 EUMP2 =    -0.87093948327808D+03

 The electronic state is 1-A.
 Alpha  occ. eigenvalues --  -20.61768 -20.61760 -20.59750 -20.59739 -15.86753
 Alpha  occ. eigenvalues --  -15.84785 -11.31829 -11.29883 -11.28365 -11.28347
 Alpha  occ. eigenvalues --  -11.28046 -11.27308 -11.27294 -11.26451 -11.26279
 Alpha  occ. eigenvalues --  -11.26038 -11.25474 -11.25105  -1.60817  -1.58826
 Alpha  occ. eigenvalues --   -1.40373  -1.38387  -1.19973  -1.17993  -1.09425
 Alpha  occ. eigenvalues --   -1.07440  -1.05328  -1.03331  -0.96307  -0.94334
 Alpha  occ. eigenvalues --   -0.86740  -0.84745  -0.83145  -0.81163  -0.78228
 Alpha  occ. eigenvalues --   -0.76245  -0.72976  -0.72107  -0.71074  -0.71015
 Alpha  occ. eigenvalues --   -0.70143  -0.69126  -0.65626  -0.65328  -0.63639
 Alpha  occ. eigenvalues --   -0.63307  -0.62676  -0.60681  -0.55841  -0.53868
 Alpha  occ. eigenvalues --   -0.53675  -0.53414  -0.51708  -0.51434  -0.49755
 Alpha  occ. eigenvalues --   -0.49680  -0.47783  -0.47738  -0.45837  -0.43853
 Alpha  occ. eigenvalues --   -0.37935  -0.36917  -0.35960  -0.34893
 Alpha virt. eigenvalues --    0.04285   0.06239   0.10743   0.12744   0.15844
 Alpha virt. eigenvalues --    0.17830   0.20920   0.22883   0.26852   0.27787
 Alpha virt. eigenvalues --    0.28918   0.29588   0.30520   0.31978   0.32505

 Mulliken charges:
               1
     1  C   -0.169666
     2  C   -0.218598
     3  C   -0.170446
     4  C    0.157871
     5  C   -0.170555
     6  C   -0.218574
     7  H    0.227926
     8  H    0.225787
     9  H    0.277025
    10  H    0.275509
    11  H    0.225296
    12  N    0.488727
    13  O   -0.467718
    14  O   -0.457943
    15  C   -0.171621
    16  C   -0.211507
    17  C   -0.173423
    18  C    0.157808
    19  C   -0.174426
    20  C   -0.218854
    21  H    0.222625
    22  H    0.243126
    23  H    0.273626
    24  H    0.270213
    25  H    0.217345
    26  N    0.488129
    27  O   -0.464971
    28  O   -0.462712
 Sum of Mulliken charges =  -0.00000

 Dipole moment (field-independent basis, Debye):
    X=              8.7581    Y=              3.3378    Z=              1.2724  Tot=              9.4585
 Quadrupole moment (field-independent basis, Debye-Ang):
   XX=            -93.0397   YY=           -105.9894   ZZ=            -98.7472
   XY=            -21.6909   XZ=              0.5816   YZ=              0.1004

 Normal termination of Gaussian 16 at Thu May  6 18:11:31 2021.
