 Gaussian 16, Revision A.03,
 Gaussian 16:  EM64L-G16RevA.03 25-Dec-2016

 -------------
 #p 6-31g* mp2
 -------------

 ------------------------------------------------------
 Input file generated by CHIRIPA (05-May-2021 14:55:21)
 ------------------------------------------------------
 Symbolic Z-matrix:
 Charge =  0 Multiplicity = 1

                         Standard orientation:
 ---------------------------------------------------------------------
 Center     Atomic      Atomic             Coordinates (Angstroms)
 Number     Number       Type             X           Y           Z
 ---------------------------------------------------------------------
      1          6           0       -2.741789    1.792371   -1.511204
      2          6           0       -1.891993    2.032257   -0.426389
      3          6           0       -1.599234    1.013388    0.485065
      4          6           0       -2.176204   -0.239014    0.280409
      5          6           0       -3.026666   -0.509128   -0.790592
      6          6           0       -3.305419    0.524680   -1.689529
      7          1           0       -2.963771    2.589655   -2.214381
      8          1           0       -1.452845    3.015779   -0.285404
      9          1           0       -0.944695    1.171649    1.333563
     10          1           0       -3.449412   -1.499912   -0.904833
     11          1           0       -3.965732    0.335504   -2.531101
     12          7           0       -1.873687   -1.325552    1.238699
     13          8           0       -2.394679   -2.420174    1.036193
     14          8           0       -1.121311   -1.061985    2.174167
     15          6           0        3.095764    0.799688   -0.150550
     16          6           0        2.286275    1.708261    0.775304
     17          6           0        2.791301    3.151431    0.776910
     18          1           0        4.150446    0.820245    0.156319
     19          1           0        3.059531    1.202953   -1.172050
     20          1           0        2.322879    1.302643    1.794494
     21          1           0        1.233365    1.685389    0.466313
     22          1           0        2.738848    3.579050   -0.229565
     23          1           0        3.834552    3.194130    1.106164
     24          1           0        2.198433    3.783495    1.445387
     25          6           0        2.602957   -0.646242   -0.162976
     26          6           0        3.412446   -1.554816   -1.088831
     27          6           0        2.907419   -2.997986   -1.090438
     28          1           0        2.639190   -1.049507    0.858522
     29          1           0        1.548275   -0.666800   -0.469846
     30          1           0        4.465355   -1.531944   -0.779840
     31          1           0        3.375842   -1.149199   -2.108022
     32          1           0        1.864169   -3.040685   -1.419690
     33          1           0        2.959873   -3.425606   -0.083963
     34          1           0        3.500289   -3.630049   -1.758915
 ---------------------------------------------------------------------

 SCF Done:  E(RHF) =  -669.535234240     A.U. after   15 cycles
 E2 =    -0.2092883602D+01 EUMP2 =    -0.67162811784142D+03

 The electronic state is 1-A.
 Alpha  occ. eigenvalues --  -20.60789 -20.60779 -15.85840 -11.31232 -11.27812
 Alpha  occ. eigenvalues --  -11.27773 -11.27553 -11.26826 -11.26814 -11.21783
 Alpha  occ. eigenvalues --  -11.21396 -11.21387 -11.21371 -11.21129 -11.20714
 Alpha  occ. eigenvalues --   -1.59859  -1.39411  -1.19415  -1.08799  -1.08371
 Alpha  occ. eigenvalues --   -1.04823  -1.03504  -0.95936  -0.95630  -0.86952
 Alpha  occ. eigenvalues --   -0.86210  -0.82464  -0.79605  -0.78164  -0.77480
 Alpha  occ. eigenvalues --   -0.72057  -0.71182  -0.70519  -0.65101  -0.64995
 Alpha  occ. eigenvalues --   -0.64799  -0.62196  -0.60883  -0.59335  -0.57541
 Alpha  occ. eigenvalues --   -0.55318  -0.55211  -0.53166  -0.52923  -0.52645
 Alpha  occ. eigenvalues --   -0.52340  -0.49871  -0.48819  -0.48809  -0.47884
 Alpha  occ. eigenvalues --   -0.46627  -0.45713  -0.45580  -0.44785  -0.43735
 Alpha  occ. eigenvalues --   -0.37391  -0.36375
 Alpha virt. eigenvalues --    0.04986   0.11182   0.16397   0.20855   0.23024
 Alpha virt. eigenvalues --    0.24205   0.26243   0.26876   0.27570   0.28148
 Alpha virt. eigenvalues --    0.29007   0.30669   0.31551   0.31599   0.32009

 Mulliken charges:
               1
     1  C   -0.170762
     2  C   -0.219904
     3  C   -0.170485
     4  C    0.156460
     5  C   -0.171334
     6  C   -0.218569
     7  H    0.225902
     8  H    0.224732
     9  H    0.279728
    10  H    0.275848
    11  H    0.223688
    12  N    0.488210
    13  O   -0.460498
    14  O   -0.459636
    15  C   -0.297389
    16  C   -0.306060
    17  C   -0.475889
    18  H    0.150603
    19  H    0.147013
    20  H    0.159157
    21  H    0.145853
    22  H    0.152835
    23  H    0.158773
    24  H    0.156305
    25  C   -0.299084
    26  C   -0.300022
    27  C   -0.475570
    28  H    0.158211
    29  H    0.147430
    30  H    0.151305
    31  H    0.148990
    32  H    0.155812
    33  H    0.159868
    34  H    0.158479
 Sum of Mulliken charges =  -0.00000

 Dipole moment (field-independent basis, Debye):
    X=             -1.0695    Y=              3.7113    Z=             -3.2992  Tot=              5.0796
 Quadrupole moment (field-independent basis, Debye-Ang):
   XX=            -88.3981   YY=            -96.3427   ZZ=            -95.2554
   XY=             -6.7016   XZ=              9.7451   YZ=              3.2913

 Normal termination of Gaussian 16 at Thu May  6 01:26:17 2021.
