 Gaussian 16, Revision A.03,
 Gaussian 16:  EM64L-G16RevA.03 25-Dec-2016

 -------------
 #p 6-31g* mp2
 -------------

 ------------------------------------------------------
 Input file generated by CHIRIPA (05-May-2021 14:51:10)
 ------------------------------------------------------
 Symbolic Z-matrix:
 Charge =  0 Multiplicity = 1

                         Standard orientation:
 ---------------------------------------------------------------------
 Center     Atomic      Atomic             Coordinates (Angstroms)
 Number     Number       Type             X           Y           Z
 ---------------------------------------------------------------------
      1          6           0        4.064770   -0.413552    0.233756
      2          6           0        4.525636   -1.574428   -0.648261
      3          6           0        5.224574   -2.678642    0.145459
      4          1           0        4.932936    0.005202    0.760896
      5          1           0        3.384785   -0.797170    1.006965
      6          1           0        5.203462   -1.188519   -1.420428
      7          1           0        3.656301   -1.990344   -1.173510
      8          1           0        4.552853   -3.091123    0.905229
      9          1           0        6.108805   -2.284742    0.656908
     10          1           0        5.545733   -3.498507   -0.504572
     11          6           0        3.364251    0.698221   -0.545323
     12          6           0        2.903385    1.859097    0.336694
     13          6           0        2.204446    2.963311   -0.457026
     14          1           0        4.044236    1.081838   -1.318532
     15          1           0        2.496085    0.279467   -1.072464
     16          1           0        3.772720    2.275013    0.861943
     17          1           0        2.225558    1.473188    1.108861
     18          1           0        1.320216    2.569411   -0.968475
     19          1           0        2.876168    3.375792   -1.216796
     20          1           0        1.883288    3.783176    0.193005
     21          6           0       -4.386878   -0.458071    0.333731
     22          6           0       -5.448085   -0.277100   -0.752122
     23          6           0       -6.787709   -0.914161   -0.381509
     24          1           0       -4.244449   -1.530815    0.523147
     25          1           0       -4.754562   -0.021031    1.272453
     26          1           0       -5.077939   -0.713124   -1.688867
     27          1           0       -5.587865    0.795333   -0.939111
     28          1           0       -7.182595   -0.472720    0.539250
     29          1           0       -6.669772   -1.989748   -0.214766
     30          1           0       -7.531699   -0.772915   -1.171691
     31          6           0       -3.042143    0.173402   -0.022163
     32          6           0       -1.980936   -0.007569    1.063689
     33          6           0       -0.641312    0.629492    0.693075
     34          1           0       -2.674459   -0.263638   -0.960885
     35          1           0       -3.184572    1.246146   -0.211580
     36          1           0       -1.841155   -1.080002    1.250678
     37          1           0       -2.351081    0.428455    2.000434
     38          1           0       -0.759249    1.705080    0.526332
     39          1           0       -0.246426    0.188052   -0.227683
     40          1           0        0.102679    0.488246    1.483258
 ---------------------------------------------------------------------

 SCF Done:  E(RHF) =  -470.732484122     A.U. after   11 cycles
 E2 =    -0.1583627080D+01 EUMP2 =    -0.47231611120198D+03

 The electronic state is 1-A.
 Alpha  occ. eigenvalues --  -11.21655 -11.21629 -11.21565 -11.21448 -11.21425
 Alpha  occ. eigenvalues --  -11.21387 -11.21333 -11.21261 -11.21148 -11.21092
 Alpha  occ. eigenvalues --  -11.21046 -11.20923  -1.08480  -1.08343  -1.03605
 Alpha  occ. eigenvalues --   -1.03420  -0.96058  -0.95878  -0.87063  -0.86915
 Alpha  occ. eigenvalues --   -0.79662  -0.79505  -0.78288  -0.78167  -0.65110
 Alpha  occ. eigenvalues --   -0.64985  -0.60981  -0.60889  -0.59418  -0.59236
 Alpha  occ. eigenvalues --   -0.57674  -0.57492  -0.55423  -0.55108  -0.52750
 Alpha  occ. eigenvalues --   -0.52586  -0.52469  -0.52308  -0.50061  -0.49744
 Alpha  occ. eigenvalues --   -0.47994  -0.47813  -0.46673  -0.46516  -0.45858
 Alpha  occ. eigenvalues --   -0.45758  -0.45687  -0.45584  -0.43774  -0.43685
 Alpha virt. eigenvalues --    0.20984   0.22978   0.23872   0.24693   0.25964
 Alpha virt. eigenvalues --    0.26166   0.26628   0.27669   0.27907   0.29405
 Alpha virt. eigenvalues --    0.30523   0.30988   0.31489   0.31835   0.32460

 Mulliken charges:
               1
     1  C   -0.298268
     2  C   -0.299497
     3  C   -0.475649
     4  H    0.149508
     5  H    0.149044
     6  H    0.151890
     7  H    0.151532
     8  H    0.155022
     9  H    0.155153
    10  H    0.160054
    11  C   -0.299638
    12  C   -0.302807
    13  C   -0.477493
    14  H    0.149054
    15  H    0.150714
    16  H    0.150871
    17  H    0.157643
    18  H    0.158541
    19  H    0.153999
    20  H    0.158796
    21  C   -0.298285
    22  C   -0.299659
    23  C   -0.475729
    24  H    0.149684
    25  H    0.149650
    26  H    0.151948
    27  H    0.152050
    28  H    0.155237
    29  H    0.155200
    30  H    0.160367
    31  C   -0.298752
    32  C   -0.300596
    33  C   -0.479129
    34  H    0.149357
    35  H    0.149856
    36  H    0.151802
    37  H    0.152219
    38  H    0.158592
    39  H    0.155856
    40  H    0.161865
 Sum of Mulliken charges =  -0.00000

 Dipole moment (field-independent basis, Debye):
    X=             -0.0608    Y=              0.0004    Z=              0.0129  Tot=              0.0622
 Quadrupole moment (field-independent basis, Debye-Ang):
   XX=            -85.4176   YY=            -84.8443   ZZ=            -84.7962
   XY=              0.1089   XZ=             -0.3455   YZ=              0.7813

 Normal termination of Gaussian 16 at Wed May  5 16:41:17 2021.
