 Gaussian 16, Revision A.03,
 Gaussian 16:  EM64L-G16RevA.03 25-Dec-2016

 -------------
 #p 6-31g* mp2
 -------------

 ------------------------------------------------------
 Input file generated by CHIRIPA (05-May-2021 14:51:12)
 ------------------------------------------------------
 Symbolic Z-matrix:
 Charge =  0 Multiplicity = 1

                         Standard orientation:
 ---------------------------------------------------------------------
 Center     Atomic      Atomic             Coordinates (Angstroms)
 Number     Number       Type             X           Y           Z
 ---------------------------------------------------------------------
      1          6           0       -2.323872   -0.793525    0.455095
      2          6           0       -2.351466   -2.244454   -0.026597
      3          6           0       -1.356739   -3.134091    0.719632
      4          1           0       -1.308266   -0.392692    0.333346
      5          1           0       -2.543176   -0.767615    1.531491
      6          1           0       -2.133539   -2.267499   -1.102047
      7          1           0       -3.367170   -2.641819    0.096134
      8          1           0       -1.575397   -3.140864    1.792359
      9          1           0       -0.334757   -2.764417    0.587370
     10          1           0       -1.393180   -4.166949    0.359440
     11          6           0       -3.312855    0.108233   -0.281433
     12          6           0       -3.285260    1.559162    0.200258
     13          6           0       -4.279987    2.448799   -0.545970
     14          1           0       -3.093551    0.082323   -1.357830
     15          1           0       -4.328461   -0.292600   -0.159685
     16          1           0       -2.269556    1.956527    0.077527
     17          1           0       -3.503187    1.582207    1.275708
     18          1           0       -5.301970    2.079125   -0.413709
     19          1           0       -4.061329    2.455572   -1.618698
     20          1           0       -4.243546    3.481657   -0.185779
     21          6           0        2.526054    1.032323   -0.236269
     22          6           0        3.213059    2.161598    0.532331
     23          6           0        2.617157    3.535232    0.222778
     24          1           0        2.601600    1.231957   -1.313944
     25          1           0        1.454528    1.031488    0.007100
     26          1           0        4.283213    2.159430    0.288647
     27          1           0        3.136035    1.959155    1.608296
     28          1           0        1.554019    3.561447    0.482879
     29          1           0        2.707716    3.762859   -0.844268
     30          1           0        3.123097    4.327806    0.782877
     31          6           0        3.110673   -0.347031    0.062608
     32          6           0        2.423668   -1.476306   -0.705993
     33          6           0        3.019569   -2.849940   -0.396439
     34          1           0        4.182198   -0.346196   -0.180762
     35          1           0        3.035126   -0.546665    1.140283
     36          1           0        2.500692   -1.273863   -1.781958
     37          1           0        1.353514   -1.474138   -0.462308
     38          1           0        2.929011   -3.077567    0.670606
     39          1           0        4.082707   -2.876155   -0.656540
     40          1           0        2.513630   -3.642514   -0.956540
 ---------------------------------------------------------------------

 SCF Done:  E(RHF) =  -470.733334300     A.U. after   11 cycles
 E2 =    -0.1583419456D+01 EUMP2 =    -0.47231675375585D+03

 The electronic state is 1-A.
 Alpha  occ. eigenvalues --  -11.21642 -11.21631 -11.21625 -11.21619 -11.21450
 Alpha  occ. eigenvalues --  -11.21440 -11.21389 -11.21377 -11.21096 -11.21091
 Alpha  occ. eigenvalues --  -11.21081 -11.21059  -1.08482  -1.08446  -1.03587
 Alpha  occ. eigenvalues --   -1.03527  -0.96031  -0.95976  -0.87025  -0.87012
 Alpha  occ. eigenvalues --   -0.79662  -0.79581  -0.78338  -0.78222  -0.65243
 Alpha  occ. eigenvalues --   -0.64964  -0.61167  -0.60772  -0.59390  -0.59347
 Alpha  occ. eigenvalues --   -0.57666  -0.57567  -0.55431  -0.55145  -0.52705
 Alpha  occ. eigenvalues --   -0.52681  -0.52440  -0.52411  -0.49993  -0.49900
 Alpha  occ. eigenvalues --   -0.48045  -0.47853  -0.46832  -0.46495  -0.46094
 Alpha  occ. eigenvalues --   -0.45797  -0.45769  -0.45376  -0.43824  -0.43797
 Alpha virt. eigenvalues --    0.19551   0.22715   0.23475   0.24564   0.25257
 Alpha virt. eigenvalues --    0.26826   0.27041   0.27319   0.28650   0.29958
 Alpha virt. eigenvalues --    0.30376   0.31627   0.31703   0.31835   0.32000

 Mulliken charges:
               1
     1  C   -0.302223
     2  C   -0.299217
     3  C   -0.482776
     4  H    0.151588
     5  H    0.149642
     6  H    0.152239
     7  H    0.152207
     8  H    0.154998
     9  H    0.162178
    10  H    0.160538
    11  C   -0.298141
    12  C   -0.299737
    13  C   -0.475726
    14  H    0.149964
    15  H    0.149893
    16  H    0.151588
    17  H    0.151870
    18  H    0.155218
    19  H    0.155420
    20  H    0.160370
    21  C   -0.300455
    22  C   -0.299651
    23  C   -0.475783
    24  H    0.149729
    25  H    0.150467
    26  H    0.152154
    27  H    0.152305
    28  H    0.155157
    29  H    0.155147
    30  H    0.160481
    31  C   -0.297694
    32  C   -0.307913
    33  C   -0.475784
    34  H    0.149906
    35  H    0.149994
    36  H    0.152263
    37  H    0.157636
    38  H    0.155793
    39  H    0.155412
    40  H    0.160946
 Sum of Mulliken charges =  -0.00000

 Dipole moment (field-independent basis, Debye):
    X=              0.0137    Y=             -0.0057    Z=             -0.0034  Tot=              0.0152
 Quadrupole moment (field-independent basis, Debye-Ang):
   XX=            -84.2617   YY=            -86.4035   ZZ=            -83.9096
   XY=              1.0636   XZ=             -1.3353   YZ=              0.2411

 Normal termination of Gaussian 16 at Thu May  6 03:56:39 2021.
