 Gaussian 16, Revision A.03,
 Gaussian 16:  EM64L-G16RevA.03 25-Dec-2016

 -------------
 #p 6-31g* mp2
 -------------

 ------------------------------------------------------
 Input file generated by CHIRIPA (05-May-2021 14:51:13)
 ------------------------------------------------------
 Symbolic Z-matrix:
 Charge =  0 Multiplicity = 1

                         Standard orientation:
 ---------------------------------------------------------------------
 Center     Atomic      Atomic             Coordinates (Angstroms)
 Number     Number       Type             X           Y           Z
 ---------------------------------------------------------------------
      1          6           0       -3.559585    0.189528    0.466684
      2          6           0       -4.491595   -0.719419   -0.335289
      3          6           0       -5.292686   -1.674045    0.550565
      4          1           0       -2.870821   -0.430829    1.056350
      5          1           0       -4.153888    0.768216    1.187322
      6          1           0       -3.895877   -1.295210   -1.055151
      7          1           0       -5.178095   -0.096826   -0.923261
      8          1           0       -5.911270   -1.114167    1.259431
      9          1           0       -4.621768   -2.319360    1.126792
     10          1           0       -5.952333   -2.314490   -0.043200
     11          6           0       -2.751960    1.149581   -0.404962
     12          6           0       -1.819951    2.058528    0.397010
     13          6           0       -1.018859    3.013154   -0.488843
     14          1           0       -2.157658    0.570893   -1.125601
     15          1           0       -3.440724    1.769938   -0.994629
     16          1           0       -1.133451    1.435935    0.984983
     17          1           0       -2.415668    2.634318    1.116872
     18          1           0       -1.689778    3.658468   -1.065071
     19          1           0       -0.400275    2.453276   -1.197710
     20          1           0       -0.359213    3.653599    0.104922
     21          6           0        2.411191   -0.678001    0.139308
     22          6           0        1.627396   -1.747912   -0.621575
     23          6           0        0.139288   -1.752317   -0.270423
     24          1           0        2.288207   -0.840663    1.218827
     25          1           0        1.978971    0.308275   -0.079416
     26          1           0        2.061834   -2.731739   -0.402567
     27          1           0        1.752416   -1.582798   -1.699408
     28          1           0       -0.314870   -0.784290   -0.505510
     29          1           0       -0.003693   -1.939758    0.798699
     30          1           0       -0.401935   -2.524761   -0.825642
     31          6           0        3.900355   -0.661108   -0.201029
     32          6           0        4.684149    0.408803    0.559853
     33          6           0        6.172258    0.413208    0.208702
     34          1           0        4.332575   -1.647384    0.017694
     35          1           0        4.023338   -0.498445   -1.280549
     36          1           0        4.559130    0.243689    1.637687
     37          1           0        4.249712    1.392630    0.340845
     38          1           0        6.315239    0.600650   -0.860420
     39          1           0        6.626415   -0.554819    0.443789
     40          1           0        6.713480    1.185653    0.763921
 ---------------------------------------------------------------------

 SCF Done:  E(RHF) =  -470.733141549     A.U. after   11 cycles
 E2 =    -0.1583688530D+01 EUMP2 =    -0.47231683007812D+03

 The electronic state is 1-A.
 Alpha  occ. eigenvalues --  -11.21668 -11.21620 -11.21579 -11.21540 -11.21450
 Alpha  occ. eigenvalues --  -11.21388 -11.21350 -11.21283 -11.21145 -11.21103
 Alpha  occ. eigenvalues --  -11.21085 -11.21021  -1.08482  -1.08385  -1.03583
 Alpha  occ. eigenvalues --   -1.03497  -0.96047  -0.95938  -0.87060  -0.86961
 Alpha  occ. eigenvalues --   -0.79647  -0.79558  -0.78287  -0.78203  -0.65232
 Alpha  occ. eigenvalues --   -0.64947  -0.61085  -0.60801  -0.59389  -0.59320
 Alpha  occ. eigenvalues --   -0.57637  -0.57562  -0.55453  -0.55127  -0.52722
 Alpha  occ. eigenvalues --   -0.52651  -0.52470  -0.52348  -0.50119  -0.49754
 Alpha  occ. eigenvalues --   -0.48000  -0.47846  -0.46717  -0.46576  -0.45918
 Alpha  occ. eigenvalues --   -0.45795  -0.45629  -0.45542  -0.43831  -0.43748
 Alpha virt. eigenvalues --    0.19926   0.22796   0.23686   0.24832   0.26037
 Alpha virt. eigenvalues --    0.26472   0.26934   0.27576   0.28494   0.29731
 Alpha virt. eigenvalues --    0.30355   0.31064   0.31669   0.31803   0.32121

 Mulliken charges:
               1
     1  C   -0.299597
     2  C   -0.299777
     3  C   -0.475753
     4  H    0.152698
     5  H    0.149097
     6  H    0.152566
     7  H    0.151474
     8  H    0.154910
     9  H    0.155405
    10  H    0.159963
    11  C   -0.301700
    12  C   -0.302416
    13  C   -0.476148
    14  H    0.151355
    15  H    0.150127
    16  H    0.154207
    17  H    0.152370
    18  H    0.155568
    19  H    0.153986
    20  H    0.160454
    21  C   -0.299830
    22  C   -0.299704
    23  C   -0.483797
    24  H    0.149658
    25  H    0.150771
    26  H    0.152269
    27  H    0.151973
    28  H    0.163889
    29  H    0.155057
    30  H    0.160251
    31  C   -0.298280
    32  C   -0.299788
    33  C   -0.475745
    34  H    0.149674
    35  H    0.149764
    36  H    0.151950
    37  H    0.152297
    38  H    0.155256
    39  H    0.155174
    40  H    0.160373
 Sum of Mulliken charges =  -0.00000

 Dipole moment (field-independent basis, Debye):
    X=              0.0202    Y=             -0.0086    Z=              0.0088  Tot=              0.0236
 Quadrupole moment (field-independent basis, Debye-Ang):
   XX=            -85.8660   YY=            -84.4574   ZZ=            -84.4873
   XY=             -1.2631   XZ=              0.5565   YZ=             -0.0475

 Normal termination of Gaussian 16 at Wed May  5 16:51:52 2021.
