 Gaussian 16, Revision A.03,
 Gaussian 16:  EM64L-G16RevA.03 25-Dec-2016

 -------------
 #p 6-31g* mp2
 -------------

 ------------------------------------------------------
 Input file generated by CHIRIPA (05-May-2021 14:53:13)
 ------------------------------------------------------
 Symbolic Z-matrix:
 Charge =  0 Multiplicity = 1

                         Standard orientation:
 ---------------------------------------------------------------------
 Center     Atomic      Atomic             Coordinates (Angstroms)
 Number     Number       Type             X           Y           Z
 ---------------------------------------------------------------------
      1          6           0        4.128629   -0.153803    0.376031
      2          6           0        3.538358   -1.564308    0.369770
      3          6           0        2.115267   -1.612077    0.926836
      4          1           0        4.122329    0.234885    1.403566
      5          1           0        3.480760    0.509888   -0.213186
      6          1           0        4.187885   -2.225443    0.957675
      7          1           0        3.546241   -1.949757   -0.657841
      8          1           0        1.448736   -0.975429    0.336059
      9          1           0        2.094026   -1.252682    1.960753
     10          1           0        1.712697   -2.629726    0.913066
     11          6           0        5.550867   -0.089798   -0.177926
     12          6           0        6.141138    1.320708   -0.171665
     13          6           0        7.564229    1.368477   -0.728731
     14          1           0        6.198736   -0.753488    0.411291
     15          1           0        5.557167   -0.478485   -1.205461
     16          1           0        6.133255    1.706156    0.855946
     17          1           0        5.491611    1.981843   -0.759570
     18          1           0        7.585470    1.009082   -1.762648
     19          1           0        8.230760    0.731829   -0.137954
     20          1           0        7.966799    2.386125   -0.714961
     21          6           0       -2.793777   -2.207270   -0.377452
     22          6           0       -4.153680   -1.991248   -0.623462
     23          6           0       -4.711476   -0.719697   -0.460462
     24          6           0       -3.876500    0.317746   -0.048375
     25          6           0       -2.517965    0.134203    0.204584
     26          6           0       -1.981692   -1.145727    0.035059
     27          1           0       -2.368827   -3.198296   -0.506609
     28          1           0       -4.786748   -2.813789   -0.943924
     29          1           0       -5.761064   -0.524503   -0.643985
     30          1           0       -1.912109    0.973837    0.522972
     31          1           0       -0.925239   -1.310562    0.226839
     32          7           0       -4.455620    1.668316    0.127640
     33          8           0       -3.698714    2.565686    0.491586
     34          8           0       -5.655477    1.803949   -0.101680
 ---------------------------------------------------------------------

 SCF Done:  E(RHF) =  -669.535596182     A.U. after   15 cycles
 E2 =    -0.2090790501D+01 EUMP2 =    -0.67162638668356D+03

 The electronic state is 1-A.
 Alpha  occ. eigenvalues --  -20.60707 -20.60702 -15.85759 -11.31109 -11.27677
 Alpha  occ. eigenvalues --  -11.27658 -11.27406 -11.26695 -11.26617 -11.22383
 Alpha  occ. eigenvalues --  -11.22201 -11.21959 -11.21920 -11.21799 -11.21325
 Alpha  occ. eigenvalues --   -1.59783  -1.39337  -1.19275  -1.08977  -1.08673
 Alpha  occ. eigenvalues --   -1.04675  -1.04124  -0.96601  -0.95513  -0.87634
 Alpha  occ. eigenvalues --   -0.86070  -0.82346  -0.80203  -0.78744  -0.77393
 Alpha  occ. eigenvalues --   -0.71978  -0.71105  -0.70388  -0.65613  -0.64925
 Alpha  occ. eigenvalues --   -0.64687  -0.62070  -0.61483  -0.59991  -0.58180
 Alpha  occ. eigenvalues --   -0.55909  -0.55172  -0.53365  -0.53077  -0.53007
 Alpha  occ. eigenvalues --   -0.52663  -0.50521  -0.48738  -0.48734  -0.48499
 Alpha  occ. eigenvalues --   -0.47204  -0.46298  -0.46190  -0.44746  -0.44360
 Alpha  occ. eigenvalues --   -0.37259  -0.36277
 Alpha virt. eigenvalues --    0.05134   0.11367   0.16625   0.20458   0.22468
 Alpha virt. eigenvalues --    0.23810   0.25425   0.26288   0.27074   0.28198
 Alpha virt. eigenvalues --    0.28811   0.30209   0.30946   0.31181   0.32130

 Mulliken charges:
               1
     1  C   -0.299533
     2  C   -0.299117
     3  C   -0.481967
     4  H    0.151429
     5  H    0.150336
     6  H    0.155199
     7  H    0.153232
     8  H    0.149311
     9  H    0.160866
    10  H    0.158137
    11  C   -0.298849
    12  C   -0.300255
    13  C   -0.476056
    14  H    0.150310
    15  H    0.150162
    16  H    0.152929
    17  H    0.153067
    18  H    0.155465
    19  H    0.155445
    20  H    0.161816
    21  C   -0.173038
    22  C   -0.218372
    23  C   -0.171470
    24  C    0.158805
    25  C   -0.173809
    26  C   -0.227513
    27  H    0.225685
    28  H    0.222954
    29  H    0.275245
    30  H    0.275262
    31  H    0.237593
    32  N    0.488106
    33  O   -0.460606
    34  O   -0.460772
 Sum of Mulliken charges =  -0.00000

 Dipole moment (field-independent basis, Debye):
    X=              2.2909    Y=             -4.7592    Z=             -0.5975  Tot=              5.3156
 Quadrupole moment (field-independent basis, Debye-Ang):
   XX=           -106.8344   YY=            -97.7768   ZZ=            -94.3656
   XY=             20.8242   XZ=              4.5541   YZ=              0.5091

 Normal termination of Gaussian 16 at Thu May  6 05:46:37 2021.
