 Gaussian 16, Revision A.03,
 Gaussian 16:  EM64L-G16RevA.03 25-Dec-2016

 -------------
 #p 6-31g* mp2
 -------------

 ------------------------------------------------------
 Input file generated by CHIRIPA (05-May-2021 14:51:08)
 ------------------------------------------------------
 Symbolic Z-matrix:
 Charge =  0 Multiplicity = 1

                         Standard orientation:
 ---------------------------------------------------------------------
 Center     Atomic      Atomic             Coordinates (Angstroms)
 Number     Number       Type             X           Y           Z
 ---------------------------------------------------------------------
      1          6           0       -3.254086   -0.723390   -0.007964
      2          6           0       -2.017113    0.142700   -0.248322
      3          6           0       -0.715892   -0.658740   -0.200241
      4          1           0       -3.162844   -1.218920    0.968289
      5          1           0       -3.286140   -1.521961   -0.762053
      6          1           0       -1.988147    0.940229    0.505153
      7          1           0       -2.111399    0.636375   -1.224032
      8          1           0       -0.718914   -1.444343   -0.962750
      9          1           0       -0.594961   -1.138764    0.776260
     10          1           0        0.155646   -0.020082   -0.374588
     11          6           0       -4.562682    0.063554   -0.052972
     12          6           0       -5.799654   -0.802536    0.187387
     13          6           0       -7.100875   -0.001096    0.139306
     14          1           0       -4.530627    0.862125    0.701118
     15          1           0       -4.653924    0.559083   -1.029225
     16          1           0       -5.705368   -1.296212    1.163097
     17          1           0       -5.828621   -1.600065   -0.566088
     18          1           0       -7.221807    0.478927   -0.837195
     19          1           0       -7.097854    0.784507    0.901815
     20          1           0       -7.972413   -0.639754    0.313653
     21          6           0        4.416898   -0.119909    0.380470
     22          6           0        4.835561   -1.328352   -0.457606
     23          6           0        5.853239   -2.218725    0.256089
     24          1           0        5.308732    0.469814    0.633063
     25          1           0        3.994529   -0.471080    1.332141
     26          1           0        5.255743   -0.975043   -1.407994
     27          1           0        3.942602   -1.915161   -0.708395
     28          1           0        5.440120   -2.599143    1.195885
     29          1           0        6.760723   -1.653683    0.492311
     30          1           0        6.138632   -3.076486   -0.360886
     31          6           0        3.399870    0.779745   -0.319534
     32          6           0        2.981207    1.988188    0.518542
     33          6           0        1.963529    2.878561   -0.195153
     34          1           0        3.822239    1.130916   -1.271206
     35          1           0        2.508034    0.190023   -0.572128
     36          1           0        3.874165    2.574998    0.769331
     37          1           0        2.561024    1.634880    1.468929
     38          1           0        1.056044    2.313520   -0.431376
     39          1           0        2.376646    3.258980   -1.134949
     40          1           0        1.678135    3.736321    0.421822
 ---------------------------------------------------------------------

 SCF Done:  E(RHF) =  -470.732965040     A.U. after   11 cycles
 E2 =    -0.1583112901D+01 EUMP2 =    -0.47231607794120D+03

 The electronic state is 1-A.
 Alpha  occ. eigenvalues --  -11.21651 -11.21617 -11.21586 -11.21564 -11.21434
 Alpha  occ. eigenvalues --  -11.21372 -11.21366 -11.21306 -11.21126 -11.21082
 Alpha  occ. eigenvalues --  -11.21065 -11.21042  -1.08464  -1.08402  -1.03578
 Alpha  occ. eigenvalues --   -1.03500  -0.96023  -0.95957  -0.87042  -0.86974
 Alpha  occ. eigenvalues --   -0.79642  -0.79560  -0.78273  -0.78218  -0.65094
 Alpha  occ. eigenvalues --   -0.65062  -0.60994  -0.60942  -0.59462  -0.59231
 Alpha  occ. eigenvalues --   -0.57652  -0.57540  -0.55304  -0.55245  -0.52761
 Alpha  occ. eigenvalues --   -0.52643  -0.52460  -0.52372  -0.49955  -0.49905
 Alpha  occ. eigenvalues --   -0.48009  -0.47837  -0.46659  -0.46583  -0.45814
 Alpha  occ. eigenvalues --   -0.45756  -0.45736  -0.45680  -0.43771  -0.43729
 Alpha virt. eigenvalues --    0.20878   0.23039   0.23568   0.25127   0.26168
 Alpha virt. eigenvalues --    0.26624   0.27045   0.27352   0.27951   0.28906
 Alpha virt. eigenvalues --    0.30657   0.31374   0.31650   0.31802   0.31962

 Mulliken charges:
               1
     1  C   -0.298641
     2  C   -0.299258
     3  C   -0.487011
     4  H    0.149687
     5  H    0.149672
     6  H    0.152474
     7  H    0.152309
     8  H    0.155616
     9  H    0.155208
    10  H    0.169888
    11  C   -0.298286
    12  C   -0.299665
    13  C   -0.475726
    14  H    0.149660
    15  H    0.149813
    16  H    0.151938
    17  H    0.151957
    18  H    0.155249
    19  H    0.155234
    20  H    0.160299
    21  C   -0.297604
    22  C   -0.299888
    23  C   -0.475695
    24  H    0.149433
    25  H    0.149622
    26  H    0.151742
    27  H    0.152614
    28  H    0.155188
    29  H    0.155031
    30  H    0.160154
    31  C   -0.305622
    32  C   -0.299410
    33  C   -0.480427
    34  H    0.149392
    35  H    0.156198
    36  H    0.152104
    37  H    0.152078
    38  H    0.158921
    39  H    0.155319
    40  H    0.160432
 Sum of Mulliken charges =  -0.00000

 Dipole moment (field-independent basis, Debye):
    X=             -0.0222    Y=             -0.0045    Z=             -0.0032  Tot=              0.0228
 Quadrupole moment (field-independent basis, Debye-Ang):
   XX=            -85.8248   YY=            -85.2337   ZZ=            -83.7360
   XY=              1.4052   XZ=             -0.5243   YZ=              0.2463

 Normal termination of Gaussian 16 at Thu May  6 02:06:55 2021.
