 Gaussian 16, Revision A.03,
 Gaussian 16:  EM64L-G16RevA.03 25-Dec-2016

 -------------
 #p 6-31g* mp2
 -------------

 ------------------------------------------------------
 Input file generated by CHIRIPA (05-May-2021 14:53:14)
 ------------------------------------------------------
 Symbolic Z-matrix:
 Charge =  0 Multiplicity = 1

                         Standard orientation:
 ---------------------------------------------------------------------
 Center     Atomic      Atomic             Coordinates (Angstroms)
 Number     Number       Type             X           Y           Z
 ---------------------------------------------------------------------
      1          6           0       -3.522466   -0.006132    0.433310
      2          6           0       -4.156753   -0.122389   -0.953106
      3          6           0       -5.469819    0.652305   -1.069306
      4          1           0       -4.233528   -0.371859    1.186688
      5          1           0       -3.344906    1.054307    0.659884
      6          1           0       -4.331792   -1.182385   -1.177571
      7          1           0       -3.444025    0.243479   -1.703290
      8          1           0       -5.307862    1.716825   -0.871400
      9          1           0       -6.200673    0.282859   -0.342694
     10          1           0       -5.905998    0.555500   -2.068424
     11          6           0       -2.209138   -0.775244    0.565091
     12          6           0       -1.574851   -0.658987    1.951507
     13          6           0       -0.261785   -1.433680    2.067706
     14          1           0       -2.386698   -1.835683    0.338516
     15          1           0       -1.498076   -0.409517   -0.188288
     16          1           0       -2.287579   -1.024855    2.701690
     17          1           0       -1.399812    0.401010    2.175971
     18          1           0        0.469068   -1.064235    1.341095
     19          1           0       -0.423742   -2.498201    1.869801
     20          1           0        0.174393   -1.336875    3.066825
     21          6           0        2.652216   -2.041121   -1.220518
     22          6           0        1.848389   -1.167966   -1.960776
     23          6           0        1.612551    0.134311   -1.510217
     24          6           0        2.198950    0.532061   -0.309709
     25          6           0        3.004529   -0.314467    0.450372
     26          6           0        3.226708   -1.612341   -0.019424
     27          1           0        2.830115   -3.051051   -1.577994
     28          1           0        1.400933   -1.498239   -2.893916
     29          1           0        0.994407    0.830941   -2.063409
     30          1           0        3.436913    0.043470    1.376840
     31          1           0        3.851406   -2.288279    0.557556
     32          7           0        1.956511    1.908393    0.177460
     33          8           0        2.484664    2.234576    1.238260
     34          8           0        1.242924    2.634917   -0.510721
 ---------------------------------------------------------------------

 SCF Done:  E(RHF) =  -669.534627092     A.U. after   15 cycles
 E2 =    -0.2094090945D+01 EUMP2 =    -0.67162871803742D+03

 The electronic state is 1-A.
 Alpha  occ. eigenvalues --  -20.60856 -20.60847 -15.85908 -11.31265 -11.27880
 Alpha  occ. eigenvalues --  -11.27821 -11.27600 -11.26889 -11.26854 -11.21534
 Alpha  occ. eigenvalues --  -11.21396 -11.21273 -11.21191 -11.20959 -11.20856
 Alpha  occ. eigenvalues --   -1.59931  -1.39483  -1.19486  -1.08856  -1.08290
 Alpha  occ. eigenvalues --   -1.04876  -1.03395  -0.95856  -0.95684  -0.86876
 Alpha  occ. eigenvalues --   -0.86260  -0.82515  -0.79469  -0.78112  -0.77563
 Alpha  occ. eigenvalues --   -0.72124  -0.71269  -0.70564  -0.65115  -0.64929
 Alpha  occ. eigenvalues --   -0.64855  -0.62211  -0.60828  -0.59222  -0.57488
 Alpha  occ. eigenvalues --   -0.55361  -0.55283  -0.53346  -0.52949  -0.52547
 Alpha  occ. eigenvalues --   -0.52127  -0.49739  -0.48885  -0.48879  -0.47740
 Alpha  occ. eigenvalues --   -0.46461  -0.45628  -0.45553  -0.44882  -0.43654
 Alpha  occ. eigenvalues --   -0.37426  -0.36429
 Alpha virt. eigenvalues --    0.04947   0.11118   0.16434   0.21274   0.22895
 Alpha virt. eigenvalues --    0.24364   0.26358   0.27183   0.27655   0.28200
 Alpha virt. eigenvalues --    0.28439   0.30953   0.31511   0.31923   0.32056

 Mulliken charges:
               1
     1  C   -0.299050
     2  C   -0.298880
     3  C   -0.475867
     4  H    0.149153
     5  H    0.155101
     6  H    0.149337
     7  H    0.149906
     8  H    0.157910
     9  H    0.155007
    10  H    0.158954
    11  C   -0.298229
    12  C   -0.301086
    13  C   -0.482863
    14  H    0.145870
    15  H    0.147187
    16  H    0.151065
    17  H    0.158119
    18  H    0.164165
    19  H    0.150101
    20  H    0.158720
    21  C   -0.170752
    22  C   -0.216511
    23  C   -0.172337
    24  C    0.159681
    25  C   -0.176805
    26  C   -0.212950
    27  H    0.226400
    28  H    0.224479
    29  H    0.275928
    30  H    0.276177
    31  H    0.224498
    32  N    0.488528
    33  O   -0.459875
    34  O   -0.461082
 Sum of Mulliken charges =  -0.00000

 Dipole moment (field-independent basis, Debye):
    X=              0.9759    Y=             -4.7895    Z=             -1.7362  Tot=              5.1872
 Quadrupole moment (field-independent basis, Debye-Ang):
   XX=            -90.4437   YY=           -100.0554   ZZ=            -90.7856
   XY=            -10.4585   XZ=             -1.9202   YZ=             -0.1193

 Normal termination of Gaussian 16 at Thu May  6 20:22:10 2021.
