 Gaussian 16, Revision A.03,
 Gaussian 16:  EM64L-G16RevA.03 25-Dec-2016

 -------------
 #p 6-31g* mp2
 -------------

 ------------------------------------------------------
 Input file generated by CHIRIPA (05-May-2021 14:57:21)
 ------------------------------------------------------
 Symbolic Z-matrix:
 Charge =  0 Multiplicity = 1

                         Standard orientation:
 ---------------------------------------------------------------------
 Center     Atomic      Atomic             Coordinates (Angstroms)
 Number     Number       Type             X           Y           Z
 ---------------------------------------------------------------------
      1          6           0       -2.046748   -0.337845    0.993977
      2          6           0       -2.716243   -1.474955    0.529998
      3          6           0       -4.008287   -1.373681    0.005676
      4          6           0       -4.603590   -0.113985   -0.039819
      5          6           0       -3.962515    1.037463    0.414584
      6          6           0       -2.670920    0.912531    0.934893
      7          1           0       -1.043231   -0.425706    1.399724
      8          1           0       -2.233960   -2.447300    0.574646
      9          1           0       -4.549495   -2.237656   -0.360466
     10          1           0       -4.469179    1.993182    0.357045
     11          1           0       -2.153382    1.797338    1.294498
     12          7           0       -5.971181    0.005753   -0.592771
     13          8           0       -6.473777    1.126997   -0.621851
     14          8           0       -6.514609   -1.023909   -0.986625
     15          6           0        2.190105    1.299211    0.417532
     16          6           0        3.251212    2.006938   -0.156658
     17          6           0        4.468099    1.371374   -0.420840
     18          6           0        4.589731    0.021043   -0.096640
     19          6           0        3.551008   -0.711220    0.476190
     20          6           0        2.343119   -0.055222    0.731570
     21          1           0        1.248292    1.800870    0.619336
     22          1           0        3.135229    3.058889   -0.401591
     23          1           0        5.305883    1.895326   -0.864697
     24          1           0        3.696662   -1.759005    0.709324
     25          1           0        1.520759   -0.607362    1.177563
     26          7           0        5.873231   -0.662617   -0.371658
     27          8           0        5.955029   -1.852979   -0.076728
     28          8           0        6.773138    0.004837   -0.876940
 ---------------------------------------------------------------------

 SCF Done:  E(RHF) =  -868.336051705     A.U. after   16 cycles
 E2 =    -0.2599917908D+01 EUMP2 =    -0.87093596961347D+03

 The electronic state is 1-A.
 Alpha  occ. eigenvalues --  -20.61341 -20.61337 -20.61335 -20.61330 -15.86400
 Alpha  occ. eigenvalues --  -15.86397 -11.31933 -11.31910 -11.28549 -11.28532
 Alpha  occ. eigenvalues --  -11.28491 -11.28473 -11.28446 -11.28373 -11.27704
 Alpha  occ. eigenvalues --  -11.27673 -11.27586 -11.27524  -1.60412  -1.60409
 Alpha  occ. eigenvalues --   -1.39961  -1.39958  -1.20138  -1.20118  -1.09539
 Alpha  occ. eigenvalues --   -1.09497  -1.05559  -1.05552  -0.96343  -0.96295
 Alpha  occ. eigenvalues --   -0.86970  -0.86963  -0.83162  -0.83127  -0.78154
 Alpha  occ. eigenvalues --   -0.78135  -0.72617  -0.72615  -0.71736  -0.71733
 Alpha  occ. eigenvalues --   -0.71405  -0.71207  -0.65807  -0.65787  -0.65668
 Alpha  occ. eigenvalues --   -0.65518  -0.62908  -0.62896  -0.56217  -0.56072
 Alpha  occ. eigenvalues --   -0.53890  -0.53851  -0.53669  -0.53653  -0.49398
 Alpha  occ. eigenvalues --   -0.49378  -0.49359  -0.49357  -0.45330  -0.45328
 Alpha  occ. eigenvalues --   -0.38194  -0.38095  -0.37146  -0.37142
 Alpha virt. eigenvalues --    0.04372   0.04420   0.10470   0.10495   0.15759
 Alpha virt. eigenvalues --    0.15855   0.17030   0.22253   0.23892   0.25171
 Alpha virt. eigenvalues --    0.27705   0.28834   0.30100   0.31062   0.33032

 Mulliken charges:
               1
     1  C   -0.172812
     2  C   -0.218617
     3  C   -0.169527
     4  C    0.159517
     5  C   -0.169520
     6  C   -0.220277
     7  H    0.219610
     8  H    0.225121
     9  H    0.278603
    10  H    0.277511
    11  H    0.219632
    12  N    0.487867
    13  O   -0.458844
    14  O   -0.457952
    15  C   -0.169459
    16  C   -0.217979
    17  C   -0.169548
    18  C    0.159454
    19  C   -0.169986
    20  C   -0.219767
    21  H    0.219288
    22  H    0.225959
    23  H    0.278359
    24  H    0.277035
    25  H    0.215730
    26  N    0.487915
    27  O   -0.459243
    28  O   -0.458069
 Sum of Mulliken charges =  -0.00000

 Dipole moment (field-independent basis, Debye):
    X=              0.2825    Y=              1.9776    Z=              2.7703  Tot=              3.4154
 Quadrupole moment (field-independent basis, Debye-Ang):
   XX=           -188.9767   YY=            -95.9941   ZZ=           -106.0688
   XY=             14.6709   XZ=             -5.1172   YZ=             -1.3310

 Normal termination of Gaussian 16 at Wed May  5 16:14:30 2021.
