 Gaussian 16, Revision A.03,
 Gaussian 16:  EM64L-G16RevA.03 25-Dec-2016

 -------------
 #p 6-31g* mp2
 -------------

 ------------------------------------------------------
 Input file generated by CHIRIPA (05-May-2021 14:51:12)
 ------------------------------------------------------
 Symbolic Z-matrix:
 Charge =  0 Multiplicity = 1

                         Standard orientation:
 ---------------------------------------------------------------------
 Center     Atomic      Atomic             Coordinates (Angstroms)
 Number     Number       Type             X           Y           Z
 ---------------------------------------------------------------------
      1          6           0        3.997525   -0.007344   -0.474958
      2          6           0        5.438208   -0.124609    0.023709
      3          6           0        6.254982   -1.149160   -0.764306
      4          1           0        3.513142   -0.991381   -0.411810
      5          1           0        4.006331    0.269040   -1.538410
      6          1           0        5.426675   -0.399336    1.086257
      7          1           0        5.919159    0.859863   -0.040453
      8          1           0        6.296246   -0.876306   -1.823763
      9          1           0        5.800964   -2.142660   -0.690652
     10          1           0        7.281650   -1.216818   -0.391165
     11          6           0        3.168353    1.012995    0.302931
     12          6           0        1.727671    1.130260   -0.195736
     13          6           0        0.910897    2.154811    0.592280
     14          1           0        3.159548    0.736611    1.366383
     15          1           0        3.652737    1.997032    0.239784
     16          1           0        1.246720    0.145788   -0.131573
     17          1           0        1.739204    1.404987   -1.258284
     18          1           0        1.364915    3.148311    0.518625
     19          1           0        0.869632    1.881957    1.651737
     20          1           0       -0.115772    2.222469    0.219138
     21          6           0       -4.127736    0.031905    0.112322
     22          6           0       -5.352904   -0.308394   -0.736879
     23          6           0       -6.434061    0.770929   -0.673987
     24          1           0       -4.441406    0.178389    1.154963
     25          1           0       -3.710418    0.990386   -0.226139
     26          1           0       -5.766968   -1.266627   -0.397824
     27          1           0       -5.036253   -0.454274   -1.777584
     28          1           0       -6.043285    1.728954   -1.031875
     29          1           0       -6.778152    0.911985    0.355725
     30          1           0       -7.300731    0.507298   -1.288189
     31          6           0       -3.038143   -1.037557    0.059704
     32          6           0       -1.812973   -0.697257    0.908906
     33          6           0       -0.731818   -1.776580    0.846014
     34          1           0       -3.455460   -1.996037    0.398166
     35          1           0       -2.724473   -1.184040   -0.982936
     36          1           0       -2.129625   -0.551378    1.949610
     37          1           0       -1.398911    0.260976    0.569850
     38          1           0       -0.387727   -1.917636   -0.183698
     39          1           0       -1.122594   -2.734605    1.203901
     40          1           0        0.134852   -1.512949    1.460215
 ---------------------------------------------------------------------

 SCF Done:  E(RHF) =  -470.732206522     A.U. after   11 cycles
 E2 =    -0.1584070386D+01 EUMP2 =    -0.47231627690821D+03

 The electronic state is 1-A.
 Alpha  occ. eigenvalues --  -11.21603 -11.21589 -11.21546 -11.21518 -11.21404
 Alpha  occ. eigenvalues --  -11.21387 -11.21343 -11.21328 -11.21116 -11.21071
 Alpha  occ. eigenvalues --  -11.21067 -11.21059  -1.08458  -1.08386  -1.03615
 Alpha  occ. eigenvalues --   -1.03443  -0.96043  -0.95932  -0.87063  -0.86945
 Alpha  occ. eigenvalues --   -0.79669  -0.79511  -0.78244  -0.78225  -0.65216
 Alpha  occ. eigenvalues --   -0.64943  -0.61278  -0.60706  -0.59473  -0.59179
 Alpha  occ. eigenvalues --   -0.57690  -0.57471  -0.55384  -0.55130  -0.52740
 Alpha  occ. eigenvalues --   -0.52656  -0.52447  -0.52371  -0.50073  -0.49811
 Alpha  occ. eigenvalues --   -0.47985  -0.47820  -0.46681  -0.46494  -0.45788
 Alpha  occ. eigenvalues --   -0.45748  -0.45679  -0.45658  -0.43797  -0.43734
 Alpha virt. eigenvalues --    0.20827   0.22948   0.23695   0.24874   0.25885
 Alpha virt. eigenvalues --    0.26459   0.26861   0.27531   0.28489   0.29285
 Alpha virt. eigenvalues --    0.30393   0.31454   0.31723   0.32214   0.32486

 Mulliken charges:
               1
     1  C   -0.298497
     2  C   -0.299614
     3  C   -0.475731
     4  H    0.149959
     5  H    0.149384
     6  H    0.151882
     7  H    0.151898
     8  H    0.155104
     9  H    0.155293
    10  H    0.160204
    11  C   -0.297664
    12  C   -0.310230
    13  C   -0.477476
    14  H    0.148938
    15  H    0.149542
    16  H    0.164554
    17  H    0.151003
    18  H    0.155852
    19  H    0.155678
    20  H    0.160031
    21  C   -0.298179
    22  C   -0.299643
    23  C   -0.475719
    24  H    0.149815
    25  H    0.148848
    26  H    0.151993
    27  H    0.151940
    28  H    0.155187
    29  H    0.155212
    30  H    0.160257
    31  C   -0.297807
    32  C   -0.308387
    33  C   -0.478936
    34  H    0.149317
    35  H    0.149485
    36  H    0.151677
    37  H    0.162981
    38  H    0.155271
    39  H    0.156596
    40  H    0.159982
 Sum of Mulliken charges =  -0.00000

 Dipole moment (field-independent basis, Debye):
    X=             -0.0102    Y=             -0.0079    Z=              0.0041  Tot=              0.0136
 Quadrupole moment (field-independent basis, Debye-Ang):
   XX=            -85.9160   YY=            -85.0746   ZZ=            -83.9524
   XY=              1.4613   XZ=             -0.2451   YZ=             -1.1489

 Normal termination of Gaussian 16 at Wed May  5 21:30:30 2021.
