 Gaussian 16, Revision A.03,
 Gaussian 16:  EM64L-G16RevA.03 25-Dec-2016

 -------------
 #p 6-31g* mp2
 -------------

 ------------------------------------------------------
 Input file generated by CHIRIPA (05-May-2021 14:51:12)
 ------------------------------------------------------
 Symbolic Z-matrix:
 Charge =  0 Multiplicity = 1

                         Standard orientation:
 ---------------------------------------------------------------------
 Center     Atomic      Atomic             Coordinates (Angstroms)
 Number     Number       Type             X           Y           Z
 ---------------------------------------------------------------------
      1          6           0       -2.911485   -0.352123    0.118839
      2          6           0       -2.013054    0.176206    1.237622
      3          6           0       -0.552473   -0.244271    1.071209
      4          1           0       -2.844958   -1.448354    0.090631
      5          1           0       -2.532817    0.008967   -0.847401
      6          1           0       -2.394110   -0.184637    2.201575
      7          1           0       -2.081876    1.271296    1.263294
      8          1           0       -0.149739    0.128734    0.123963
      9          1           0       -0.463748   -1.335471    1.067575
     10          1           0        0.071978    0.144185    1.881778
     11          6           0       -4.374613    0.059884    0.271261
     12          6           0       -5.273043   -0.468445   -0.847522
     13          6           0       -6.733625   -0.047967   -0.681109
     14          1           0       -4.753281   -0.301206    1.237501
     15          1           0       -4.441140    1.156116    0.299469
     16          1           0       -5.204222   -1.563534   -0.873194
     17          1           0       -4.891987   -0.107602   -1.811475
     18          1           0       -6.822350    1.043232   -0.677475
     19          1           0       -7.136359   -0.420973    0.266136
     20          1           0       -7.358076   -0.436424   -1.491678
     21          6           0        4.061774   -0.443200   -0.441635
     22          6           0        3.654162   -1.779103    0.180621
     23          6           0        4.500994   -2.948492   -0.322568
     24          1           0        3.978383   -0.514498   -1.534753
     25          1           0        5.121012   -0.251794   -0.220786
     26          1           0        2.595642   -1.967272   -0.040160
     27          1           0        3.738350   -1.704555    1.272396
     28          1           0        5.558283   -2.787201   -0.088632
     29          1           0        4.409083   -3.051411   -1.408645
     30          1           0        4.192621   -3.893650    0.135080
     31          6           0        3.224324    0.735439    0.051535
     32          6           0        3.631936    2.071342   -0.570721
     33          6           0        2.785103    3.240730   -0.067532
     34          1           0        2.165086    0.544033   -0.169314
     35          1           0        3.307715    0.806737    1.144653
     36          1           0        3.547748    1.996794   -1.662496
     37          1           0        4.690456    2.259510   -0.349941
     38          1           0        2.877015    3.343649    1.018544
     39          1           0        1.727815    3.079440   -0.301468
     40          1           0        3.093476    4.185889   -0.525180
 ---------------------------------------------------------------------

 SCF Done:  E(RHF) =  -470.733002735     A.U. after   11 cycles
 E2 =    -0.1582974785D+01 EUMP2 =    -0.47231597751932D+03

 The electronic state is 1-A.
 Alpha  occ. eigenvalues --  -11.21616 -11.21609 -11.21546 -11.21522 -11.21424
 Alpha  occ. eigenvalues --  -11.21364 -11.21313 -11.21228 -11.21082 -11.21074
 Alpha  occ. eigenvalues --  -11.21047 -11.21020  -1.08449  -1.08354  -1.03546
 Alpha  occ. eigenvalues --   -1.03470  -0.96008  -0.95910  -0.87031  -0.86925
 Alpha  occ. eigenvalues --   -0.79635  -0.79522  -0.78290  -0.78123  -0.65106
 Alpha  occ. eigenvalues --   -0.64974  -0.60985  -0.60838  -0.59366  -0.59282
 Alpha  occ. eigenvalues --   -0.57610  -0.57531  -0.55370  -0.55147  -0.52740
 Alpha  occ. eigenvalues --   -0.52601  -0.52441  -0.52312  -0.50042  -0.49793
 Alpha  occ. eigenvalues --   -0.47954  -0.47847  -0.46742  -0.46506  -0.45908
 Alpha  occ. eigenvalues --   -0.45744  -0.45688  -0.45380  -0.43779  -0.43707
 Alpha virt. eigenvalues --    0.21649   0.23013   0.23944   0.24592   0.25436
 Alpha virt. eigenvalues --    0.26543   0.26775   0.27612   0.27977   0.29593
 Alpha virt. eigenvalues --    0.30182   0.31369   0.31730   0.31954   0.32200

 Mulliken charges:
               1
     1  C   -0.298483
     2  C   -0.300185
     3  C   -0.477783
     4  H    0.149622
     5  H    0.149200
     6  H    0.151992
     7  H    0.152118
     8  H    0.155813
     9  H    0.155352
    10  H    0.162491
    11  C   -0.298263
    12  C   -0.299653
    13  C   -0.475719
    14  H    0.149638
    15  H    0.149731
    16  H    0.151939
    17  H    0.151852
    18  H    0.155225
    19  H    0.155227
    20  H    0.160281
    21  C   -0.297832
    22  C   -0.300756
    23  C   -0.475644
    24  H    0.148941
    25  H    0.149024
    26  H    0.153884
    27  H    0.151687
    28  H    0.154995
    29  H    0.154933
    30  H    0.159929
    31  C   -0.305545
    32  C   -0.299281
    33  C   -0.475541
    34  H    0.159599
    35  H    0.148690
    36  H    0.151279
    37  H    0.151606
    38  H    0.155068
    39  H    0.154564
    40  H    0.160005
 Sum of Mulliken charges =  -0.00000

 Dipole moment (field-independent basis, Debye):
    X=             -0.0362    Y=             -0.0083    Z=              0.0195  Tot=              0.0419
 Quadrupole moment (field-independent basis, Debye-Ang):
   XX=            -86.0071   YY=            -85.0730   ZZ=            -83.9638
   XY=              0.9841   XZ=              0.5617   YZ=             -0.5982

 Normal termination of Gaussian 16 at Thu May  6 02:19:07 2021.
