 Gaussian 16, Revision A.03,
 Gaussian 16:  EM64L-G16RevA.03 25-Dec-2016

 -------------
 #p 6-31g* mp2
 -------------

 ------------------------------------------------------
 Input file generated by CHIRIPA (05-May-2021 14:51:14)
 ------------------------------------------------------
 Symbolic Z-matrix:
 Charge =  0 Multiplicity = 1

                         Standard orientation:
 ---------------------------------------------------------------------
 Center     Atomic      Atomic             Coordinates (Angstroms)
 Number     Number       Type             X           Y           Z
 ---------------------------------------------------------------------
      1          6           0        4.291302    0.101495   -0.039488
      2          6           0        5.647207   -0.391960    0.466483
      3          6           0        6.701530    0.714644    0.506795
      4          1           0        4.415258    0.528576   -1.044068
      5          1           0        3.941939    0.918711    0.606655
      6          1           0        5.993263   -1.208929   -0.179599
      7          1           0        5.519974   -0.818089    1.469898
      8          1           0        6.381732    1.527571    1.166704
      9          1           0        6.857711    1.134510   -0.492165
     10          1           0        7.663042    0.339975    0.871457
     11          6           0        3.226868   -0.993306   -0.085497
     12          6           0        1.870962   -0.499851   -0.591468
     13          6           0        0.816639   -1.606455   -0.631780
     14          1           0        3.576230   -1.810522   -0.731640
     15          1           0        3.102911   -1.420387    0.919083
     16          1           0        1.998195   -0.073722   -1.594883
     17          1           0        1.524906    0.317118    0.054614
     18          1           0        0.660459   -2.026321    0.367180
     19          1           0        1.136437   -2.419382   -1.291689
     20          1           0       -0.144873   -1.231786   -0.996442
     21          6           0       -3.257111    0.832424   -0.364190
     22          6           0       -1.946878    1.133320    0.364326
     23          6           0       -0.952837    1.907053   -0.502283
     24          1           0       -3.039175    0.259017   -1.275593
     25          1           0       -3.712297    1.777639   -0.690944
     26          1           0       -1.494993    0.187899    0.690819
     27          1           0       -2.167977    1.705912    1.274200
     28          1           0       -1.380043    2.864683   -0.816993
     29          1           0       -0.703236    1.338046   -1.403688
     30          1           0       -0.023302    2.111464    0.038124
     31          6           0       -4.261058    0.059387    0.489176
     32          6           0       -5.571291   -0.241508   -0.239341
     33          6           0       -6.565332   -1.015243    0.627268
     34          1           0       -3.805872   -0.885829    0.815929
     35          1           0       -4.478995    0.632794    1.400577
     36          1           0       -5.350192   -0.814101   -1.149214
     37          1           0       -6.023177    0.703911   -0.565834
     38          1           0       -6.814934   -0.446234    1.528673
     39          1           0       -6.138126   -1.972871    0.941978
     40          1           0       -7.494868   -1.219654    0.086861
 ---------------------------------------------------------------------

 SCF Done:  E(RHF) =  -470.732047320     A.U. after   11 cycles
 E2 =    -0.1584086282D+01 EUMP2 =    -0.47231613360187D+03

 The electronic state is 1-A.
 Alpha  occ. eigenvalues --  -11.21593 -11.21593 -11.21558 -11.21527 -11.21401
 Alpha  occ. eigenvalues --  -11.21386 -11.21341 -11.21324 -11.21081 -11.21064
 Alpha  occ. eigenvalues --  -11.21062 -11.21012  -1.08454  -1.08384  -1.03618
 Alpha  occ. eigenvalues --   -1.03424  -0.96064  -0.95885  -0.87026  -0.86959
 Alpha  occ. eigenvalues --   -0.79697  -0.79471  -0.78249  -0.78208  -0.65152
 Alpha  occ. eigenvalues --   -0.64994  -0.61197  -0.60836  -0.59433  -0.59164
 Alpha  occ. eigenvalues --   -0.57651  -0.57501  -0.55321  -0.55124  -0.52709
 Alpha  occ. eigenvalues --   -0.52655  -0.52447  -0.52322  -0.49995  -0.49844
 Alpha  occ. eigenvalues --   -0.48020  -0.47778  -0.46659  -0.46534  -0.45784
 Alpha  occ. eigenvalues --   -0.45751  -0.45691  -0.45665  -0.43816  -0.43677
 Alpha virt. eigenvalues --    0.20546   0.23010   0.23613   0.25351   0.25669
 Alpha virt. eigenvalues --    0.26550   0.26689   0.27430   0.28083   0.29309
 Alpha virt. eigenvalues --    0.29800   0.31255   0.31581   0.31931   0.32651

 Mulliken charges:
               1
     1  C   -0.298117
     2  C   -0.299597
     3  C   -0.475699
     4  H    0.149757
     5  H    0.148992
     6  H    0.151945
     7  H    0.151876
     8  H    0.155136
     9  H    0.155203
    10  H    0.160216
    11  C   -0.298207
    12  C   -0.302728
    13  C   -0.479563
    14  H    0.149134
    15  H    0.149256
    16  H    0.151341
    17  H    0.158489
    18  H    0.154472
    19  H    0.155177
    20  H    0.163039
    21  C   -0.298931
    22  C   -0.305397
    23  C   -0.477463
    24  H    0.149201
    25  H    0.149813
    26  H    0.157119
    27  H    0.151910
    28  H    0.155015
    29  H    0.157280
    30  H    0.161062
    31  C   -0.298254
    32  C   -0.299661
    33  C   -0.475723
    34  H    0.149814
    35  H    0.149610
    36  H    0.151982
    37  H    0.151879
    38  H    0.155118
    39  H    0.155274
    40  H    0.160232
 Sum of Mulliken charges =  -0.00000

 Dipole moment (field-independent basis, Debye):
    X=              0.0013    Y=              0.0115    Z=              0.0011  Tot=              0.0116
 Quadrupole moment (field-independent basis, Debye-Ang):
   XX=            -86.1308   YY=            -84.8217   ZZ=            -84.0053
   XY=             -1.3954   XZ=             -0.0843   YZ=              0.7372

 Normal termination of Gaussian 16 at Thu May  6 00:51:51 2021.
