 Gaussian 16, Revision A.03,
 Gaussian 16:  EM64L-G16RevA.03 25-Dec-2016

 -------------
 #p 6-31g* mp2
 -------------

 ------------------------------------------------------
 Input file generated by CHIRIPA (05-May-2021 14:51:07)
 ------------------------------------------------------
 Symbolic Z-matrix:
 Charge =  0 Multiplicity = 1

                         Standard orientation:
 ---------------------------------------------------------------------
 Center     Atomic      Atomic             Coordinates (Angstroms)
 Number     Number       Type             X           Y           Z
 ---------------------------------------------------------------------
      1          6           0        4.771653   -0.320338    0.341531
      2          6           0        5.852415   -0.259014   -0.738366
      3          6           0        7.266007   -0.374562   -0.167227
      4          1           0        4.942123    0.485862    1.068116
      5          1           0        4.868682   -1.265002    0.894332
      6          1           0        5.752506    0.684637   -1.289870
      7          1           0        5.679239   -1.065336   -1.462570
      8          1           0        7.389590   -1.322472    0.366434
      9          1           0        7.463273    0.437444    0.540116
     10          1           0        8.022888   -0.328366   -0.956439
     11          6           0        3.353125   -0.206137   -0.213866
     12          6           0        2.272363   -0.267460    0.866031
     13          6           0        0.858771   -0.151913    0.294892
     14          1           0        3.256096    0.738528   -0.766667
     15          1           0        3.182654   -1.012337   -0.940451
     16          1           0        2.445538    0.538862    1.590235
     17          1           0        2.372271   -1.211112    1.417535
     18          1           0        0.661504   -0.963918   -0.412451
     19          1           0        0.735188    0.795998   -0.238769
     20          1           0        0.101889   -0.198109    1.084104
     21          6           0       -3.926316    0.978395   -0.295059
     22          6           0       -2.678623    1.593770    0.339417
     23          6           0       -2.419660    3.024686   -0.133032
     24          1           0       -3.818302    0.991214   -1.388273
     25          1           0       -4.796662    1.606441   -0.059577
     26          1           0       -1.811113    0.964004    0.103969
     27          1           0       -2.789538    1.579309    1.431253
     28          1           0       -3.266885    3.671855    0.115932
     29          1           0       -2.282901    3.053053   -1.218893
     30          1           0       -1.523076    3.445253    0.332930
     31          6           0       -4.198461   -0.451920    0.167395
     32          6           0       -5.446154   -1.067295   -0.467082
     33          6           0       -5.705118   -2.498212    0.005368
     34          1           0       -3.328115   -1.079966   -0.068087
     35          1           0       -4.306476   -0.464740    1.260607
     36          1           0       -5.335240   -1.052835   -1.558917
     37          1           0       -6.313665   -0.437528   -0.231633
     38          1           0       -5.841876   -2.526578    1.091229
     39          1           0       -4.857893   -3.145380   -0.243597
     40          1           0       -6.601703   -2.918778   -0.460594
 ---------------------------------------------------------------------

 SCF Done:  E(RHF) =  -470.732842523     A.U. after   11 cycles
 E2 =    -0.1582801687D+01 EUMP2 =    -0.47231564420973D+03

 The electronic state is 1-A.
 Alpha  occ. eigenvalues --  -11.21627 -11.21616 -11.21558 -11.21426 -11.21418
 Alpha  occ. eigenvalues --  -11.21366 -11.21332 -11.21265 -11.21105 -11.21082
 Alpha  occ. eigenvalues --  -11.21040 -11.21005  -1.08454  -1.08352  -1.03568
 Alpha  occ. eigenvalues --   -1.03447  -0.96022  -0.95909  -0.87055  -0.86919
 Alpha  occ. eigenvalues --   -0.79709  -0.79452  -0.78278  -0.78147  -0.65091
 Alpha  occ. eigenvalues --   -0.64983  -0.61011  -0.60823  -0.59453  -0.59214
 Alpha  occ. eigenvalues --   -0.57619  -0.57527  -0.55334  -0.55169  -0.52785
 Alpha  occ. eigenvalues --   -0.52587  -0.52437  -0.52325  -0.49983  -0.49830
 Alpha  occ. eigenvalues --   -0.47942  -0.47830  -0.46718  -0.46484  -0.45843
 Alpha  occ. eigenvalues --   -0.45744  -0.45699  -0.45577  -0.43768  -0.43665
 Alpha virt. eigenvalues --    0.22232   0.22977   0.23751   0.24728   0.26105
 Alpha virt. eigenvalues --    0.26601   0.26979   0.27433   0.27853   0.29038
 Alpha virt. eigenvalues --    0.30987   0.31369   0.31481   0.31811   0.32053

 Mulliken charges:
               1
     1  C   -0.298336
     2  C   -0.299637
     3  C   -0.475717
     4  H    0.149714
     5  H    0.149578
     6  H    0.151963
     7  H    0.151920
     8  H    0.155202
     9  H    0.155218
    10  H    0.160299
    11  C   -0.298635
    12  C   -0.299930
    13  C   -0.479411
    14  H    0.149643
    15  H    0.149540
    16  H    0.152247
    17  H    0.152026
    18  H    0.154683
    19  H    0.156299
    20  H    0.163527
    21  C   -0.297298
    22  C   -0.310536
    23  C   -0.475485
    24  H    0.149150
    25  H    0.148803
    26  H    0.167156
    27  H    0.150122
    28  H    0.154830
    29  H    0.154554
    30  H    0.159450
    31  C   -0.298607
    32  C   -0.299529
    33  C   -0.475654
    34  H    0.149750
    35  H    0.149199
    36  H    0.151847
    37  H    0.151855
    38  H    0.155048
    39  H    0.155069
    40  H    0.160083
 Sum of Mulliken charges =  -0.00000

 Dipole moment (field-independent basis, Debye):
    X=              0.0503    Y=             -0.0197    Z=              0.0021  Tot=              0.0541
 Quadrupole moment (field-independent basis, Debye-Ang):
   XX=            -85.9838   YY=            -84.8091   ZZ=            -84.3218
   XY=             -0.3442   XZ=             -0.6220   YZ=              0.6547

 Normal termination of Gaussian 16 at Wed May  5 19:39:32 2021.
