 Gaussian 16, Revision A.03,
 Gaussian 16:  EM64L-G16RevA.03 25-Dec-2016

 -------------
 #p 6-31g* mp2
 -------------

 ------------------------------------------------------
 Input file generated by CHIRIPA (05-May-2021 14:51:13)
 ------------------------------------------------------
 Symbolic Z-matrix:
 Charge =  0 Multiplicity = 1

                         Standard orientation:
 ---------------------------------------------------------------------
 Center     Atomic      Atomic             Coordinates (Angstroms)
 Number     Number       Type             X           Y           Z
 ---------------------------------------------------------------------
      1          6           0       -2.856483    0.526065   -0.266258
      2          6           0       -3.234247   -0.650602    0.634149
      3          6           0       -4.248606   -1.591339   -0.016915
      4          1           0       -3.764655    1.086955   -0.526202
      5          1           0       -2.446775    0.139906   -1.209876
      6          1           0       -3.641837   -0.262325    1.576342
      7          1           0       -2.325045   -1.208644    0.892136
      8          1           0       -3.847331   -2.006342   -0.947158
      9          1           0       -5.171605   -1.054647   -0.259063
     10          1           0       -4.504524   -2.425319    0.644026
     11          6           0       -1.843235    1.475436    0.370727
     12          6           0       -1.465470    2.652103   -0.529681
     13          6           0       -0.451112    3.592840    0.121384
     14          1           0       -2.252942    1.861596    1.314345
     15          1           0       -0.935062    0.914547    0.630671
     16          1           0       -2.374672    3.210145   -0.787667
     17          1           0       -1.057880    2.263826   -1.471873
     18          1           0        0.471887    3.056148    0.363532
     19          1           0       -0.852387    4.007844    1.051626
     20          1           0       -0.195193    4.426820   -0.539557
     21          6           0        2.783523   -0.429679   -0.315378
     22          6           0        4.051739   -0.202319    0.507981
     23          6           0        4.908907    0.943410   -0.030872
     24          1           0        3.062828   -0.637485   -1.357370
     25          1           0        2.192575    0.496599   -0.328957
     26          1           0        4.639445   -1.129166    0.521155
     27          1           0        3.769390    0.004781    1.548175
     28          1           0        4.344124    1.881287   -0.028238
     29          1           0        5.219123    0.740899   -1.061093
     30          1           0        5.810378    1.088549    0.572573
     31          6           0        1.916194   -1.571823    0.210909
     32          6           0        0.647977   -1.799182   -0.612450
     33          6           0       -0.209190   -2.944911   -0.073597
     34          1           0        2.507143   -2.498101    0.224488
     35          1           0        1.636889   -1.364016    1.252902
     36          1           0        0.930327   -2.006282   -1.652644
     37          1           0        0.060272   -0.872336   -0.625624
     38          1           0       -0.519406   -2.742399    0.956624
     39          1           0        0.355593   -3.882789   -0.076231
     40          1           0       -1.110661   -3.090051   -0.677042
 ---------------------------------------------------------------------

 SCF Done:  E(RHF) =  -470.732117894     A.U. after   11 cycles
 E2 =    -0.1585537574D+01 EUMP2 =    -0.47231765546712D+03

 The electronic state is 1-A.
 Alpha  occ. eigenvalues --  -11.21663 -11.21647 -11.21638 -11.21496 -11.21480
 Alpha  occ. eigenvalues --  -11.21421 -11.21419 -11.21347 -11.21140 -11.21126
 Alpha  occ. eigenvalues --  -11.21099 -11.21045  -1.08546  -1.08403  -1.03633
 Alpha  occ. eigenvalues --   -1.03497  -0.96058  -0.95985  -0.87077  -0.86994
 Alpha  occ. eigenvalues --   -0.79715  -0.79547  -0.78324  -0.78255  -0.65577
 Alpha  occ. eigenvalues --   -0.64744  -0.61237  -0.60729  -0.59382  -0.59340
 Alpha  occ. eigenvalues --   -0.57649  -0.57594  -0.55369  -0.55296  -0.52725
 Alpha  occ. eigenvalues --   -0.52675  -0.52473  -0.52408  -0.50157  -0.49801
 Alpha  occ. eigenvalues --   -0.47981  -0.47904  -0.46893  -0.46425  -0.46048
 Alpha  occ. eigenvalues --   -0.45789  -0.45719  -0.45440  -0.43847  -0.43782
 Alpha virt. eigenvalues --    0.19012   0.21508   0.23579   0.24776   0.25917
 Alpha virt. eigenvalues --    0.26322   0.26901   0.27660   0.27999   0.29937
 Alpha virt. eigenvalues --    0.30731   0.31536   0.31858   0.32192   0.32632

 Mulliken charges:
               1
     1  C   -0.299671
     2  C   -0.307278
     3  C   -0.475945
     4  H    0.150156
     5  H    0.150155
     6  H    0.151176
     7  H    0.162207
     8  H    0.154811
     9  H    0.154990
    10  H    0.160337
    11  C   -0.302701
    12  C   -0.300007
    13  C   -0.476972
    14  H    0.150291
    15  H    0.151432
    16  H    0.152524
    17  H    0.152372
    18  H    0.155158
    19  H    0.155482
    20  H    0.160737
    21  C   -0.300461
    22  C   -0.299690
    23  C   -0.475820
    24  H    0.150089
    25  H    0.150227
    26  H    0.152188
    27  H    0.152175
    28  H    0.155391
    29  H    0.155252
    30  H    0.160510
    31  C   -0.298176
    32  C   -0.309308
    33  C   -0.480155
    34  H    0.150192
    35  H    0.149674
    36  H    0.152507
    37  H    0.160530
    38  H    0.156012
    39  H    0.156817
    40  H    0.162790
 Sum of Mulliken charges =  -0.00000

 Dipole moment (field-independent basis, Debye):
    X=              0.0194    Y=             -0.0232    Z=             -0.0005  Tot=              0.0302
 Quadrupole moment (field-independent basis, Debye-Ang):
   XX=            -85.0237   YY=            -85.2150   ZZ=            -84.4583
   XY=             -1.9085   XZ=             -0.6577   YZ=              0.5495

 Normal termination of Gaussian 16 at Thu May  6 02:21:20 2021.
