 Gaussian 16, Revision A.03,
 Gaussian 16:  EM64L-G16RevA.03 25-Dec-2016

 -------------
 #p 6-31g* mp2
 -------------

 ------------------------------------------------------
 Input file generated by CHIRIPA (05-May-2021 14:51:09)
 ------------------------------------------------------
 Symbolic Z-matrix:
 Charge =  0 Multiplicity = 1

                         Standard orientation:
 ---------------------------------------------------------------------
 Center     Atomic      Atomic             Coordinates (Angstroms)
 Number     Number       Type             X           Y           Z
 ---------------------------------------------------------------------
      1          6           0       -2.576327   -0.569865    0.106482
      2          6           0       -2.601352   -1.503304    1.317287
      3          6           0       -1.796909   -2.784079    1.093060
      4          1           0       -2.971145   -1.104076   -0.768551
      5          1           0       -1.534058   -0.312967   -0.128198
      6          1           0       -3.643346   -1.757258    1.550464
      7          1           0       -2.206607   -0.966747    2.189582
      8          1           0       -0.748637   -2.548704    0.882521
      9          1           0       -2.193540   -3.343706    0.239771
     10          1           0       -1.828335   -3.436793    1.971033
     11          6           0       -3.376094    0.714848    0.315326
     12          6           0       -3.351069    1.648287   -0.895479
     13          6           0       -4.155512    2.929062   -0.671252
     14          1           0       -4.418362    0.457950    0.550006
     15          1           0       -2.981276    1.249059    1.190359
     16          1           0       -3.745813    1.111729   -1.767775
     17          1           0       -2.309074    1.902241   -1.128656
     18          1           0       -3.758881    3.488689    0.182037
     19          1           0       -5.203783    2.693686   -0.460713
     20          1           0       -4.124086    3.581776   -1.549225
     21          6           0        3.006072    0.552438    0.227278
     22          6           0        4.337354    1.298223    0.129923
     23          6           0        4.381750    2.546160    1.012235
     24          1           0        2.190691    1.232287   -0.055395
     25          1           0        2.828156    0.269141    1.273932
     26          1           0        4.513369    1.578817   -0.916453
     27          1           0        5.149678    0.616463    0.412677
     28          1           0        4.231392    2.280208    2.063550
     29          1           0        3.591468    3.248029    0.726869
     30          1           0        5.342252    3.063926    0.927291
     31          6           0        2.946348   -0.697421   -0.649086
     32          6           0        1.615067   -1.443206   -0.551731
     33          6           0        1.570671   -2.691143   -1.434043
     34          1           0        3.124264   -0.414123   -1.695740
     35          1           0        3.761729   -1.377270   -0.366413
     36          1           0        0.802743   -0.761446   -0.834485
     37          1           0        1.439052   -1.723800    0.494645
     38          1           0        2.360953   -3.393012   -1.148677
     39          1           0        1.721029   -2.425190   -2.485358
     40          1           0        0.610168   -3.208908   -1.349099
 ---------------------------------------------------------------------

 SCF Done:  E(RHF) =  -470.732520212     A.U. after   11 cycles
 E2 =    -0.1584088489D+01 EUMP2 =    -0.47231660870095D+03

 The electronic state is 1-A.
 Alpha  occ. eigenvalues --  -11.21653 -11.21640 -11.21605 -11.21557 -11.21454
 Alpha  occ. eigenvalues --  -11.21393 -11.21373 -11.21305 -11.21105 -11.21073
 Alpha  occ. eigenvalues --  -11.21058 -11.20966  -1.08491  -1.08395  -1.03605
 Alpha  occ. eigenvalues --   -1.03474  -0.96037  -0.95928  -0.87036  -0.86961
 Alpha  occ. eigenvalues --   -0.79723  -0.79519  -0.78386  -0.78131  -0.65124
 Alpha  occ. eigenvalues --   -0.65034  -0.61028  -0.60897  -0.59489  -0.59232
 Alpha  occ. eigenvalues --   -0.57782  -0.57414  -0.55362  -0.55167  -0.52736
 Alpha  occ. eigenvalues --   -0.52644  -0.52525  -0.52250  -0.50037  -0.49827
 Alpha  occ. eigenvalues --   -0.48078  -0.47828  -0.46700  -0.46596  -0.46071
 Alpha  occ. eigenvalues --   -0.45734  -0.45730  -0.45315  -0.43818  -0.43754
 Alpha virt. eigenvalues --    0.21344   0.23184   0.23356   0.24869   0.25177
 Alpha virt. eigenvalues --    0.26436   0.26865   0.27345   0.28717   0.29296
 Alpha virt. eigenvalues --    0.30433   0.31112   0.31360   0.31864   0.32187

 Mulliken charges:
               1
     1  C   -0.305103
     2  C   -0.298589
     3  C   -0.486013
     4  H    0.149065
     5  H    0.156355
     6  H    0.151612
     7  H    0.151461
     8  H    0.167701
     9  H    0.154173
    10  H    0.159520
    11  C   -0.297835
    12  C   -0.299427
    13  C   -0.475682
    14  H    0.149521
    15  H    0.149620
    16  H    0.151944
    17  H    0.150965
    18  H    0.155219
    19  H    0.155295
    20  H    0.160121
    21  C   -0.298405
    22  C   -0.299662
    23  C   -0.475748
    24  H    0.148876
    25  H    0.149453
    26  H    0.152101
    27  H    0.152170
    28  H    0.155195
    29  H    0.155117
    30  H    0.160456
    31  C   -0.296933
    32  C   -0.308416
    33  C   -0.478357
    34  H    0.149747
    35  H    0.149986
    36  H    0.157492
    37  H    0.152298
    38  H    0.155215
    39  H    0.155329
    40  H    0.164164
 Sum of Mulliken charges =  -0.00000

 Dipole moment (field-independent basis, Debye):
    X=              0.0420    Y=             -0.0040    Z=             -0.0118  Tot=              0.0438
 Quadrupole moment (field-independent basis, Debye-Ang):
   XX=            -84.3563   YY=            -86.1161   ZZ=            -84.3996
   XY=              0.4645   XZ=              0.5327   YZ=             -0.7698

 Normal termination of Gaussian 16 at Thu May  6 02:10:39 2021.
