 Gaussian 16, Revision A.03,
 Gaussian 16:  EM64L-G16RevA.03 25-Dec-2016

 -------------
 #p 6-31g* mp2
 -------------

 ------------------------------------------------------
 Input file generated by CHIRIPA (05-May-2021 14:55:24)
 ------------------------------------------------------
 Symbolic Z-matrix:
 Charge =  0 Multiplicity = 1

                         Standard orientation:
 ---------------------------------------------------------------------
 Center     Atomic      Atomic             Coordinates (Angstroms)
 Number     Number       Type             X           Y           Z
 ---------------------------------------------------------------------
      1          6           0        4.431728    1.229398   -0.970671
      2          6           0        3.112906    1.695438   -0.964516
      3          6           0        2.098714    0.948420   -0.357946
      4          6           0        2.440367   -0.265699    0.235752
      5          6           0        3.744955   -0.756855    0.246076
      6          6           0        4.742994    0.006894   -0.366421
      7          1           0        5.213302    1.816198   -1.444171
      8          1           0        2.868256    2.644490   -1.433014
      9          1           0        1.069444    1.285539   -0.338660
     10          1           0        3.958105   -1.706710    0.721218
     11          1           0        5.766340   -0.357519   -0.369679
     12          7           0        1.375238   -1.065390    0.881038
     13          8           0        1.702177   -2.131829    1.397230
     14          8           0        0.233618   -0.610606    0.858401
     15          6           0       -3.007587   -0.509330   -0.228213
     16          6           0       -3.909561   -1.585651   -0.833162
     17          6           0       -3.213657   -2.941900   -0.951896
     18          1           0       -2.104730   -0.406975   -0.845722
     19          1           0       -2.671418   -0.838187    0.764882
     20          1           0       -4.245045   -1.254251   -1.824242
     21          1           0       -4.810466   -1.685320   -0.214249
     22          1           0       -2.893553   -3.298141    0.032598
     23          1           0       -2.324921   -2.864622   -1.586543
     24          1           0       -3.876473   -3.696527   -1.386720
     25          6           0       -3.689151    0.852115   -0.103052
     26          6           0       -2.787177    1.928436    0.501895
     27          6           0       -3.483082    3.284686    0.620629
     28          1           0       -4.025320    1.180972   -1.096148
     29          1           0       -4.592009    0.749761    0.514456
     30          1           0       -1.886273    2.028106   -0.117017
     31          1           0       -2.451693    1.597036    1.492976
     32          1           0       -4.371817    3.207407    1.255277
     33          1           0       -3.803185    3.640926   -0.363864
     34          1           0       -2.820266    4.039313    1.055454
 ---------------------------------------------------------------------

 SCF Done:  E(RHF) =  -669.535479577     A.U. after   15 cycles
 E2 =    -0.2092209865D+01 EUMP2 =    -0.67162768944192D+03

 The electronic state is 1-A.
 Alpha  occ. eigenvalues --  -20.60890 -20.60878 -15.85914 -11.31263 -11.27829
 Alpha  occ. eigenvalues --  -11.27825 -11.27571 -11.26842 -11.26832 -11.20935
 Alpha  occ. eigenvalues --  -11.20628 -11.20553 -11.20511 -11.20007 -11.19964
 Alpha  occ. eigenvalues --   -1.59953  -1.39508  -1.19434  -1.08836  -1.07449
 Alpha  occ. eigenvalues --   -1.04834  -1.02673  -0.95678  -0.95102  -0.86235
 Alpha  occ. eigenvalues --   -0.86121  -0.82515  -0.78749  -0.77642  -0.77085
 Alpha  occ. eigenvalues --   -0.72124  -0.71267  -0.70542  -0.65088  -0.64840
 Alpha  occ. eigenvalues --   -0.64101  -0.62181  -0.60089  -0.58502  -0.56697
 Alpha  occ. eigenvalues --   -0.55338  -0.54398  -0.53165  -0.52927  -0.51868
 Alpha  occ. eigenvalues --   -0.51511  -0.49076  -0.48909  -0.48886  -0.47059
 Alpha  occ. eigenvalues --   -0.45805  -0.45121  -0.44578  -0.44478  -0.42870
 Alpha  occ. eigenvalues --   -0.37415  -0.36436
 Alpha virt. eigenvalues --    0.04956   0.11216   0.16437   0.20591   0.23277
 Alpha virt. eigenvalues --    0.24808   0.25610   0.27569   0.27981   0.28755
 Alpha virt. eigenvalues --    0.29368   0.31139   0.31635   0.32424   0.32489

 Mulliken charges:
               1
     1  C   -0.170460
     2  C   -0.219512
     3  C   -0.173306
     4  C    0.156908
     5  C   -0.170295
     6  C   -0.218769
     7  H    0.225880
     8  H    0.223938
     9  H    0.279372
    10  H    0.275769
    11  H    0.223694
    12  N    0.492084
    13  O   -0.459877
    14  O   -0.462515
    15  C   -0.296080
    16  C   -0.300086
    17  C   -0.473534
    18  H    0.150793
    19  H    0.167285
    20  H    0.145262
    21  H    0.148059
    22  H    0.161933
    23  H    0.153359
    24  H    0.154262
    25  C   -0.299280
    26  C   -0.296968
    27  C   -0.475321
    28  H    0.143317
    29  H    0.147054
    30  H    0.143456
    31  H    0.160310
    32  H    0.155491
    33  H    0.152009
    34  H    0.155766
 Sum of Mulliken charges =  -0.00000

 Dipole moment (field-independent basis, Debye):
    X=              3.9879    Y=              2.6821    Z=             -2.0937  Tot=              5.2422
 Quadrupole moment (field-independent basis, Debye-Ang):
   XX=            -75.4815   YY=            -95.8592   ZZ=            -95.5901
   XY=              3.9903   XZ=             -4.7348   YZ=             -0.4229

 Normal termination of Gaussian 16 at Thu May  6 00:00:34 2021.
