 Gaussian 16, Revision A.03,
 Gaussian 16:  EM64L-G16RevA.03 25-Dec-2016

 -------------
 #p 6-31g* mp2
 -------------

 ------------------------------------------------------
 Input file generated by CHIRIPA (05-May-2021 14:57:27)
 ------------------------------------------------------
 Symbolic Z-matrix:
 Charge =  0 Multiplicity = 1

                         Standard orientation:
 ---------------------------------------------------------------------
 Center     Atomic      Atomic             Coordinates (Angstroms)
 Number     Number       Type             X           Y           Z
 ---------------------------------------------------------------------
      1          6           0       -5.053117    1.274735    0.560912
      2          6           0       -5.234541   -0.102178    0.727396
      3          6           0       -4.246171   -1.002979    0.319680
      4          6           0       -3.083550   -0.489931   -0.253367
      5          6           0       -2.873325    0.876432   -0.432665
      6          6           0       -3.875164    1.758792   -0.017567
      7          1           0       -5.826138    1.967336    0.880503
      8          1           0       -6.148337   -0.480949    1.176345
      9          1           0       -4.360622   -2.073783    0.436720
     10          1           0       -1.951686    1.224022   -0.883421
     11          1           0       -3.731543    2.827613   -0.148103
     12          7           0       -2.030077   -1.433807   -0.688905
     13          8           0       -1.014859   -0.956494   -1.191041
     14          8           0       -2.239532   -2.633058   -0.519897
     15          6           0        1.158516    1.734899    0.173378
     16          6           0        2.272087    2.138134   -0.570855
     17          6           0        3.440187    1.369967   -0.573705
     18          6           0        3.460066    0.198971    0.182379
     19          6           0        2.367016   -0.229317    0.934111
     20          6           0        1.209445    0.554542    0.922165
     21          1           0        0.255197    2.337725    0.169845
     22          1           0        2.235389    3.054351   -1.153304
     23          1           0        4.316772    1.658723   -1.140837
     24          1           0        2.433676   -1.147543    1.504931
     25          1           0        0.346151    0.238931    1.501094
     26          7           0        4.691108   -0.622560    0.187193
     27          8           0        4.683227   -1.650075    0.861572
     28          8           0        5.640569   -0.223404   -0.483504
 ---------------------------------------------------------------------

 SCF Done:  E(RHF) =  -868.336557479     A.U. after   16 cycles
 E2 =    -0.2601609787D+01 EUMP2 =    -0.87093816726616D+03

 The electronic state is 1-A.
 Alpha  occ. eigenvalues --  -20.61516 -20.61488 -20.60184 -20.60170 -15.86534
 Alpha  occ. eigenvalues --  -15.85230 -11.32032 -11.30566 -11.28654 -11.28536
 Alpha  occ. eigenvalues --  -11.28293 -11.27652 -11.27558 -11.27142 -11.27062
 Alpha  occ. eigenvalues --  -11.27005 -11.26254 -11.26187  -1.60580  -1.59252
 Alpha  occ. eigenvalues --   -1.40127  -1.38807  -1.20194  -1.18734  -1.09555
 Alpha  occ. eigenvalues --   -1.08178  -1.05612  -1.04138  -0.96376  -0.95018
 Alpha  occ. eigenvalues --   -0.86996  -0.85573  -0.83201  -0.81852  -0.78253
 Alpha  occ. eigenvalues --   -0.76870  -0.72748  -0.71929  -0.71458  -0.71290
 Alpha  occ. eigenvalues --   -0.70564  -0.69965  -0.65834  -0.65597  -0.64426
 Alpha  occ. eigenvalues --   -0.64201  -0.62954  -0.61507  -0.56072  -0.54807
 Alpha  occ. eigenvalues --   -0.53928  -0.53672  -0.52436  -0.52284  -0.49531
 Alpha  occ. eigenvalues --   -0.49502  -0.48217  -0.48207  -0.45498  -0.44219
 Alpha  occ. eigenvalues --   -0.38158  -0.37227  -0.36711  -0.35642
 Alpha virt. eigenvalues --    0.04248   0.05634   0.10360   0.11970   0.15753
 Alpha virt. eigenvalues --    0.17018   0.19918   0.21940   0.25667   0.27207
 Alpha virt. eigenvalues --    0.27613   0.29360   0.30489   0.31022   0.32859

 Mulliken charges:
               1
     1  C   -0.170500
     2  C   -0.217785
     3  C   -0.170595
     4  C    0.157029
     5  C   -0.179607
     6  C   -0.218525
     7  H    0.228292
     8  H    0.226742
     9  H    0.278384
    10  H    0.273533
    11  H    0.222811
    12  N    0.485502
    13  O   -0.457265
    14  O   -0.456909
    15  C   -0.168168
    16  C   -0.217401
    17  C   -0.171095
    18  C    0.159774
    19  C   -0.167383
    20  C   -0.199860
    21  H    0.210616
    22  H    0.218980
    23  H    0.273668
    24  H    0.276281
    25  H    0.217602
    26  N    0.488149
    27  O   -0.459802
    28  O   -0.462469
 Sum of Mulliken charges =  -0.00000

 Dipole moment (field-independent basis, Debye):
    X=             -8.2558    Y=              5.9506    Z=              1.5237  Tot=             10.2903
 Quadrupole moment (field-independent basis, Debye-Ang):
   XX=           -109.6077   YY=           -102.7854   ZZ=           -104.5584
   XY=              4.6486   XZ=             -7.4261   YZ=             -4.7728

 Normal termination of Gaussian 16 at Thu May  6 08:24:06 2021.
