 Gaussian 16, Revision A.03,
 Gaussian 16:  EM64L-G16RevA.03 25-Dec-2016

 -------------
 #p 6-31g* mp2
 -------------

 ------------------------------------------------------
 Input file generated by CHIRIPA (05-May-2021 14:55:19)
 ------------------------------------------------------
 Symbolic Z-matrix:
 Charge =  0 Multiplicity = 1

                         Standard orientation:
 ---------------------------------------------------------------------
 Center     Atomic      Atomic             Coordinates (Angstroms)
 Number     Number       Type             X           Y           Z
 ---------------------------------------------------------------------
      1          6           0       -0.616365   -1.985683    0.482989
      2          6           0       -0.584135   -1.176650   -0.657602
      3          6           0       -1.660143   -0.338299   -0.964072
      4          6           0       -2.757314   -0.334045   -0.104137
      5          6           0       -2.819216   -1.128451    1.039706
      6          6           0       -1.731835   -1.959049    1.326516
      7          1           0        0.223921   -2.633923    0.713426
      8          1           0        0.280840   -1.195274   -1.314499
      9          1           0       -1.661479    0.298311   -1.840510
     10          1           0       -3.695305   -1.088170    1.675522
     11          1           0       -1.759621   -2.586277    2.213002
     12          7           0       -3.902455    0.549375   -0.418177
     13          8           0       -4.857380    0.534789    0.355478
     14          8           0       -3.823407    1.239659   -1.432029
     15          6           0        3.298646   -0.149120    0.099419
     16          6           0        4.535785   -0.766193   -0.553800
     17          6           0        4.543082   -2.293426   -0.481018
     18          1           0        3.248839   -0.467821    1.149607
     19          1           0        2.398099   -0.544775   -0.390341
     20          1           0        5.433770   -0.368439   -0.063871
     21          1           0        4.582757   -0.445831   -1.602503
     22          1           0        3.664730   -2.707400   -0.986709
     23          1           0        4.520578   -2.629568    0.560665
     24          1           0        5.436224   -2.713619   -0.953877
     25          6           0        3.276920    1.377007    0.034673
     26          6           0        2.039782    1.994080    0.687892
     27          6           0        2.032485    3.521313    0.615110
     28          1           0        4.177469    1.772662    0.524434
     29          1           0        3.326728    1.695709   -1.015514
     30          1           0        1.992810    1.673718    1.736595
     31          1           0        1.141797    1.596326    0.197963
     32          1           0        2.054989    3.857456   -0.426573
     33          1           0        2.910837    3.935288    1.120802
     34          1           0        1.139342    3.941506    1.087969
 ---------------------------------------------------------------------

 SCF Done:  E(RHF) =  -669.535327685     A.U. after   15 cycles
 E2 =    -0.2092543085D+01 EUMP2 =    -0.67162787077006D+03

 The electronic state is 1-A.
 Alpha  occ. eigenvalues --  -20.60783 -20.60778 -15.85838 -11.31215 -11.27802
 Alpha  occ. eigenvalues --  -11.27786 -11.27517 -11.26806 -11.26788 -11.22369
 Alpha  occ. eigenvalues --  -11.22217 -11.21976 -11.21954 -11.21916 -11.21299
 Alpha  occ. eigenvalues --   -1.59859  -1.39412  -1.19394  -1.09090  -1.08776
 Alpha  occ. eigenvalues --   -1.04804  -1.04111  -0.96581  -0.95611  -0.87592
 Alpha  occ. eigenvalues --   -0.86201  -0.82448  -0.80191  -0.78899  -0.77492
 Alpha  occ. eigenvalues --   -0.72056  -0.71182  -0.70483  -0.65800  -0.65045
 Alpha  occ. eigenvalues --   -0.64769  -0.62157  -0.61508  -0.59955  -0.58175
 Alpha  occ. eigenvalues --   -0.55897  -0.55277  -0.53271  -0.53097  -0.53035
 Alpha  occ. eigenvalues --   -0.52867  -0.50530  -0.48822  -0.48810  -0.48497
 Alpha  occ. eigenvalues --   -0.47239  -0.46413  -0.46331  -0.44815  -0.44381
 Alpha  occ. eigenvalues --   -0.37339  -0.36372
 Alpha virt. eigenvalues --    0.05028   0.11137   0.16456   0.19523   0.22875
 Alpha virt. eigenvalues --    0.23694   0.25217   0.26461   0.27211   0.28228
 Alpha virt. eigenvalues --    0.29368   0.30452   0.31068   0.31423   0.31704

 Mulliken charges:
               1
     1  C   -0.170170
     2  C   -0.217357
     3  C   -0.172638
     4  C    0.158614
     5  C   -0.170536
     6  C   -0.218762
     7  H    0.227335
     8  H    0.224877
     9  H    0.275755
    10  H    0.275777
    11  H    0.223659
    12  N    0.488089
    13  O   -0.460323
    14  O   -0.460407
    15  C   -0.301148
    16  C   -0.299898
    17  C   -0.475475
    18  H    0.149862
    19  H    0.141502
    20  H    0.155741
    21  H    0.153232
    22  H    0.147864
    23  H    0.155058
    24  H    0.164616
    25  C   -0.298688
    26  C   -0.302145
    27  C   -0.476268
    28  H    0.151943
    29  H    0.149781
    30  H    0.151910
    31  H    0.153153
    32  H    0.155809
    33  H    0.155263
    34  H    0.163974
 Sum of Mulliken charges =  -0.00000

 Dipole moment (field-independent basis, Debye):
    X=              4.0904    Y=             -3.0563    Z=              1.1616  Tot=              5.2365
 Quadrupole moment (field-independent basis, Debye-Ang):
   XX=           -115.8002   YY=            -93.8559   ZZ=            -91.0714
   XY=              8.4532   XZ=             -5.2761   YZ=             -1.6295

 Normal termination of Gaussian 16 at Wed May  5 15:50:02 2021.
