 Gaussian 16, Revision A.03,
 Gaussian 16:  EM64L-G16RevA.03 25-Dec-2016

 -------------
 #p 6-31g* mp2
 -------------

 ------------------------------------------------------
 Input file generated by CHIRIPA (05-May-2021 14:51:09)
 ------------------------------------------------------
 Symbolic Z-matrix:
 Charge =  0 Multiplicity = 1

                         Standard orientation:
 ---------------------------------------------------------------------
 Center     Atomic      Atomic             Coordinates (Angstroms)
 Number     Number       Type             X           Y           Z
 ---------------------------------------------------------------------
      1          6           0        3.773253    0.453928    0.138609
      2          6           0        3.682937    1.970171   -0.036985
      3          6           0        4.765138    2.720728    0.739740
      4          1           0        3.695948    0.209672    1.206930
      5          1           0        4.764825    0.112269   -0.189185
      6          1           0        2.691339    2.308688    0.289748
      7          1           0        3.760274    2.210833   -1.105028
      8          1           0        5.761719    2.411393    0.408468
      9          1           0        4.686710    2.509805    1.811169
     10          1           0        4.681958    3.803054    0.600057
     11          6           0        2.698006   -0.310271   -0.631828
     12          6           0        2.788322   -1.826515   -0.456234
     13          6           0        1.706121   -2.577071   -1.232958
     14          1           0        1.706434    0.031388   -0.304033
     15          1           0        2.775311   -0.066015   -1.700148
     16          1           0        2.710985   -2.067176    0.611810
     17          1           0        3.779921   -2.165031   -0.782967
     18          1           0        1.784550   -2.366148   -2.304388
     19          1           0        0.709541   -2.267736   -0.901687
     20          1           0        1.789301   -3.659397   -1.093276
     21          6           0       -3.525683    0.366910   -0.307295
     22          6           0       -4.623397    1.312905    0.180664
     23          6           0       -5.193774    2.184067   -0.938952
     24          1           0       -2.718171    0.956405   -0.762668
     25          1           0       -3.930793   -0.274637   -1.102090
     26          1           0       -4.216722    1.951535    0.975261
     27          1           0       -5.428301    0.721102    0.635101
     28          1           0       -5.625307    1.561645   -1.729503
     29          1           0       -4.406844    2.799069   -1.387410
     30          1           0       -5.976896    2.852648   -0.568037
     31          6           0       -2.945576   -0.510567    0.800514
     32          6           0       -1.847862   -1.456562    0.312555
     33          6           0       -1.277485   -2.327724    1.432171
     34          1           0       -2.540467    0.130980    1.595308
     35          1           0       -3.753088   -1.100062    1.255886
     36          1           0       -1.042958   -0.864759   -0.141883
     37          1           0       -2.254538   -2.095192   -0.482042
     38          1           0       -2.064415   -2.942726    1.880629
     39          1           0       -0.845952   -1.705302    2.222721
     40          1           0       -0.494363   -2.996305    1.061255
 ---------------------------------------------------------------------

 SCF Done:  E(RHF) =  -470.732468329     A.U. after   11 cycles
 E2 =    -0.1583776217D+01 EUMP2 =    -0.47231624454618D+03

 The electronic state is 1-A.
 Alpha  occ. eigenvalues --  -11.21661 -11.21621 -11.21620 -11.21575 -11.21442
 Alpha  occ. eigenvalues --  -11.21417 -11.21379 -11.21357 -11.21090 -11.21085
 Alpha  occ. eigenvalues --  -11.21083 -11.20952  -1.08483  -1.08421  -1.03618
 Alpha  occ. eigenvalues --   -1.03480  -0.96074  -0.95916  -0.87053  -0.86965
 Alpha  occ. eigenvalues --   -0.79693  -0.79544  -0.78332  -0.78201  -0.65194
 Alpha  occ. eigenvalues --   -0.64995  -0.61172  -0.60830  -0.59385  -0.59327
 Alpha  occ. eigenvalues --   -0.57773  -0.57487  -0.55341  -0.55154  -0.52740
 Alpha  occ. eigenvalues --   -0.52635  -0.52485  -0.52317  -0.49962  -0.49856
 Alpha  occ. eigenvalues --   -0.48044  -0.47833  -0.46825  -0.46502  -0.45955
 Alpha  occ. eigenvalues --   -0.45776  -0.45756  -0.45461  -0.43831  -0.43770
 Alpha virt. eigenvalues --    0.20657   0.23188   0.23541   0.25263   0.25571
 Alpha virt. eigenvalues --    0.26734   0.26952   0.27396   0.28191   0.29141
 Alpha virt. eigenvalues --    0.30435   0.31346   0.31391   0.31921   0.32030

 Mulliken charges:
               1
     1  C   -0.298262
     2  C   -0.299599
     3  C   -0.475706
     4  H    0.149727
     5  H    0.149797
     6  H    0.151454
     7  H    0.152000
     8  H    0.155302
     9  H    0.155191
    10  H    0.160236
    11  C   -0.300880
    12  C   -0.299511
    13  C   -0.486506
    14  H    0.150767
    15  H    0.149779
    16  H    0.152217
    17  H    0.151859
    18  H    0.154708
    19  H    0.168765
    20  H    0.158973
    21  C   -0.298510
    22  C   -0.299694
    23  C   -0.475737
    24  H    0.149803
    25  H    0.149791
    26  H    0.151876
    27  H    0.152012
    28  H    0.155276
    29  H    0.155279
    30  H    0.160313
    31  C   -0.297510
    32  C   -0.305809
    33  C   -0.480431
    34  H    0.149362
    35  H    0.149979
    36  H    0.154572
    37  H    0.153164
    38  H    0.156013
    39  H    0.154670
    40  H    0.165268
 Sum of Mulliken charges =  -0.00000

 Dipole moment (field-independent basis, Debye):
    X=             -0.0325    Y=             -0.0047    Z=              0.0015  Tot=              0.0328
 Quadrupole moment (field-independent basis, Debye-Ang):
   XX=            -84.6750   YY=            -85.2395   ZZ=            -84.8723
   XY=              0.4308   XZ=             -1.0381   YZ=              0.2940

 Normal termination of Gaussian 16 at Wed May  5 23:00:24 2021.
