 Gaussian 16, Revision A.03,
 Gaussian 16:  EM64L-G16RevA.03 25-Dec-2016

 -------------
 #p 6-31g* mp2
 -------------

 ------------------------------------------------------
 Input file generated by CHIRIPA (05-May-2021 14:53:12)
 ------------------------------------------------------
 Symbolic Z-matrix:
 Charge =  0 Multiplicity = 1

                         Standard orientation:
 ---------------------------------------------------------------------
 Center     Atomic      Atomic             Coordinates (Angstroms)
 Number     Number       Type             X           Y           Z
 ---------------------------------------------------------------------
      1          6           0       -4.105575   -0.540420   -0.046206
      2          6           0       -5.341541   -1.126533   -0.729465
      3          6           0       -5.505425   -2.624558   -0.470897
      4          1           0       -3.212201   -1.074525   -0.397719
      5          1           0       -4.172632   -0.721563    1.035499
      6          1           0       -5.272838   -0.943121   -1.809398
      7          1           0       -6.232057   -0.590844   -0.376429
      8          1           0       -5.599397   -2.822324    0.601791
      9          1           0       -4.634728   -3.176602   -0.839320
     10          1           0       -6.395121   -3.022882   -0.968530
     11          6           0       -3.928129    0.956295   -0.295374
     12          6           0       -2.692162    1.542409    0.387884
     13          6           0       -2.528278    3.040434    0.129317
     14          1           0       -3.861072    1.137438   -1.377079
     15          1           0       -4.821502    1.490400    0.056139
     16          1           0       -1.801647    1.006719    0.034848
     17          1           0       -2.760865    1.358996    1.467818
     18          1           0       -3.398975    3.592478    0.497740
     19          1           0       -2.434307    3.238199   -0.943371
     20          1           0       -1.638582    3.438758    0.626950
     21          6           0        1.027299    0.059842    1.497525
     22          6           0        1.980425   -0.906625    1.835187
     23          6           0        3.153666   -1.038760    1.086458
     24          6           0        3.342236   -0.183942    0.001554
     25          6           0        2.411405    0.788760   -0.359964
     26          6           0        1.245447    0.902963    0.402957
     27          1           0        0.118727    0.155522    2.084668
     28          1           0        1.813670   -1.562773    2.684722
     29          1           0        3.908124   -1.778331    1.325720
     30          1           0        2.605677    1.428420   -1.212320
     31          1           0        0.506975    1.654439    0.138403
     32          7           0        4.580439   -0.314335   -0.798604
     33          8           0        4.722893    0.450934   -1.749764
     34          8           0        5.385041   -1.179339   -0.459456
 ---------------------------------------------------------------------

 SCF Done:  E(RHF) =  -669.535401209     A.U. after   15 cycles
 E2 =    -0.2091887468D+01 EUMP2 =    -0.67162728867712D+03

 The electronic state is 1-A.
 Alpha  occ. eigenvalues --  -20.60736 -20.60731 -15.85789 -11.31147 -11.27720
 Alpha  occ. eigenvalues --  -11.27709 -11.27429 -11.26721 -11.26675 -11.22784
 Alpha  occ. eigenvalues --  -11.22257 -11.22203 -11.22184 -11.22101 -11.21558
 Alpha  occ. eigenvalues --   -1.59812  -1.39366  -1.19317  -1.09279  -1.08708
 Alpha  occ. eigenvalues --   -1.04725  -1.04380  -0.96806  -0.95545  -0.87818
 Alpha  occ. eigenvalues --   -0.86122  -0.82377  -0.80489  -0.79063  -0.77431
 Alpha  occ. eigenvalues --   -0.72008  -0.71135  -0.70410  -0.65942  -0.64965
 Alpha  occ. eigenvalues --   -0.64740  -0.62178  -0.61678  -0.60184  -0.58408
 Alpha  occ. eigenvalues --   -0.56070  -0.55200  -0.53522  -0.53243  -0.53046
 Alpha  occ. eigenvalues --   -0.52780  -0.50734  -0.48799  -0.48765  -0.48745
 Alpha  occ. eigenvalues --   -0.47497  -0.46596  -0.46489  -0.44773  -0.44618
 Alpha  occ. eigenvalues --   -0.37281  -0.36320
 Alpha virt. eigenvalues --    0.05101   0.11203   0.16596   0.19614   0.22469
 Alpha virt. eigenvalues --    0.23714   0.25415   0.25990   0.26242   0.28245
 Alpha virt. eigenvalues --    0.29101   0.30174   0.30662   0.31384   0.31650

 Mulliken charges:
               1
     1  C   -0.299634
     2  C   -0.300291
     3  C   -0.476288
     4  H    0.150913
     5  H    0.148063
     6  H    0.153825
     7  H    0.153036
     8  H    0.154909
     9  H    0.156220
    10  H    0.162471
    11  C   -0.297506
    12  C   -0.309140
    13  C   -0.479392
    14  H    0.152747
    15  H    0.152618
    16  H    0.150049
    17  H    0.149879
    18  H    0.161833
    19  H    0.159154
    20  H    0.156077
    21  C   -0.172466
    22  C   -0.218897
    23  C   -0.171006
    24  C    0.158529
    25  C   -0.172247
    26  C   -0.224599
    27  H    0.228376
    28  H    0.223299
    29  H    0.275439
    30  H    0.275673
    31  H    0.231407
    32  N    0.488066
    33  O   -0.460542
    34  O   -0.460574
 Sum of Mulliken charges =  -0.00000

 Dipole moment (field-independent basis, Debye):
    X=             -4.5881    Y=              0.4550    Z=              2.7659  Tot=              5.3766
 Quadrupole moment (field-independent basis, Debye-Ang):
   XX=           -123.0847   YY=            -93.4153   ZZ=            -92.7872
   XY=              0.5389   XZ=             10.2765   YZ=             -2.8868

 Normal termination of Gaussian 16 at Thu May  6 10:23:49 2021.
