 Gaussian 16, Revision A.03,
 Gaussian 16:  EM64L-G16RevA.03 25-Dec-2016

 -------------
 #p 6-31g* mp2
 -------------

 ------------------------------------------------------
 Input file generated by CHIRIPA (05-May-2021 14:57:25)
 ------------------------------------------------------
 Symbolic Z-matrix:
 Charge =  0 Multiplicity = 1

                         Standard orientation:
 ---------------------------------------------------------------------
 Center     Atomic      Atomic             Coordinates (Angstroms)
 Number     Number       Type             X           Y           Z
 ---------------------------------------------------------------------
      1          6           0        3.200636    0.818741    2.257458
      2          6           0        3.277254    1.606332    1.104051
      3          6           0        2.986815    1.059742   -0.149517
      4          6           0        2.621406   -0.284020   -0.213311
      5          6           0        2.536088   -1.094536    0.917652
      6          6           0        2.830949   -0.526808    2.160748
      7          1           0        3.427973    1.251555    3.227193
      8          1           0        3.564087    2.651595    1.176145
      9          1           0        3.038204    1.646688   -1.058512
     10          1           0        2.247313   -2.133426    0.814051
     11          1           0        2.770616   -1.140850    3.054816
     12          7           0        2.311591   -0.873860   -1.534864
     13          8           0        1.992068   -2.060316   -1.564275
     14          8           0        2.394147   -0.138552   -2.516263
     15          6           0       -1.882318    2.475387   -0.714418
     16          6           0       -3.176719    2.306440   -0.211920
     17          6           0       -3.625183    1.042990    0.184464
     18          6           0       -2.748857   -0.034444    0.064135
     19          6           0       -1.453510    0.101768   -0.432668
     20          6           0       -1.026354    1.374453   -0.822997
     21          1           0       -1.542216    3.460454   -1.019987
     22          1           0       -3.843646    3.159641   -0.126473
     23          1           0       -4.622233    0.883858    0.576876
     24          1           0       -0.811594   -0.767705   -0.506006
     25          1           0       -0.020578    1.502690   -1.212888
     26          7           0       -3.212346   -1.376891    0.480564
     27          8           0       -2.420959   -2.310103    0.364559
     28          8           0       -4.358241   -1.470469    0.915082
 ---------------------------------------------------------------------

 SCF Done:  E(RHF) =  -868.338395849     A.U. after   16 cycles
 E2 =    -0.2601796931D+01 EUMP2 =    -0.87094019277978D+03

 The electronic state is 1-A.
 Alpha  occ. eigenvalues --  -20.61658 -20.61605 -20.60515 -20.60500 -15.86624
 Alpha  occ. eigenvalues --  -15.85562 -11.31881 -11.30911 -11.28475 -11.28330
 Alpha  occ. eigenvalues --  -11.28081 -11.27499 -11.27424 -11.27423 -11.27310
 Alpha  occ. eigenvalues --  -11.27238 -11.26532 -11.26428  -1.60695  -1.59589
 Alpha  occ. eigenvalues --   -1.40244  -1.39140  -1.20031  -1.19082  -1.09443
 Alpha  occ. eigenvalues --   -1.08489  -1.05391  -1.04480  -0.96290  -0.95326
 Alpha  occ. eigenvalues --   -0.86801  -0.85878  -0.83107  -0.82157  -0.78191
 Alpha  occ. eigenvalues --   -0.77205  -0.72821  -0.72064  -0.71773  -0.71098
 Alpha  occ. eigenvalues --   -0.70913  -0.70193  -0.65665  -0.65369  -0.64737
 Alpha  occ. eigenvalues --   -0.64488  -0.62726  -0.61814  -0.55868  -0.55011
 Alpha  occ. eigenvalues --   -0.53755  -0.53461  -0.52797  -0.52574  -0.49615
 Alpha  occ. eigenvalues --   -0.49581  -0.48544  -0.48531  -0.45619  -0.44550
 Alpha  occ. eigenvalues --   -0.38006  -0.37124  -0.36937  -0.36047
 Alpha virt. eigenvalues --    0.04278   0.05325   0.10470   0.11631   0.15815
 Alpha virt. eigenvalues --    0.16819   0.20655   0.21641   0.26261   0.26894
 Alpha virt. eigenvalues --    0.28114   0.28412   0.30273   0.31015   0.31928

 Mulliken charges:
               1
     1  C   -0.169638
     2  C   -0.217322
     3  C   -0.179034
     4  C    0.153641
     5  C   -0.171974
     6  C   -0.216868
     7  H    0.228582
     8  H    0.224234
     9  H    0.272788
    10  H    0.282865
    11  H    0.229015
    12  N    0.484904
    13  O   -0.450954
    14  O   -0.461986
    15  C   -0.172318
    16  C   -0.218776
    17  C   -0.171735
    18  C    0.157217
    19  C   -0.174131
    20  C   -0.219492
    21  H    0.223330
    22  H    0.221678
    23  H    0.274319
    24  H    0.278689
    25  H    0.226360
    26  N    0.487680
    27  O   -0.458723
    28  O   -0.462351
 Sum of Mulliken charges =  -0.00000

 Dipole moment (field-independent basis, Debye):
    X=              2.9817    Y=              6.6018    Z=              3.3443  Tot=              7.9786
 Quadrupole moment (field-independent basis, Debye-Ang):
   XX=           -104.7719   YY=           -102.2129   ZZ=           -106.6022
   XY=             -9.1896   XZ=             15.1194   YZ=             -2.9689

 Normal termination of Gaussian 16 at Thu May  6 03:32:50 2021.
