 Gaussian 16, Revision A.03,
 Gaussian 16:  EM64L-G16RevA.03 25-Dec-2016

 -------------
 #p 6-31g* mp2
 -------------

 ------------------------------------------------------
 Input file generated by CHIRIPA (05-May-2021 14:55:18)
 ------------------------------------------------------
 Symbolic Z-matrix:
 Charge =  0 Multiplicity = 1

                         Standard orientation:
 ---------------------------------------------------------------------
 Center     Atomic      Atomic             Coordinates (Angstroms)
 Number     Number       Type             X           Y           Z
 ---------------------------------------------------------------------
      1          6           0       -0.923038   -1.463628    0.290917
      2          6           0       -1.149312   -0.208671    0.865726
      3          6           0       -2.402337    0.403089    0.764602
      4          6           0       -3.411002   -0.271497    0.078440
      5          6           0       -3.216597   -1.522545   -0.504978
      6          6           0       -1.955583   -2.115410   -0.391397
      7          1           0        0.053445   -1.931519    0.374311
      8          1           0       -0.349282    0.299842    1.396208
      9          1           0       -2.604897    1.374013    1.200139
     10          1           0       -4.033680   -2.004898   -1.027595
     11          1           0       -1.782726   -3.090091   -0.838792
     12          7           0       -4.741753    0.366145   -0.035210
     13          8           0       -5.613863   -0.248899   -0.644949
     14          8           0       -4.887487    1.468898    0.487604
     15          6           0        3.339576    0.598480   -0.007347
     16          6           0        2.834771    1.921854   -0.583400
     17          6           0        1.340989    2.140463   -0.341282
     18          1           0        2.769667   -0.228810   -0.452027
     19          1           0        3.134753    0.574525    1.071943
     20          1           0        3.041731    1.943888   -1.661034
     21          1           0        3.406079    2.746076   -0.137439
     22          1           0        1.121172    2.144989    0.731221
     23          1           0        0.754754    1.338242   -0.801032
     24          1           0        1.001302    3.092362   -0.761235
     25          6           0        4.831121    0.365585   -0.241409
     26          6           0        5.335927   -0.957790    0.334644
     27          6           0        6.829709   -1.176398    0.092526
     28          1           0        5.035944    0.389539   -1.320700
     29          1           0        5.401031    1.192874    0.203271
     30          1           0        4.764619   -1.782011   -0.111316
     31          1           0        5.128966   -0.979822    1.412280
     32          1           0        7.415943   -0.374176    0.552276
     33          1           0        7.049525   -1.180923   -0.979976
     34          1           0        7.169395   -2.128298    0.512479
 ---------------------------------------------------------------------

 SCF Done:  E(RHF) =  -669.534691847     A.U. after   15 cycles
 E2 =    -0.2092306674D+01 EUMP2 =    -0.67162699852015D+03

 The electronic state is 1-A.
 Alpha  occ. eigenvalues --  -20.60720 -20.60715 -15.85771 -11.31135 -11.27684
 Alpha  occ. eigenvalues --  -11.27660 -11.27414 -11.26725 -11.26637 -11.22368
 Alpha  occ. eigenvalues --  -11.22309 -11.22300 -11.22101 -11.21856 -11.21640
 Alpha  occ. eigenvalues --   -1.59795  -1.39348  -1.19298  -1.09216  -1.08695
 Alpha  occ. eigenvalues --   -1.04705  -1.04258  -0.96727  -0.95530  -0.87755
 Alpha  occ. eigenvalues --   -0.86089  -0.82363  -0.80343  -0.79054  -0.77402
 Alpha  occ. eigenvalues --   -0.71990  -0.71117  -0.70398  -0.65840  -0.64944
 Alpha  occ. eigenvalues --   -0.64721  -0.62075  -0.61652  -0.60076  -0.58340
 Alpha  occ. eigenvalues --   -0.56026  -0.55199  -0.53441  -0.53366  -0.52950
 Alpha  occ. eigenvalues --   -0.52595  -0.50660  -0.48783  -0.48745  -0.48580
 Alpha  occ. eigenvalues --   -0.47367  -0.46574  -0.46504  -0.44754  -0.44529
 Alpha  occ. eigenvalues --   -0.37265  -0.36252
 Alpha virt. eigenvalues --    0.05102   0.11310   0.16564   0.20045   0.22459
 Alpha virt. eigenvalues --    0.23738   0.24647   0.26016   0.26782   0.28515
 Alpha virt. eigenvalues --    0.29011   0.29817   0.31204   0.31406   0.31866

 Mulliken charges:
               1
     1  C   -0.175482
     2  C   -0.215813
     3  C   -0.173520
     4  C    0.158845
     5  C   -0.171637
     6  C   -0.218115
     7  H    0.226698
     8  H    0.229279
     9  H    0.275549
    10  H    0.275237
    11  H    0.223037
    12  N    0.488058
    13  O   -0.460664
    14  O   -0.460365
    15  C   -0.299501
    16  C   -0.299499
    17  C   -0.482141
    18  H    0.144269
    19  H    0.145696
    20  H    0.155506
    21  H    0.154801
    22  H    0.145773
    23  H    0.161739
    24  H    0.166526
    25  C   -0.298375
    26  C   -0.299912
    27  C   -0.476082
    28  H    0.151976
    29  H    0.152426
    30  H    0.149389
    31  H    0.151533
    32  H    0.156847
    33  H    0.156493
    34  H    0.161430
 Sum of Mulliken charges =  -0.00000

 Dipole moment (field-independent basis, Debye):
    X=              4.8540    Y=             -2.1712    Z=              0.3333  Tot=              5.3279
 Quadrupole moment (field-independent basis, Debye-Ang):
   XX=           -127.3034   YY=            -90.4513   ZZ=            -93.1912
   XY=              8.4584   XZ=              0.1091   YZ=              2.3490

 Normal termination of Gaussian 16 at Thu May  6 01:17:01 2021.
