 Gaussian 16, Revision A.03,
 Gaussian 16:  EM64L-G16RevA.03 25-Dec-2016

 -------------
 #p 6-31g* mp2
 -------------

 ------------------------------------------------------
 Input file generated by CHIRIPA (05-May-2021 14:51:11)
 ------------------------------------------------------
 Symbolic Z-matrix:
 Charge =  0 Multiplicity = 1

                         Standard orientation:
 ---------------------------------------------------------------------
 Center     Atomic      Atomic             Coordinates (Angstroms)
 Number     Number       Type             X           Y           Z
 ---------------------------------------------------------------------
      1          6           0       -3.746075   -0.584308   -0.268249
      2          6           0       -5.005508    0.206248    0.087888
      3          6           0       -6.176255   -0.093556   -0.848736
      4          1           0       -3.457465   -0.355208   -1.303219
      5          1           0       -3.975144   -1.658559   -0.238134
      6          1           0       -4.773772    1.278651    0.058460
      7          1           0       -5.291044   -0.024615    1.122193
      8          1           0       -6.435727   -1.156570   -0.813020
      9          1           0       -5.915516    0.154100   -1.882798
     10          1           0       -7.066177    0.482235   -0.576039
     11          6           0       -2.566980   -0.295384    0.659105
     12          6           0       -1.307546   -1.085940    0.302968
     13          6           0       -0.136800   -0.786137    1.239591
     14          1           0       -2.337910    0.778867    0.628989
     15          1           0       -2.855590   -0.524484    1.694074
     16          1           0       -1.022011   -0.855078   -0.731338
     17          1           0       -1.539283   -2.158343    0.332395
     18          1           0       -0.397538   -1.033793    2.273653
     19          1           0        0.122673    0.276877    1.203876
     20          1           0        0.753122   -1.361928    0.966894
     21          6           0        3.569676   -0.119745    0.120164
     22          6           0        3.842905   -1.283434   -0.833334
     23          6           0        4.670517   -2.395065   -0.187479
     24          1           0        4.526354    0.290393    0.471585
     25          1           0        3.046486   -0.498352    1.009167
     26          1           0        4.364196   -0.902517   -1.720901
     27          1           0        2.885467   -1.690726   -1.182676
     28          1           0        4.152607   -2.802588    0.686760
     29          1           0        5.639739   -2.009901    0.145477
     30          1           0        4.854058   -3.216837   -0.886668
     31          6           0        2.743379    0.999437   -0.511019
     32          6           0        2.470149    2.163126    0.442479
     33          6           0        1.642538    3.274758   -0.203376
     34          1           0        3.266568    1.378044   -1.400022
     35          1           0        1.786700    0.589299   -0.862441
     36          1           0        3.427588    2.570419    0.791821
     37          1           0        1.948859    1.782210    1.330046
     38          1           0        0.673316    2.889593   -0.536332
     39          1           0        2.160448    3.682281   -1.077615
     40          1           0        1.458997    4.096529    0.495812
 ---------------------------------------------------------------------

 SCF Done:  E(RHF) =  -470.732165388     A.U. after   11 cycles
 E2 =    -0.1584606054D+01 EUMP2 =    -0.47231677144224D+03

 The electronic state is 1-A.
 Alpha  occ. eigenvalues --  -11.21685 -11.21630 -11.21584 -11.21563 -11.21458
 Alpha  occ. eigenvalues --  -11.21395 -11.21333 -11.21270 -11.21117 -11.21099
 Alpha  occ. eigenvalues --  -11.21091 -11.21063  -1.08505  -1.08382  -1.03598
 Alpha  occ. eigenvalues --   -1.03512  -0.96074  -0.95933  -0.87071  -0.86977
 Alpha  occ. eigenvalues --   -0.79665  -0.79578  -0.78308  -0.78191  -0.65342
 Alpha  occ. eigenvalues --   -0.64910  -0.61211  -0.60737  -0.59395  -0.59331
 Alpha  occ. eigenvalues --   -0.57653  -0.57571  -0.55406  -0.55159  -0.52725
 Alpha  occ. eigenvalues --   -0.52670  -0.52482  -0.52353  -0.50129  -0.49752
 Alpha  occ. eigenvalues --   -0.48050  -0.47807  -0.46757  -0.46538  -0.45878
 Alpha  occ. eigenvalues --   -0.45800  -0.45693  -0.45595  -0.43810  -0.43738
 Alpha virt. eigenvalues --    0.19907   0.22682   0.23431   0.24731   0.26079
 Alpha virt. eigenvalues --    0.26387   0.26894   0.27946   0.28083   0.29543
 Alpha virt. eigenvalues --    0.30197   0.31439   0.31681   0.31749   0.32416

 Mulliken charges:
               1
     1  C   -0.298337
     2  C   -0.299721
     3  C   -0.475747
     4  H    0.149733
     5  H    0.149671
     6  H    0.152104
     7  H    0.152004
     8  H    0.155210
     9  H    0.155274
    10  H    0.160393
    11  C   -0.298726
    12  C   -0.301147
    13  C   -0.484902
    14  H    0.149587
    15  H    0.150009
    16  H    0.152115
    17  H    0.152374
    18  H    0.155476
    19  H    0.161750
    20  H    0.164100
    21  C   -0.301762
    22  C   -0.301209
    23  C   -0.475542
    24  H    0.149734
    25  H    0.153754
    26  H    0.152083
    27  H    0.151946
    28  H    0.154747
    29  H    0.155374
    30  H    0.160193
    31  C   -0.300260
    32  C   -0.303907
    33  C   -0.476404
    34  H    0.149471
    35  H    0.152904
    36  H    0.152692
    37  H    0.154925
    38  H    0.153997
    39  H    0.155672
    40  H    0.160372
 Sum of Mulliken charges =  -0.00000

 Dipole moment (field-independent basis, Debye):
    X=             -0.0177    Y=             -0.0045    Z=              0.0200  Tot=              0.0271
 Quadrupole moment (field-independent basis, Debye-Ang):
   XX=            -85.1932   YY=            -84.8568   ZZ=            -84.7603
   XY=              1.0564   XZ=             -1.1678   YZ=             -0.3965

 Normal termination of Gaussian 16 at Wed May  5 21:29:08 2021.
