 Gaussian 16, Revision A.03,
 Gaussian 16:  EM64L-G16RevA.03 25-Dec-2016

 -------------
 #p 6-31g* mp2
 -------------

 ------------------------------------------------------
 Input file generated by CHIRIPA (05-May-2021 14:51:12)
 ------------------------------------------------------
 Symbolic Z-matrix:
 Charge =  0 Multiplicity = 1

                         Standard orientation:
 ---------------------------------------------------------------------
 Center     Atomic      Atomic             Coordinates (Angstroms)
 Number     Number       Type             X           Y           Z
 ---------------------------------------------------------------------
      1          6           0        3.975050    0.406329    0.273031
      2          6           0        5.076909    0.136761   -0.752261
      3          6           0        6.233503    1.131817   -0.652516
      4          1           0        3.595030    1.427630    0.133481
      5          1           0        4.406370    0.368586    1.282949
      6          1           0        4.643364    0.173632   -1.759880
      7          1           0        5.454219   -0.884083   -0.610379
      8          1           0        6.692767    1.090408    0.340441
      9          1           0        5.877305    2.154133   -0.815591
     10          1           0        7.009885    0.920656   -1.394474
     11          6           0        2.811874   -0.580151    0.185820
     12          6           0        1.710015   -0.310583    1.211112
     13          6           0        0.553421   -1.305639    1.111367
     14          1           0        2.380554   -0.542408   -0.824098
     15          1           0        3.191894   -1.601452    0.325370
     16          1           0        1.332705    0.710262    1.069230
     17          1           0        2.143560   -0.347454    2.218731
     18          1           0        0.909619   -2.327955    1.274442
     19          1           0        0.094157   -1.264230    0.118410
     20          1           0       -0.222961   -1.094478    1.853325
     21          6           0       -3.884252    0.662778   -0.124861
     22          6           0       -3.212170    2.036041   -0.103890
     23          6           0       -4.207033    3.177938    0.106139
     24          1           0       -4.640140    0.643679   -0.921863
     25          1           0       -4.423151    0.511548    0.820715
     26          1           0       -2.673553    2.184065   -1.048663
     27          1           0       -2.457661    2.051809    0.693031
     28          1           0       -4.736337    3.057737    1.056923
     29          1           0       -4.953456    3.190745   -0.694667
     30          1           0       -3.705244    4.150527    0.117793
     31          6           0       -2.902672   -0.488956   -0.333990
     32          6           0       -3.574755   -1.862219   -0.354961
     33          6           0       -2.579891   -3.004116   -0.564989
     34          1           0       -2.363773   -0.337726   -1.279566
     35          1           0       -2.146783   -0.469858    0.463012
     36          1           0       -4.329263   -1.877986   -1.151881
     37          1           0       -4.113371   -2.010242    0.589813
     38          1           0       -1.833468   -3.016923    0.235817
     39          1           0       -2.050588   -2.883916   -1.515774
     40          1           0       -3.081680   -3.976706   -0.576644
 ---------------------------------------------------------------------

 SCF Done:  E(RHF) =  -470.731684041     A.U. after   11 cycles
 E2 =    -0.1583999284D+01 EUMP2 =    -0.47231568332535D+03

 The electronic state is 1-A.
 Alpha  occ. eigenvalues --  -11.21603 -11.21603 -11.21585 -11.21518 -11.21408
 Alpha  occ. eigenvalues --  -11.21348 -11.21325 -11.21210 -11.21072 -11.21059
 Alpha  occ. eigenvalues --  -11.21039 -11.20945  -1.08445  -1.08359  -1.03566
 Alpha  occ. eigenvalues --   -1.03451  -0.96001  -0.95918  -0.87033  -0.86938
 Alpha  occ. eigenvalues --   -0.79733  -0.79451  -0.78293  -0.78120  -0.65113
 Alpha  occ. eigenvalues --   -0.64971  -0.60994  -0.60842  -0.59399  -0.59266
 Alpha  occ. eigenvalues --   -0.57683  -0.57468  -0.55348  -0.55158  -0.52752
 Alpha  occ. eigenvalues --   -0.52610  -0.52509  -0.52260  -0.50032  -0.49816
 Alpha  occ. eigenvalues --   -0.48039  -0.47722  -0.46737  -0.46533  -0.45867
 Alpha  occ. eigenvalues --   -0.45740  -0.45668  -0.45369  -0.43737  -0.43697
 Alpha virt. eigenvalues --    0.21894   0.23085   0.23713   0.24469   0.25895
 Alpha virt. eigenvalues --    0.26529   0.26909   0.27442   0.28087   0.29598
 Alpha virt. eigenvalues --    0.29960   0.31327   0.31748   0.31751   0.32231

 Mulliken charges:
               1
     1  C   -0.298333
     2  C   -0.299641
     3  C   -0.475708
     4  H    0.149722
     5  H    0.149516
     6  H    0.151919
     7  H    0.151965
     8  H    0.155176
     9  H    0.155185
    10  H    0.160261
    11  C   -0.298641
    12  C   -0.301261
    13  C   -0.480740
    14  H    0.149862
    15  H    0.149773
    16  H    0.152252
    17  H    0.151670
    18  H    0.154849
    19  H    0.163841
    20  H    0.158792
    21  C   -0.297493
    22  C   -0.299504
    23  C   -0.475589
    24  H    0.149137
    25  H    0.149017
    26  H    0.151424
    27  H    0.151329
    28  H    0.155164
    29  H    0.155231
    30  H    0.159999
    31  C   -0.306593
    32  C   -0.298372
    33  C   -0.481281
    34  H    0.146988
    35  H    0.161001
    36  H    0.151174
    37  H    0.151107
    38  H    0.163720
    39  H    0.153665
    40  H    0.159421
 Sum of Mulliken charges =  -0.00000

 Dipole moment (field-independent basis, Debye):
    X=              0.0437    Y=             -0.0175    Z=              0.0189  Tot=              0.0507
 Quadrupole moment (field-independent basis, Debye-Ang):
   XX=            -86.0192   YY=            -85.7510   ZZ=            -83.3892
   XY=             -0.3529   XZ=              0.4652   YZ=             -0.6464

 Normal termination of Gaussian 16 at Wed May  5 16:48:27 2021.
