 Gaussian 16, Revision A.03,
 Gaussian 16:  EM64L-G16RevA.03 25-Dec-2016

 -------------
 #p 6-31g* mp2
 -------------

 ------------------------------------------------------
 Input file generated by CHIRIPA (05-May-2021 14:53:16)
 ------------------------------------------------------
 Symbolic Z-matrix:
 Charge =  0 Multiplicity = 1

                         Standard orientation:
 ---------------------------------------------------------------------
 Center     Atomic      Atomic             Coordinates (Angstroms)
 Number     Number       Type             X           Y           Z
 ---------------------------------------------------------------------
      1          6           0        3.459216   -0.590256   -0.007973
      2          6           0        2.119784    0.145765    0.038691
      3          6           0        0.925467   -0.805041    0.124533
      4          1           0        3.467018   -1.269903   -0.871086
      5          1           0        3.554711   -1.220522    0.887036
      6          1           0        2.027451    0.775515   -0.855460
      7          1           0        2.115243    0.823879    0.901684
      8          1           0        0.990280   -1.424671    1.024789
      9          1           0        0.901989   -1.473310   -0.742338
     10          1           0       -0.021826   -0.257817    0.156801
     11          6           0        4.662689    0.346760   -0.093893
     12          6           0        6.002122   -0.389261   -0.140556
     13          6           0        7.196438    0.561545   -0.226399
     14          1           0        4.567194    0.977026   -0.988902
     15          1           0        4.654887    1.026407    0.769221
     16          1           0        6.006662   -1.067376   -1.003549
     17          1           0        6.094454   -1.019011    0.753595
     18          1           0        7.219916    1.229814    0.640473
     19          1           0        7.131625    1.181175   -1.126654
     20          1           0        8.143732    0.014321   -0.258666
     21          6           0       -3.053545    2.614860    0.091130
     22          6           0       -2.482254    1.865869    1.125132
     23          6           0       -2.542243    0.469221    1.107073
     24          6           0       -3.184131   -0.148484    0.034828
     25          6           0       -3.762873    0.570043   -1.010192
     26          6           0       -3.690908    1.965700   -0.971359
     27          1           0       -3.002292    3.699424    0.113227
     28          1           0       -1.986633    2.367325    1.951537
     29          1           0       -2.108396   -0.135074    1.894488
     30          1           0       -4.250238    0.041837   -1.820680
     31          1           0       -4.135463    2.544813   -1.775749
     32          7           0       -3.253978   -1.626528    0.004714
     33          8           0       -3.825134   -2.146811   -0.951176
     34          8           0       -2.736246   -2.236749    0.937570
 ---------------------------------------------------------------------

 SCF Done:  E(RHF) =  -669.534978582     A.U. after   15 cycles
 E2 =    -0.2092333413D+01 EUMP2 =    -0.67162731199453D+03

 The electronic state is 1-A.
 Alpha  occ. eigenvalues --  -20.60775 -20.60754 -15.85815 -11.31209 -11.27793
 Alpha  occ. eigenvalues --  -11.27775 -11.27542 -11.26812 -11.26800 -11.21583
 Alpha  occ. eigenvalues --  -11.21568 -11.21384 -11.21297 -11.21081 -11.20795
 Alpha  occ. eigenvalues --   -1.59834  -1.39387  -1.19406  -1.08783  -1.08392
 Alpha  occ. eigenvalues --   -1.04816  -1.03473  -0.95916  -0.95609  -0.86933
 Alpha  occ. eigenvalues --   -0.86196  -0.82443  -0.79541  -0.78208  -0.77483
 Alpha  occ. eigenvalues --   -0.72035  -0.71157  -0.70506  -0.65050  -0.65026
 Alpha  occ. eigenvalues --   -0.64804  -0.62161  -0.60871  -0.59324  -0.57555
 Alpha  occ. eigenvalues --   -0.55307  -0.55183  -0.53394  -0.52900  -0.52445
 Alpha  occ. eigenvalues --   -0.52212  -0.49839  -0.48797  -0.48787  -0.47846
 Alpha  occ. eigenvalues --   -0.46579  -0.45745  -0.45678  -0.44793  -0.43731
 Alpha  occ. eigenvalues --   -0.37360  -0.36360
 Alpha virt. eigenvalues --    0.05041   0.11195   0.16517   0.21322   0.22909
 Alpha virt. eigenvalues --    0.24366   0.26646   0.27171   0.27492   0.27887
 Alpha virt. eigenvalues --    0.28669   0.30857   0.31485   0.31877   0.32072

 Mulliken charges:
               1
     1  C   -0.298372
     2  C   -0.298533
     3  C   -0.482019
     4  H    0.151409
     5  H    0.150489
     6  H    0.150140
     7  H    0.146233
     8  H    0.158793
     9  H    0.159171
    10  H    0.160294
    11  C   -0.297889
    12  C   -0.299687
    13  C   -0.475615
    14  H    0.148612
    15  H    0.147911
    16  H    0.152756
    17  H    0.152430
    18  H    0.154425
    19  H    0.154720
    20  H    0.160564
    21  C   -0.170668
    22  C   -0.217597
    23  C   -0.175684
    24  C    0.161943
    25  C   -0.171010
    26  C   -0.218458
    27  H    0.225879
    28  H    0.224005
    29  H    0.277680
    30  H    0.275841
    31  H    0.223611
    32  N    0.488966
    33  O   -0.460681
    34  O   -0.459659
 Sum of Mulliken charges =  -0.00000

 Dipole moment (field-independent basis, Debye):
    X=              0.1656    Y=              5.1529    Z=              0.1012  Tot=              5.1565
 Quadrupole moment (field-independent basis, Debye-Ang):
   XX=            -96.7484   YY=            -97.1606   ZZ=            -90.1278
   XY=            -17.6438   XZ=              2.2641   YZ=              0.0115

 Normal termination of Gaussian 16 at Thu May  6 13:52:42 2021.
