 Gaussian 16, Revision A.03,
 Gaussian 16:  EM64L-G16RevA.03 25-Dec-2016

 -------------
 #p 6-31g* mp2
 -------------

 ------------------------------------------------------
 Input file generated by CHIRIPA (05-May-2021 14:51:13)
 ------------------------------------------------------
 Symbolic Z-matrix:
 Charge =  0 Multiplicity = 1

                         Standard orientation:
 ---------------------------------------------------------------------
 Center     Atomic      Atomic             Coordinates (Angstroms)
 Number     Number       Type             X           Y           Z
 ---------------------------------------------------------------------
      1          6           0        3.088136   -0.169571   -0.008661
      2          6           0        4.343487   -0.893786   -0.496096
      3          6           0        4.234841   -2.413837   -0.371862
      4          1           0        2.899674   -0.440715    1.039150
      5          1           0        2.221862   -0.524430   -0.584022
      6          1           0        5.207350   -0.536658    0.079069
      7          1           0        4.529091   -0.620737   -1.542811
      8          1           0        3.391046   -2.789088   -0.959906
      9          1           0        4.073158   -2.704532    0.671190
     10          1           0        5.143059   -2.911510   -0.725872
     11          6           0        3.181508    1.350665   -0.126518
     12          6           0        1.926157    2.074880    0.360917
     13          6           0        2.034803    3.594931    0.236682
     14          1           0        4.047782    1.705524    0.448842
     15          1           0        3.369971    1.621810   -1.174329
     16          1           0        1.740553    1.801831    1.407631
     17          1           0        1.062294    1.717752   -0.214249
     18          1           0        2.196486    3.885626   -0.806369
     19          1           0        2.878599    3.970183    0.824726
     20          1           0        1.126585    4.092604    0.590692
     21          6           0       -2.371036   -0.584914    0.073189
     22          6           0       -1.758381   -1.903561    0.546274
     23          6           0       -0.229642   -1.876727    0.551970
     24          1           0       -2.003097   -0.358536   -0.936920
     25          1           0       -2.020087    0.228487    0.723272
     26          1           0       -2.111477   -2.714437   -0.103665
     27          1           0       -2.127971   -2.126922    1.555298
     28          1           0        0.139332   -1.087571    1.215063
     29          1           0        0.155920   -1.678424   -0.453325
     30          1           0        0.187335   -2.829288    0.893462
     31          6           0       -3.898608   -0.596180    0.061990
     32          6           0       -4.511263    0.722467   -0.411094
     33          6           0       -6.040002    0.695632   -0.416790
     34          1           0       -4.249557   -1.409581   -0.588093
     35          1           0       -4.266547   -0.822558    1.072099
     36          1           0       -4.141673    0.945829   -1.420118
     37          1           0       -4.158168    1.533343    0.238844
     38          1           0       -6.425564    0.497329    0.588504
     39          1           0       -6.408977   -0.093523   -1.079884
     40          1           0       -6.456979    1.648193   -0.758282
 ---------------------------------------------------------------------

 SCF Done:  E(RHF) =  -470.732542143     A.U. after   11 cycles
 E2 =    -0.1583637890D+01 EUMP2 =    -0.47231618003232D+03

 The electronic state is 1-A.
 Alpha  occ. eigenvalues --  -11.21603 -11.21564 -11.21561 -11.21517 -11.21401
 Alpha  occ. eigenvalues --  -11.21342 -11.21315 -11.21201 -11.21072 -11.21046
 Alpha  occ. eigenvalues --  -11.21004 -11.20989  -1.08429  -1.08348  -1.03517
 Alpha  occ. eigenvalues --   -1.03466  -0.95992  -0.95890  -0.87022  -0.86899
 Alpha  occ. eigenvalues --   -0.79647  -0.79505  -0.78326  -0.78038  -0.65081
 Alpha  occ. eigenvalues --   -0.64971  -0.60942  -0.60843  -0.59360  -0.59255
 Alpha  occ. eigenvalues --   -0.57709  -0.57414  -0.55319  -0.55146  -0.52708
 Alpha  occ. eigenvalues --   -0.52628  -0.52526  -0.52173  -0.49982  -0.49800
 Alpha  occ. eigenvalues --   -0.48014  -0.47821  -0.46689  -0.46522  -0.46020
 Alpha  occ. eigenvalues --   -0.45761  -0.45549  -0.45232  -0.43764  -0.43711
 Alpha virt. eigenvalues --    0.21516   0.23078   0.23886   0.24232   0.25325
 Alpha virt. eigenvalues --    0.26088   0.27114   0.27633   0.27877   0.30141
 Alpha virt. eigenvalues --    0.30518   0.31168   0.31729   0.31935   0.32242

 Mulliken charges:
               1
     1  C   -0.302369
     2  C   -0.299461
     3  C   -0.475683
     4  H    0.149772
     5  H    0.156891
     6  H    0.151259
     7  H    0.151114
     8  H    0.155300
     9  H    0.155153
    10  H    0.159745
    11  C   -0.297856
    12  C   -0.300995
    13  C   -0.475561
    14  H    0.148906
    15  H    0.148968
    16  H    0.150916
    17  H    0.153627
    18  H    0.155153
    19  H    0.155078
    20  H    0.159959
    21  C   -0.298653
    22  C   -0.300531
    23  C   -0.476797
    24  H    0.148690
    25  H    0.150364
    26  H    0.151442
    27  H    0.151598
    28  H    0.158834
    29  H    0.154982
    30  H    0.160117
    31  C   -0.298192
    32  C   -0.299628
    33  C   -0.475698
    34  H    0.149503
    35  H    0.149713
    36  H    0.151771
    37  H    0.151961
    38  H    0.155200
    39  H    0.155167
    40  H    0.160241
 Sum of Mulliken charges =  -0.00000

 Dipole moment (field-independent basis, Debye):
    X=             -0.0142    Y=             -0.0141    Z=              0.0085  Tot=              0.0217
 Quadrupole moment (field-independent basis, Debye-Ang):
   XX=            -86.1224   YY=            -86.0246   ZZ=            -82.9359
   XY=              0.1964   XZ=              0.3072   YZ=              0.3972

 Normal termination of Gaussian 16 at Wed May  5 15:20:56 2021.
