 Gaussian 16, Revision A.03,
 Gaussian 16:  EM64L-G16RevA.03 25-Dec-2016

 -------------
 #p 6-31g* mp2
 -------------

 ------------------------------------------------------
 Input file generated by CHIRIPA (05-May-2021 14:51:13)
 ------------------------------------------------------
 Symbolic Z-matrix:
 Charge =  0 Multiplicity = 1

                         Standard orientation:
 ---------------------------------------------------------------------
 Center     Atomic      Atomic             Coordinates (Angstroms)
 Number     Number       Type             X           Y           Z
 ---------------------------------------------------------------------
      1          6           0       -3.684143    0.771368    0.288092
      2          6           0       -4.846676    1.375426   -0.500334
      3          6           0       -5.061051    2.858137   -0.194711
      4          1           0       -3.870940    0.902425    1.362743
      5          1           0       -2.765950    1.330200    0.060005
      6          1           0       -5.762137    0.814749   -0.271887
      7          1           0       -4.657181    1.242746   -1.573229
      8          1           0       -4.163853    3.435653   -0.439889
      9          1           0       -5.275086    3.005224    0.868847
     10          1           0       -5.896887    3.269672   -0.769060
     11          6           0       -3.457340   -0.710326   -0.006645
     12          6           0       -2.294807   -1.314384    0.781781
     13          6           0       -2.080432   -2.797095    0.476157
     14          1           0       -4.375533   -1.269158    0.221442
     15          1           0       -3.270543   -0.841383   -1.081297
     16          1           0       -2.484302   -1.181703    1.854676
     17          1           0       -1.379346   -0.753706    0.553333
     18          1           0       -1.866397   -2.944182   -0.587401
     19          1           0       -2.977630   -3.374611    0.721336
     20          1           0       -1.244596   -3.208629    1.050507
     21          6           0        2.898060   -0.301977   -0.379979
     22          6           0        2.772308   -1.819452   -0.240544
     23          6           0        1.421052   -2.347495   -0.723318
     24          1           0        2.090369    0.180181    0.187562
     25          1           0        2.749546   -0.023927   -1.432607
     26          1           0        2.922389   -2.094692    0.811281
     27          1           0        3.580507   -2.298049   -0.808326
     28          1           0        1.266167   -2.101585   -1.778845
     29          1           0        0.604310   -1.897072   -0.150036
     30          1           0        1.352691   -3.434405   -0.614623
     31          6           0        4.243423    0.240935    0.098533
     32          6           0        4.369175    1.758410   -0.040903
     33          6           0        5.720431    2.286453    0.441871
     34          1           0        4.391938   -0.037116    1.151161
     35          1           0        5.051114   -0.241224   -0.469008
     36          1           0        3.560976    2.237007    0.526880
     37          1           0        4.219094    2.033649   -1.092727
     38          1           0        6.537173    1.836029   -0.131410
     39          1           0        5.875316    2.040543    1.497399
     40          1           0        5.788792    3.373362    0.333177
 ---------------------------------------------------------------------

 SCF Done:  E(RHF) =  -470.732431022     A.U. after   11 cycles
 E2 =    -0.1583313105D+01 EUMP2 =    -0.47231574412642D+03

 The electronic state is 1-A.
 Alpha  occ. eigenvalues --  -11.21611 -11.21603 -11.21599 -11.21565 -11.21405
 Alpha  occ. eigenvalues --  -11.21403 -11.21345 -11.21344 -11.21072 -11.21070
 Alpha  occ. eigenvalues --  -11.20990 -11.20957  -1.08444  -1.08408  -1.03580
 Alpha  occ. eigenvalues --   -1.03462  -0.96064  -0.95869  -0.87081  -0.86880
 Alpha  occ. eigenvalues --   -0.79606  -0.79564  -0.78263  -0.78222  -0.65149
 Alpha  occ. eigenvalues --   -0.64988  -0.61173  -0.60736  -0.59375  -0.59298
 Alpha  occ. eigenvalues --   -0.57663  -0.57511  -0.55480  -0.55012  -0.52783
 Alpha  occ. eigenvalues --   -0.52531  -0.52406  -0.52328  -0.49962  -0.49790
 Alpha  occ. eigenvalues --   -0.47970  -0.47824  -0.46707  -0.46528  -0.45858
 Alpha  occ. eigenvalues --   -0.45752  -0.45731  -0.45584  -0.43839  -0.43695
 Alpha virt. eigenvalues --    0.21554   0.23079   0.23563   0.24963   0.25952
 Alpha virt. eigenvalues --    0.26720   0.27189   0.27351   0.28018   0.29277
 Alpha virt. eigenvalues --    0.30447   0.31130   0.31411   0.32108   0.32290

 Mulliken charges:
               1
     1  C   -0.298491
     2  C   -0.299662
     3  C   -0.475725
     4  H    0.149520
     5  H    0.149607
     6  H    0.151940
     7  H    0.152042
     8  H    0.155209
     9  H    0.155123
    10  H    0.160266
    11  C   -0.297700
    12  C   -0.305162
    13  C   -0.478347
    14  H    0.149716
    15  H    0.150081
    16  H    0.151987
    17  H    0.153918
    18  H    0.158259
    19  H    0.155442
    20  H    0.161393
    21  C   -0.298497
    22  C   -0.299748
    23  C   -0.483539
    24  H    0.148983
    25  H    0.149291
    26  H    0.151507
    27  H    0.151571
    28  H    0.153581
    29  H    0.167037
    30  H    0.160261
    31  C   -0.298205
    32  C   -0.299661
    33  C   -0.475700
    34  H    0.149583
    35  H    0.149758
    36  H    0.151900
    37  H    0.151815
    38  H    0.155188
    39  H    0.155221
    40  H    0.160237
 Sum of Mulliken charges =  -0.00000

 Dipole moment (field-independent basis, Debye):
    X=             -0.0249    Y=             -0.0145    Z=             -0.0015  Tot=              0.0289
 Quadrupole moment (field-independent basis, Debye-Ang):
   XX=            -85.2596   YY=            -86.1416   ZZ=            -83.4386
   XY=             -0.0372   XZ=             -1.0606   YZ=             -0.3669

 Normal termination of Gaussian 16 at Wed May  5 18:23:16 2021.
