 Gaussian 16, Revision A.03,
 Gaussian 16:  EM64L-G16RevA.03 25-Dec-2016

 -------------
 #p 6-31g* mp2
 -------------

 ------------------------------------------------------
 Input file generated by CHIRIPA (05-May-2021 14:55:24)
 ------------------------------------------------------
 Symbolic Z-matrix:
 Charge =  0 Multiplicity = 1

                         Standard orientation:
 ---------------------------------------------------------------------
 Center     Atomic      Atomic             Coordinates (Angstroms)
 Number     Number       Type             X           Y           Z
 ---------------------------------------------------------------------
      1          6           0       -2.396525    1.104551   -2.008184
      2          6           0       -2.409902   -0.292922   -1.949781
      3          6           0       -2.102814   -0.956731   -0.758310
      4          6           0       -1.785424   -0.188303    0.360650
      5          6           0       -1.763535    1.205293    0.334146
      6          6           0       -2.073953    1.847888   -0.868044
      7          1           0       -2.636371    1.611974   -2.937910
      8          1           0       -2.660046   -0.872780   -2.833657
      9          1           0       -2.105617   -2.037497   -0.685140
     10          1           0       -1.510284    1.756209    1.231795
     11          1           0       -2.062772    2.933300   -0.910470
     12          7           0       -1.458561   -0.879818    1.627681
     13          8           0       -1.182228   -0.179940    2.599507
     14          8           0       -1.484888   -2.108613    1.624961
     15          6           0        2.392702    0.831711   -0.392906
     16          6           0        2.208201    1.787928    0.785904
     17          6           0        2.287602    3.257887    0.372733
     18          1           0        3.363484    1.028590   -0.868054
     19          1           0        1.625358    1.042534   -1.150621
     20          1           0        2.974810    1.574443    1.541782
     21          1           0        1.237828    1.588620    1.258417
     22          1           0        1.513034    3.493263   -0.364319
     23          1           0        3.259885    3.479005   -0.079345
     24          1           0        2.153066    3.923906    1.230741
     25          6           0        2.315892   -0.641419    0.004226
     26          6           0        2.500394   -1.597636   -1.174584
     27          6           0        2.420992   -3.067595   -0.761413
     28          1           0        3.083236   -0.852243    0.761941
     29          1           0        1.345110   -0.838299    0.479373
     30          1           0        3.470766   -1.398329   -1.647097
     31          1           0        1.733784   -1.384151   -1.930462
     32          1           0        1.448710   -3.288713   -0.309335
     33          1           0        3.195560   -3.302971   -0.024361
     34          1           0        2.555528   -3.733614   -1.619421
 ---------------------------------------------------------------------

 SCF Done:  E(RHF) =  -669.535976525     A.U. after   15 cycles
 E2 =    -0.2094685452D+01 EUMP2 =    -0.67163066197680D+03

 The electronic state is 1-A.
 Alpha  occ. eigenvalues --  -20.60973 -20.60964 -15.85993 -11.31338 -11.27910
 Alpha  occ. eigenvalues --  -11.27907 -11.27642 -11.26922 -11.26909 -11.21439
 Alpha  occ. eigenvalues --  -11.21408 -11.21238 -11.21169 -11.21118 -11.20727
 Alpha  occ. eigenvalues --   -1.60032  -1.39585  -1.19518  -1.08917  -1.08254
 Alpha  occ. eigenvalues --   -1.04913  -1.03378  -0.95837  -0.95749  -0.86848
 Alpha  occ. eigenvalues --   -0.86310  -0.82579  -0.79432  -0.78063  -0.77625
 Alpha  occ. eigenvalues --   -0.72214  -0.71373  -0.70618  -0.65167  -0.64960
 Alpha  occ. eigenvalues --   -0.64846  -0.62273  -0.60779  -0.59203  -0.57434
 Alpha  occ. eigenvalues --   -0.55411  -0.55137  -0.53220  -0.53000  -0.52538
 Alpha  occ. eigenvalues --   -0.52246  -0.49780  -0.48982  -0.48972  -0.47748
 Alpha  occ. eigenvalues --   -0.46486  -0.45584  -0.45531  -0.44936  -0.43626
 Alpha  occ. eigenvalues --   -0.37468  -0.36490
 Alpha virt. eigenvalues --    0.04851   0.11038   0.16332   0.20810   0.22812
 Alpha virt. eigenvalues --    0.24034   0.26111   0.27079   0.27313   0.27821
 Alpha virt. eigenvalues --    0.28844   0.30449   0.30876   0.31911   0.31984

 Mulliken charges:
               1
     1  C   -0.170730
     2  C   -0.218401
     3  C   -0.171746
     4  C    0.155793
     5  C   -0.170521
     6  C   -0.219612
     7  H    0.226518
     8  H    0.224343
     9  H    0.276269
    10  H    0.276830
    11  H    0.224830
    12  N    0.491345
    13  O   -0.459119
    14  O   -0.459402
    15  C   -0.299371
    16  C   -0.303428
    17  C   -0.476094
    18  H    0.148245
    19  H    0.147288
    20  H    0.155549
    21  H    0.156240
    22  H    0.147356
    23  H    0.156097
    24  H    0.160293
    25  C   -0.297963
    26  C   -0.299545
    27  C   -0.478145
    28  H    0.153010
    29  H    0.150225
    30  H    0.150468
    31  H    0.147008
    32  H    0.162579
    33  H    0.157199
    34  H    0.156592
 Sum of Mulliken charges =  -0.00000

 Dipole moment (field-independent basis, Debye):
    X=             -1.2415    Y=              2.3575    Z=             -4.3609  Tot=              5.1104
 Quadrupole moment (field-independent basis, Debye-Ang):
   XX=            -90.1538   YY=            -93.3259   ZZ=            -97.4942
   XY=             -3.6561   XZ=              8.5718   YZ=              4.0151

 Normal termination of Gaussian 16 at Thu May  6 19:22:21 2021.
