 Gaussian 16, Revision A.03,
 Gaussian 16:  EM64L-G16RevA.03 25-Dec-2016

 -------------
 #p 6-31g* mp2
 -------------

 ------------------------------------------------------
 Input file generated by CHIRIPA (05-May-2021 14:57:25)
 ------------------------------------------------------
 Symbolic Z-matrix:
 Charge =  0 Multiplicity = 1

                         Standard orientation:
 ---------------------------------------------------------------------
 Center     Atomic      Atomic             Coordinates (Angstroms)
 Number     Number       Type             X           Y           Z
 ---------------------------------------------------------------------
      1          6           0        1.479838    2.395702   -1.448029
      2          6           0        1.159250    1.128471   -1.945894
      3          6           0        1.554795   -0.024369   -1.261020
      4          6           0        2.272945    0.127537   -0.075914
      5          6           0        2.607583    1.376228    0.445697
      6          6           0        2.201709    2.515325   -0.255924
      7          1           0        1.168557    3.285918   -1.986560
      8          1           0        0.598735    1.032544   -2.871456
      9          1           0        1.320044   -1.017666   -1.623884
     10          1           0        3.167373    1.439963    1.370895
     11          1           0        2.452090    3.498189    0.133091
     12          7           0        2.697158   -1.085648    0.657996
     13          8           0        3.328971   -0.924896    1.699921
     14          8           0        2.389811   -2.174324    0.177413
     15          6           0       -2.936379    1.806643    1.325419
     16          6           0       -3.363371    1.520233    0.024585
     17          6           0       -2.963280    0.340773   -0.610513
     18          6           0       -2.132132   -0.533804    0.087768
     19          6           0       -1.689882   -0.276644    1.384523
     20          6           0       -2.102468    0.908874    2.000046
     21          1           0       -3.252033    2.725229    1.811176
     22          1           0       -4.011025    2.215613   -0.501756
     23          1           0       -3.278996    0.094163   -1.616956
     24          1           0       -1.044562   -0.989219    1.883738
     25          1           0       -1.769304    1.128695    3.010356
     26          7           0       -1.701960   -1.785652   -0.574221
     27          8           0       -0.969469   -2.539788    0.062467
     28          8           0       -2.105427   -1.989010   -1.717242
 ---------------------------------------------------------------------

 SCF Done:  E(RHF) =  -868.336899429     A.U. after   16 cycles
 E2 =    -0.2603281730D+01 EUMP2 =    -0.87094018115956D+03

 The electronic state is 1-A.
 Alpha  occ. eigenvalues --  -20.60923 -20.60792 -20.60405 -20.60264 -15.85875
 Alpha  occ. eigenvalues --  -15.85379 -11.31317 -11.30968 -11.27936 -11.27838
 Alpha  occ. eigenvalues --  -11.27661 -11.27611 -11.27447 -11.27369 -11.26966
 Alpha  occ. eigenvalues --  -11.26891 -11.26677 -11.26581  -1.59943  -1.59415
 Alpha  occ. eigenvalues --   -1.39483  -1.38950  -1.19500  -1.19163  -1.08890
 Alpha  occ. eigenvalues --   -1.08528  -1.04910  -1.04591  -0.95708  -0.95320
 Alpha  occ. eigenvalues --   -0.86311  -0.85978  -0.82531  -0.82133  -0.77576
 Alpha  occ. eigenvalues --   -0.77139  -0.72092  -0.71616  -0.71324  -0.70716
 Alpha  occ. eigenvalues --   -0.70612  -0.70239  -0.65150  -0.64918  -0.64804
 Alpha  occ. eigenvalues --   -0.64584  -0.62254  -0.61903  -0.55422  -0.55100
 Alpha  occ. eigenvalues --   -0.53433  -0.53004  -0.52738  -0.52659  -0.48881
 Alpha  occ. eigenvalues --   -0.48852  -0.48393  -0.48339  -0.44959  -0.44170
 Alpha  occ. eigenvalues --   -0.37590  -0.37217  -0.36457  -0.36116
 Alpha virt. eigenvalues --    0.04903   0.05373   0.10935   0.11589   0.16413
 Alpha virt. eigenvalues --    0.16833   0.21210   0.21619   0.27115   0.27458
 Alpha virt. eigenvalues --    0.28137   0.28540   0.30801   0.31048   0.32357

 Mulliken charges:
               1
     1  C   -0.170909
     2  C   -0.218960
     3  C   -0.181153
     4  C    0.158017
     5  C   -0.173437
     6  C   -0.218717
     7  H    0.222787
     8  H    0.225796
     9  H    0.289533
    10  H    0.273418
    11  H    0.220451
    12  N    0.485020
    13  O   -0.467842
    14  O   -0.444568
    15  C   -0.171342
    16  C   -0.219156
    17  C   -0.173583
    18  C    0.159917
    19  C   -0.172472
    20  C   -0.217971
    21  H    0.224659
    22  H    0.221555
    23  H    0.272973
    24  H    0.281275
    25  H    0.225070
    26  N    0.483322
    27  O   -0.446428
    28  O   -0.467251
 Sum of Mulliken charges =  -0.00000

 Dipole moment (field-independent basis, Debye):
    X=             -2.9862    Y=              8.3639    Z=             -0.2106  Tot=              8.8835
 Quadrupole moment (field-independent basis, Debye-Ang):
   XX=           -104.8231   YY=           -107.2635   ZZ=            -98.9283
   XY=              1.1354   XZ=             -7.2902   YZ=             -0.4344

 Normal termination of Gaussian 16 at Fri May  7 08:05:10 2021.
