 Gaussian 16, Revision A.03,
 Gaussian 16:  EM64L-G16RevA.03 25-Dec-2016

 -------------
 #p 6-31g* mp2
 -------------

 ------------------------------------------------------
 Input file generated by CHIRIPA (05-May-2021 14:51:12)
 ------------------------------------------------------
 Symbolic Z-matrix:
 Charge =  0 Multiplicity = 1

                         Standard orientation:
 ---------------------------------------------------------------------
 Center     Atomic      Atomic             Coordinates (Angstroms)
 Number     Number       Type             X           Y           Z
 ---------------------------------------------------------------------
      1          6           0       -3.401000    0.735876    0.183685
      2          6           0       -2.903624    1.790140   -0.805825
      3          6           0       -2.172101    2.945057   -0.121110
      4          1           0       -4.068872    1.213460    0.913619
      5          1           0       -2.545993    0.344091    0.751894
      6          1           0       -3.759132    2.178826   -1.372963
      7          1           0       -2.237010    1.309954   -1.533603
      8          1           0       -1.301012    2.576465    0.430202
      9          1           0       -2.831782    3.450274    0.591755
     10          1           0       -1.825122    3.687102   -0.846944
     11          6           0       -4.134354   -0.425077   -0.485726
     12          6           0       -4.631730   -1.479341    0.503784
     13          6           0       -5.363253   -2.634258   -0.180931
     14          1           0       -4.989361   -0.033292   -1.053934
     15          1           0       -3.466482   -0.902661   -1.215660
     16          1           0       -5.298344   -0.999155    1.231562
     17          1           0       -3.776222   -1.868027    1.070922
     18          1           0       -4.703572   -3.139475   -0.893796
     19          1           0       -6.234342   -2.265666   -0.732243
     20          1           0       -5.710232   -3.376303    0.544904
     21          6           0        4.506906   -0.176174    0.342176
     22          6           0        5.404992   -0.724015   -0.767462
     23          6           0        6.880991   -0.759350   -0.370006
     24          1           0        4.840574    0.835946    0.609057
     25          1           0        4.630426   -0.793621    1.242675
     26          1           0        5.278777   -0.106550   -1.666028
     27          1           0        5.069028   -1.734875   -1.031864
     28          1           0        7.027446   -1.391312    0.511911
     29          1           0        7.238385    0.246265   -0.125856
     30          1           0        7.504938   -1.154327   -1.177808
     31          6           0        3.028448   -0.134625   -0.040135
     32          6           0        2.130362    0.413217    1.069503
     33          6           0        0.654363    0.448551    0.672047
     34          1           0        2.904929    0.482822   -0.940634
     35          1           0        2.694781   -1.146745   -0.307016
     36          1           0        2.466326    1.424076    1.333905
     37          1           0        2.256577   -0.204250    1.968069
     38          1           0        0.296968   -0.557064    0.427897
     39          1           0        0.507908    1.080512   -0.209870
     40          1           0        0.030417    0.843527    1.479848
 ---------------------------------------------------------------------

 SCF Done:  E(RHF) =  -470.732221774     A.U. after   11 cycles
 E2 =    -0.1583596692D+01 EUMP2 =    -0.47231581846658D+03

 The electronic state is 1-A.
 Alpha  occ. eigenvalues --  -11.21682 -11.21638 -11.21548 -11.21477 -11.21464
 Alpha  occ. eigenvalues --  -11.21401 -11.21306 -11.21223 -11.21186 -11.21099
 Alpha  occ. eigenvalues --  -11.21033 -11.20853  -1.08495  -1.08329  -1.03621
 Alpha  occ. eigenvalues --   -1.03419  -0.96082  -0.95866  -0.87106  -0.86887
 Alpha  occ. eigenvalues --   -0.79713  -0.79471  -0.78308  -0.78136  -0.65134
 Alpha  occ. eigenvalues --   -0.64963  -0.61131  -0.60769  -0.59475  -0.59199
 Alpha  occ. eigenvalues --   -0.57679  -0.57486  -0.55589  -0.54962  -0.52803
 Alpha  occ. eigenvalues --   -0.52571  -0.52478  -0.52293  -0.50169  -0.49623
 Alpha  occ. eigenvalues --   -0.47984  -0.47808  -0.46703  -0.46486  -0.45871
 Alpha  occ. eigenvalues --   -0.45763  -0.45671  -0.45608  -0.43772  -0.43678
 Alpha virt. eigenvalues --    0.21466   0.22953   0.23766   0.24789   0.26048
 Alpha virt. eigenvalues --    0.26588   0.27082   0.27621   0.28005   0.29270
 Alpha virt. eigenvalues --    0.30087   0.31099   0.31727   0.31889   0.32217

 Mulliken charges:
               1
     1  C   -0.303552
     2  C   -0.298583
     3  C   -0.483077
     4  H    0.148719
     5  H    0.156114
     6  H    0.151253
     7  H    0.151576
     8  H    0.164113
     9  H    0.153748
    10  H    0.158357
    11  C   -0.298005
    12  C   -0.299556
    13  C   -0.475616
    14  H    0.149175
    15  H    0.149384
    16  H    0.151784
    17  H    0.151610
    18  H    0.154975
    19  H    0.155140
    20  H    0.159976
    21  C   -0.298374
    22  C   -0.299684
    23  C   -0.475743
    24  H    0.149877
    25  H    0.149658
    26  H    0.152023
    27  H    0.151957
    28  H    0.155236
    29  H    0.155279
    30  H    0.160382
    31  C   -0.298951
    32  C   -0.300525
    33  C   -0.480836
    34  H    0.149883
    35  H    0.149652
    36  H    0.152659
    37  H    0.152306
    38  H    0.155134
    39  H    0.159899
    40  H    0.162633
 Sum of Mulliken charges =  -0.00000

 Dipole moment (field-independent basis, Debye):
    X=              0.0888    Y=             -0.0229    Z=              0.0226  Tot=              0.0945
 Quadrupole moment (field-independent basis, Debye-Ang):
   XX=            -85.7272   YY=            -84.6429   ZZ=            -84.8041
   XY=             -0.6015   XZ=             -0.5163   YZ=             -0.5652

 Normal termination of Gaussian 16 at Thu May  6 00:44:43 2021.
