 Gaussian 16, Revision A.03,
 Gaussian 16:  EM64L-G16RevA.03 25-Dec-2016

 -------------
 #p 6-31g* mp2
 -------------

 ------------------------------------------------------
 Input file generated by CHIRIPA (05-May-2021 14:51:08)
 ------------------------------------------------------
 Symbolic Z-matrix:
 Charge =  0 Multiplicity = 1

                         Standard orientation:
 ---------------------------------------------------------------------
 Center     Atomic      Atomic             Coordinates (Angstroms)
 Number     Number       Type             X           Y           Z
 ---------------------------------------------------------------------
      1          6           0       -2.428918    0.254331    0.686877
      2          6           0       -1.933397   -0.411026    1.971300
      3          6           0       -0.674979    0.251504    2.532755
      4          1           0       -1.629635    0.223848   -0.066226
      5          1           0       -2.630192    1.315995    0.886257
      6          1           0       -1.734434   -1.471436    1.769900
      7          1           0       -2.734018   -0.379127    2.721370
      8          1           0       -0.863828    1.305345    2.761570
      9          1           0        0.141436    0.206830    1.804695
     10          1           0       -0.338088   -0.239911    3.450838
     11          6           0       -3.686272   -0.396807    0.113460
     12          6           0       -4.181793    0.268550   -1.170964
     13          6           0       -5.440211   -0.393980   -1.732419
     14          1           0       -3.484998   -1.458471   -0.085920
     15          1           0       -4.485555   -0.366325    0.866562
     16          1           0       -3.381172    0.236651   -1.921033
     17          1           0       -4.380756    1.328959   -0.969564
     18          1           0       -6.256626   -0.349307   -1.004358
     19          1           0       -5.251362   -1.447822   -1.961233
     20          1           0       -5.777102    0.097435   -2.650501
     21          6           0        3.509559   -0.538091   -0.488925
     22          6           0        2.791186   -1.866169   -0.247811
     23          6           0        3.708514   -3.075890   -0.429134
     24          1           0        3.927804   -0.533903   -1.504799
     25          1           0        4.361762   -0.459775    0.200284
     26          1           0        1.939767   -1.941339   -0.936325
     27          1           0        2.374438   -1.867119    0.767539
     28          1           0        4.551389   -3.028125    0.267918
     29          1           0        4.114249   -3.102768   -1.445627
     30          1           0        3.174589   -4.014728   -0.252029
     31          6           0        2.605631    0.680568   -0.311410
     32          6           0        3.324004    2.008645   -0.552526
     33          6           0        2.406675    3.218366   -0.371202
     34          1           0        1.753426    0.602251   -1.000620
     35          1           0        2.187386    0.676380    0.704463
     36          1           0        3.740752    2.009595   -1.567876
     37          1           0        4.175423    2.083816    0.135988
     38          1           0        2.000942    3.245244    0.645291
     39          1           0        1.563801    3.170601   -1.068254
     40          1           0        2.940601    4.157205   -0.548308
 ---------------------------------------------------------------------

 SCF Done:  E(RHF) =  -470.733346156     A.U. after   11 cycles
 E2 =    -0.1583002910D+01 EUMP2 =    -0.47231634906636D+03

 The electronic state is 1-A.
 Alpha  occ. eigenvalues --  -11.21645 -11.21614 -11.21591 -11.21566 -11.21436
 Alpha  occ. eigenvalues --  -11.21377 -11.21376 -11.21316 -11.21103 -11.21064
 Alpha  occ. eigenvalues --  -11.21057 -11.21007  -1.08466  -1.08400  -1.03550
 Alpha  occ. eigenvalues --   -1.03503  -0.96006  -0.95949  -0.87023  -0.86966
 Alpha  occ. eigenvalues --   -0.79630  -0.79563  -0.78324  -0.78175  -0.65119
 Alpha  occ. eigenvalues --   -0.65014  -0.60950  -0.60901  -0.59373  -0.59316
 Alpha  occ. eigenvalues --   -0.57654  -0.57531  -0.55365  -0.55175  -0.52696
 Alpha  occ. eigenvalues --   -0.52651  -0.52486  -0.52329  -0.50016  -0.49841
 Alpha  occ. eigenvalues --   -0.48000  -0.47855  -0.46698  -0.46630  -0.45948
 Alpha  occ. eigenvalues --   -0.45746  -0.45695  -0.45413  -0.43809  -0.43761
 Alpha virt. eigenvalues --    0.21306   0.23207   0.23971   0.24255   0.25497
 Alpha virt. eigenvalues --    0.25791   0.27156   0.27890   0.28262   0.29335
 Alpha virt. eigenvalues --    0.31235   0.31534   0.31674   0.31850   0.32169

 Mulliken charges:
               1
     1  C   -0.298740
     2  C   -0.298859
     3  C   -0.484450
     4  H    0.150297
     5  H    0.149538
     6  H    0.151932
     7  H    0.151650
     8  H    0.154760
     9  H    0.163747
    10  H    0.159376
    11  C   -0.298338
    12  C   -0.299564
    13  C   -0.475684
    14  H    0.149458
    15  H    0.149608
    16  H    0.151612
    17  H    0.151985
    18  H    0.155206
    19  H    0.155127
    20  H    0.160166
    21  C   -0.297666
    22  C   -0.300932
    23  C   -0.475654
    24  H    0.149784
    25  H    0.149728
    26  H    0.151249
    27  H    0.153005
    28  H    0.155427
    29  H    0.155317
    30  H    0.160295
    31  C   -0.306065
    32  C   -0.298989
    33  C   -0.476085
    34  H    0.148933
    35  H    0.157405
    36  H    0.151926
    37  H    0.152019
    38  H    0.156001
    39  H    0.155282
    40  H    0.160194
 Sum of Mulliken charges =  -0.00000

 Dipole moment (field-independent basis, Debye):
    X=              0.0333    Y=              0.0077    Z=             -0.0046  Tot=              0.0345
 Quadrupole moment (field-independent basis, Debye-Ang):
   XX=            -85.4625   YY=            -85.4490   ZZ=            -83.8584
   XY=             -0.1834   XZ=             -0.4601   YZ=              0.1224

 Normal termination of Gaussian 16 at Thu May  6 16:32:43 2021.
