 Gaussian 16, Revision A.03,
 Gaussian 16:  EM64L-G16RevA.03 25-Dec-2016

 -------------
 #p 6-31g* mp2
 -------------

 ------------------------------------------------------
 Input file generated by CHIRIPA (05-May-2021 14:55:21)
 ------------------------------------------------------
 Symbolic Z-matrix:
 Charge =  0 Multiplicity = 1

                         Standard orientation:
 ---------------------------------------------------------------------
 Center     Atomic      Atomic             Coordinates (Angstroms)
 Number     Number       Type             X           Y           Z
 ---------------------------------------------------------------------
      1          6           0       -3.975752   -2.103860   -0.688014
      2          6           0       -4.912800   -1.067639   -0.619408
      3          6           0       -4.510116    0.234251   -0.307195
      4          6           0       -3.156294    0.465337   -0.068335
      5          6           0       -2.198725   -0.545928   -0.129124
      6          6           0       -2.624088   -1.840163   -0.443085
      7          1           0       -4.297375   -3.112226   -0.931227
      8          1           0       -5.963179   -1.269503   -0.809145
      9          1           0       -5.214402    1.055119   -0.247408
     10          1           0       -1.158601   -0.313862    0.065052
     11          1           0       -1.894148   -2.642950   -0.495666
     12          7           0       -2.717986    1.839537    0.263117
     13          8           0       -1.519403    2.017089    0.469300
     14          8           0       -3.581323    2.713063    0.310449
     15          6           0        3.753745   -0.840357    0.549993
     16          6           0        2.247705   -0.586298    0.622667
     17          6           0        1.503711   -1.664396    1.411319
     18          1           0        3.931789   -1.821912    0.089782
     19          1           0        4.158926   -0.895210    1.569903
     20          1           0        1.845718   -0.530561   -0.397097
     21          1           0        2.073231    0.394850    1.082583
     22          1           0        1.877087   -1.716519    2.439168
     23          1           0        1.648282   -2.647189    0.951082
     24          1           0        0.428643   -1.463054    1.450697
     25          6           0        4.511298    0.228895   -0.235211
     26          6           0        6.017337   -0.025164   -0.307885
     27          6           0        6.761332    1.052934   -1.096537
     28          1           0        4.106117    0.283749   -1.255120
     29          1           0        4.333253    1.210451    0.224999
     30          1           0        6.191812   -1.006312   -0.767802
     31          1           0        6.419325   -0.080900    0.711878
     32          1           0        6.616761    2.035727   -0.636299
     33          1           0        6.387955    1.105058   -2.124386
     34          1           0        7.836399    0.851593   -1.135916
 ---------------------------------------------------------------------

 SCF Done:  E(RHF) =  -669.535548119     A.U. after   15 cycles
 E2 =    -0.2091391349D+01 EUMP2 =    -0.67162693946759D+03

 The electronic state is 1-A.
 Alpha  occ. eigenvalues --  -20.60754 -20.60748 -15.85805 -11.31164 -11.27741
 Alpha  occ. eigenvalues --  -11.27704 -11.27482 -11.26760 -11.26740 -11.21746
 Alpha  occ. eigenvalues --  -11.21552 -11.21527 -11.21467 -11.21313 -11.20980
 Alpha  occ. eigenvalues --   -1.59828  -1.39381  -1.19340  -1.08737  -1.08479
 Alpha  occ. eigenvalues --   -1.04745  -1.03633  -0.96106  -0.95570  -0.87118
 Alpha  occ. eigenvalues --   -0.86140  -0.82403  -0.79679  -0.78260  -0.77452
 Alpha  occ. eigenvalues --   -0.72025  -0.71151  -0.70462  -0.65106  -0.64992
 Alpha  occ. eigenvalues --   -0.64754  -0.62165  -0.61016  -0.59457  -0.57698
 Alpha  occ. eigenvalues --   -0.55382  -0.55236  -0.53101  -0.52942  -0.52723
 Alpha  occ. eigenvalues --   -0.52453  -0.50021  -0.48783  -0.48780  -0.47999
 Alpha  occ. eigenvalues --   -0.46695  -0.45808  -0.45715  -0.44788  -0.43879
 Alpha  occ. eigenvalues --   -0.37324  -0.36341
 Alpha virt. eigenvalues --    0.05055   0.11286   0.16537   0.20072   0.22962
 Alpha virt. eigenvalues --    0.23836   0.26348   0.26712   0.27252   0.28039
 Alpha virt. eigenvalues --    0.29658   0.30301   0.31290   0.31539   0.32001

 Mulliken charges:
               1
     1  C   -0.170687
     2  C   -0.218718
     3  C   -0.170497
     4  C    0.159224
     5  C   -0.179497
     6  C   -0.220825
     7  H    0.225562
     8  H    0.223408
     9  H    0.275510
    10  H    0.285669
    11  H    0.224635
    12  N    0.487514
    13  O   -0.460466
    14  O   -0.460491
    15  C   -0.298711
    16  C   -0.302739
    17  C   -0.480576
    18  H    0.147512
    19  H    0.150677
    20  H    0.148414
    21  H    0.165037
    22  H    0.161122
    23  H    0.151883
    24  H    0.153297
    25  C   -0.298917
    26  C   -0.299804
    27  C   -0.475834
    28  H    0.149846
    29  H    0.153798
    30  H    0.150649
    31  H    0.152053
    32  H    0.156795
    33  H    0.155279
    34  H    0.159877
 Sum of Mulliken charges =  -0.00000

 Dipole moment (field-independent basis, Debye):
    X=             -1.4480    Y=             -4.7477    Z=             -1.1314  Tot=              5.0909
 Quadrupole moment (field-independent basis, Debye-Ang):
   XX=            -80.6808   YY=            -99.6837   ZZ=            -94.9261
   XY=             12.9017   XZ=              4.9471   YZ=              0.6005

 Normal termination of Gaussian 16 at Thu May  6 09:19:10 2021.
