 Gaussian 16, Revision A.03,
 Gaussian 16:  EM64L-G16RevA.03 25-Dec-2016

 -------------
 #p 6-31g* mp2
 -------------

 ------------------------------------------------------
 Input file generated by CHIRIPA (05-May-2021 14:55:19)
 ------------------------------------------------------
 Symbolic Z-matrix:
 Charge =  0 Multiplicity = 1

                         Standard orientation:
 ---------------------------------------------------------------------
 Center     Atomic      Atomic             Coordinates (Angstroms)
 Number     Number       Type             X           Y           Z
 ---------------------------------------------------------------------
      1          6           0        4.494145    0.514306    0.918229
      2          6           0        4.365190    0.295475   -0.457272
      3          6           0        3.207486   -0.290736   -0.977489
      4          6           0        2.193868   -0.647428   -0.089435
      5          6           0        2.292563   -0.442356    1.285881
      6          6           0        3.459244    0.145343    1.783890
      7          1           0        5.396964    0.970267    1.313720
      8          1           0        5.167290    0.581008   -1.131921
      9          1           0        3.081371   -0.471579   -2.038059
     10          1           0        1.475955   -0.737627    1.933480
     11          1           0        3.556637    0.314092    2.852573
     12          7           0        0.963506   -1.268811   -0.628410
     13          8           0        0.084889   -1.574076    0.175009
     14          8           0        0.901063   -1.438821   -1.844072
     15          6           0       -3.666288    0.285414   -0.234210
     16          6           0       -4.461539   -0.337670    0.913537
     17          6           0       -5.655909   -1.159277    0.427494
     18          1           0       -4.333427    0.922926   -0.830404
     19          1           0       -3.315688   -0.512335   -0.903593
     20          1           0       -4.809360    0.460903    1.581307
     21          1           0       -3.792384   -0.973623    1.507181
     22          1           0       -5.323279   -1.975717   -0.221647
     23          1           0       -6.346032   -0.533040   -0.147099
     24          1           0       -6.210281   -1.595527    1.264284
     25          6           0       -2.469127    1.109829    0.235761
     26          6           0       -1.673874    1.732914   -0.911987
     27          6           0       -0.479505    2.554520   -0.425943
     28          1           0       -2.819725    1.907577    0.905144
     29          1           0       -1.801986    0.472316    0.831955
     30          1           0       -2.343029    2.368866   -1.505630
     31          1           0       -1.326053    0.934339   -1.579756
     32          1           0        0.210619    1.928283    0.148651
     33          1           0       -0.812135    3.370960    0.223198
     34          1           0        0.074868    2.990769   -1.262733
 ---------------------------------------------------------------------

 SCF Done:  E(RHF) =  -669.536560279     A.U. after   15 cycles
 E2 =    -0.2093415814D+01 EUMP2 =    -0.67162997609295D+03

 The electronic state is 1-A.
 Alpha  occ. eigenvalues --  -20.61081 -20.61076 -15.86085 -11.31353 -11.27910
 Alpha  occ. eigenvalues --  -11.27893 -11.27625 -11.26901 -11.26889 -11.20698
 Alpha  occ. eigenvalues --  -11.20630 -11.20579 -11.20285 -11.20224 -11.20220
 Alpha  occ. eigenvalues --   -1.60126  -1.39684  -1.19514  -1.08928  -1.07420
 Alpha  occ. eigenvalues --   -1.04899  -1.02680  -0.95780  -0.95139  -0.86305
 Alpha  occ. eigenvalues --   -0.86166  -0.82616  -0.78728  -0.77686  -0.77212
 Alpha  occ. eigenvalues --   -0.72314  -0.71463  -0.70618  -0.65173  -0.64901
 Alpha  occ. eigenvalues --   -0.63990  -0.62248  -0.60066  -0.58522  -0.56757
 Alpha  occ. eigenvalues --   -0.55404  -0.54475  -0.53211  -0.52990  -0.51887
 Alpha  occ. eigenvalues --   -0.51578  -0.49133  -0.49084  -0.49011  -0.47059
 Alpha  occ. eigenvalues --   -0.45830  -0.45234  -0.44745  -0.44389  -0.42873
 Alpha  occ. eigenvalues --   -0.37461  -0.36488
 Alpha virt. eigenvalues --    0.04797   0.11107   0.16264   0.21223   0.23678
 Alpha virt. eigenvalues --    0.24888   0.26955   0.27468   0.28219   0.28484
 Alpha virt. eigenvalues --    0.28956   0.30929   0.31795   0.32325   0.32395

 Mulliken charges:
               1
     1  C   -0.170231
     2  C   -0.218191
     3  C   -0.170547
     4  C    0.160202
     5  C   -0.172315
     6  C   -0.217886
     7  H    0.226363
     8  H    0.224144
     9  H    0.276026
    10  H    0.275920
    11  H    0.224342
    12  N    0.489779
    13  O   -0.460131
    14  O   -0.458933
    15  C   -0.298813
    16  C   -0.299789
    17  C   -0.475603
    18  H    0.143879
    19  H    0.161635
    20  H    0.146482
    21  H    0.156164
    22  H    0.158070
    23  H    0.152311
    24  H    0.156632
    25  C   -0.301377
    26  C   -0.305729
    27  C   -0.477471
    28  H    0.140930
    29  H    0.162502
    30  H    0.148677
    31  H    0.164409
    32  H    0.148947
    33  H    0.152584
    34  H    0.157018
 Sum of Mulliken charges =  -0.00000

 Dipole moment (field-independent basis, Debye):
    X=              4.5850    Y=              1.9432    Z=              1.8351  Tot=              5.3072
 Quadrupole moment (field-independent basis, Debye-Ang):
   XX=            -76.5731   YY=            -98.6407   ZZ=            -90.8791
   XY=              1.6284   XZ=              1.9470   YZ=             -1.7716

 Normal termination of Gaussian 16 at Wed May  5 20:29:47 2021.
