 Gaussian 16, Revision A.03,
 Gaussian 16:  EM64L-G16RevA.03 25-Dec-2016

 -------------
 #p 6-31g* mp2
 -------------

 ------------------------------------------------------
 Input file generated by CHIRIPA (05-May-2021 14:55:25)
 ------------------------------------------------------
 Symbolic Z-matrix:
 Charge =  0 Multiplicity = 1

                         Standard orientation:
 ---------------------------------------------------------------------
 Center     Atomic      Atomic             Coordinates (Angstroms)
 Number     Number       Type             X           Y           Z
 ---------------------------------------------------------------------
      1          6           0        4.933153    0.932356    0.356369
      2          6           0        3.878983    1.702687   -0.145468
      3          6           0        2.632860    1.121662   -0.398714
      4          6           0        2.475235   -0.238559   -0.137480
      5          6           0        3.506151   -1.032577    0.362559
      6          6           0        4.743706   -0.430414    0.608336
      7          1           0        5.897843    1.391921    0.550195
      8          1           0        4.023231    2.761260   -0.342092
      9          1           0        1.799658    1.694627   -0.787178
     10          1           0        3.332024   -2.085418    0.548629
     11          1           0        5.560595   -1.031115    0.998073
     12          7           0        1.160555   -0.864853   -0.401627
     13          8           0        1.047297   -2.065232   -0.163091
     14          8           0        0.268261   -0.143504   -0.842199
     15          6           0       -3.133286    0.844490   -0.067576
     16          6           0       -3.938626    2.047161    0.425368
     17          6           0       -3.301016    3.382888    0.041862
     18          1           0       -2.116241    0.898602    0.344293
     19          1           0       -3.031598    0.903042   -1.160108
     20          1           0       -4.039947    1.985626    1.516498
     21          1           0       -4.953930    1.990077    0.012431
     22          1           0       -3.214538    3.470234   -1.046023
     23          1           0       -2.295361    3.465757    0.466590
     24          1           0       -3.893091    4.229086    0.404156
     25          6           0       -3.758003   -0.498024    0.308075
     26          6           0       -2.952663   -1.700695   -0.184870
     27          6           0       -3.590273   -3.036421    0.198637
     28          1           0       -3.859692   -0.556575    1.400607
     29          1           0       -4.775048   -0.552135   -0.103795
     30          1           0       -1.937359   -1.643612    0.228067
     31          1           0       -2.851342   -1.639160   -1.275999
     32          1           0       -4.595928   -3.119290   -0.226091
     33          1           0       -3.676752   -3.123767    1.286521
     34          1           0       -2.998199   -3.882620   -0.163656
 ---------------------------------------------------------------------

 SCF Done:  E(RHF) =  -669.536129657     A.U. after   15 cycles
 E2 =    -0.2092689241D+01 EUMP2 =    -0.67162881889863D+03

 The electronic state is 1-A.
 Alpha  occ. eigenvalues --  -20.61122 -20.61112 -15.86110 -11.31394 -11.27945
 Alpha  occ. eigenvalues --  -11.27941 -11.27674 -11.26939 -11.26929 -11.20580
 Alpha  occ. eigenvalues --  -11.20354 -11.19896 -11.19824 -11.19566 -11.19504
 Alpha  occ. eigenvalues --   -1.60159  -1.39716  -1.19553  -1.08968  -1.06980
 Alpha  occ. eigenvalues --   -1.04940  -1.02162  -0.95815  -0.94675  -0.86342
 Alpha  occ. eigenvalues --   -0.85712  -0.82653  -0.78230  -0.77706  -0.76677
 Alpha  occ. eigenvalues --   -0.72309  -0.71467  -0.70660  -0.65207  -0.64941
 Alpha  occ. eigenvalues --   -0.63636  -0.62285  -0.59585  -0.58077  -0.56229
 Alpha  occ. eigenvalues --   -0.55445  -0.54001  -0.53276  -0.53029  -0.51429
 Alpha  occ. eigenvalues --   -0.51097  -0.49200  -0.49089  -0.48665  -0.46518
 Alpha  occ. eigenvalues --   -0.45369  -0.45072  -0.44225  -0.43915  -0.42384
 Alpha  occ. eigenvalues --   -0.37527  -0.36538
 Alpha virt. eigenvalues --    0.04767   0.11118   0.16257   0.21239   0.24158
 Alpha virt. eigenvalues --    0.25555   0.27167   0.27860   0.28207   0.28982
 Alpha virt. eigenvalues --    0.29455   0.30976   0.32282   0.32700   0.32954

 Mulliken charges:
               1
     1  C   -0.170372
     2  C   -0.218597
     3  C   -0.171007
     4  C    0.159339
     5  C   -0.170615
     6  C   -0.218619
     7  H    0.226400
     8  H    0.224344
     9  H    0.276334
    10  H    0.276032
    11  H    0.224172
    12  N    0.488365
    13  O   -0.458731
    14  O   -0.457756
    15  C   -0.296371
    16  C   -0.298918
    17  C   -0.473374
    18  H    0.159943
    19  H    0.150103
    20  H    0.147762
    21  H    0.148523
    22  H    0.154013
    23  H    0.150760
    24  H    0.155738
    25  C   -0.299458
    26  C   -0.299352
    27  C   -0.475548
    28  H    0.142434
    29  H    0.142264
    30  H    0.173568
    31  H    0.151720
    32  H    0.147402
    33  H    0.148730
    34  H    0.160773
 Sum of Mulliken charges =  -0.00000

 Dipole moment (field-independent basis, Debye):
    X=              5.1598    Y=              2.1357    Z=              0.8236  Tot=              5.6447
 Quadrupole moment (field-independent basis, Debye-Ang):
   XX=            -73.3268   YY=            -94.0316   ZZ=            -94.7345
   XY=              2.3301   XZ=              3.3056   YZ=             -1.9288

 Normal termination of Gaussian 16 at Wed May  5 19:12:22 2021.
