 Gaussian 16, Revision A.03,
 Gaussian 16:  EM64L-G16RevA.03 25-Dec-2016

 -------------
 #p 6-31g* mp2
 -------------

 ------------------------------------------------------
 Input file generated by CHIRIPA (05-May-2021 14:55:24)
 ------------------------------------------------------
 Symbolic Z-matrix:
 Charge =  0 Multiplicity = 1

                         Standard orientation:
 ---------------------------------------------------------------------
 Center     Atomic      Atomic             Coordinates (Angstroms)
 Number     Number       Type             X           Y           Z
 ---------------------------------------------------------------------
      1          6           0        0.971299   -1.266610    0.534970
      2          6           0        1.417998   -0.276600    1.416368
      3          6           0        2.611249    0.408541    1.168820
      4          6           0        3.336022    0.076708    0.025194
      5          6           0        2.917318   -0.904695   -0.871927
      6          6           0        1.721063   -1.576951   -0.604356
      7          1           0        0.043186   -1.793839    0.735048
      8          1           0        0.837777   -0.033492    2.301968
      9          1           0        2.980321    1.179357    1.834437
     10          1           0        3.517381   -1.124980   -1.746466
     11          1           0        1.376589   -2.345346   -1.290615
     12          7           0        4.600854    0.795215   -0.247473
     13          8           0        5.221084    0.484247   -1.261993
     14          8           0        4.948050    1.655744    0.558494
     15          6           0       -4.471173    0.599773   -0.346625
     16          6           0       -4.074965    2.003072    0.113543
     17          6           0       -5.020538    3.085323   -0.408396
     18          1           0       -4.491048    0.572854   -1.444726
     19          1           0       -5.495255    0.386619   -0.010151
     20          1           0       -3.051430    2.212982   -0.222509
     21          1           0       -4.055844    2.026600    1.210674
     22          1           0       -6.042976    2.903421   -0.061792
     23          1           0       -5.032855    3.090862   -1.503118
     24          1           0       -4.718760    4.080591   -0.067469
     25          6           0       -3.535387   -0.492992    0.167087
     26          6           0       -3.931595   -1.896292   -0.293081
     27          6           0       -2.986023   -2.978542    0.228856
     28          1           0       -2.511305   -0.279838   -0.169388
     29          1           0       -3.515512   -0.466074    1.265188
     30          1           0       -3.950716   -1.919819   -1.390213
     31          1           0       -4.955129   -2.106202    0.042970
     32          1           0       -2.973705   -2.984081    1.323580
     33          1           0       -1.963584   -2.796640   -0.117748
     34          1           0       -3.287801   -3.973811   -0.112070
 ---------------------------------------------------------------------

 SCF Done:  E(RHF) =  -669.535652924     A.U. after   15 cycles
 E2 =    -0.2091255350D+01 EUMP2 =    -0.67162690827419D+03

 The electronic state is 1-A.
 Alpha  occ. eigenvalues --  -20.60737 -20.60732 -15.85791 -11.31151 -11.27721
 Alpha  occ. eigenvalues --  -11.27714 -11.27410 -11.26731 -11.26716 -11.22551
 Alpha  occ. eigenvalues --  -11.22331 -11.22276 -11.22156 -11.22036 -11.21499
 Alpha  occ. eigenvalues --   -1.59813  -1.39367  -1.19320  -1.09220  -1.08712
 Alpha  occ. eigenvalues --   -1.04723  -1.04322  -0.96792  -0.95549  -0.87810
 Alpha  occ. eigenvalues --   -0.86118  -0.82386  -0.80399  -0.79008  -0.77434
 Alpha  occ. eigenvalues --   -0.72008  -0.71137  -0.70435  -0.65843  -0.64970
 Alpha  occ. eigenvalues --   -0.64728  -0.62073  -0.61716  -0.60175  -0.58398
 Alpha  occ. eigenvalues --   -0.56132  -0.55203  -0.53466  -0.53199  -0.53051
 Alpha  occ. eigenvalues --   -0.52812  -0.50737  -0.48782  -0.48764  -0.48684
 Alpha  occ. eigenvalues --   -0.47417  -0.46549  -0.46445  -0.44774  -0.44558
 Alpha  occ. eigenvalues --   -0.37288  -0.36331
 Alpha virt. eigenvalues --    0.05080   0.11319   0.16494   0.19708   0.22462
 Alpha virt. eigenvalues --    0.23783   0.25498   0.26219   0.26729   0.27413
 Alpha virt. eigenvalues --    0.29184   0.30554   0.31024   0.31098   0.32134

 Mulliken charges:
               1
     1  C   -0.177388
     2  C   -0.220021
     3  C   -0.170856
     4  C    0.158294
     5  C   -0.170967
     6  C   -0.221112
     7  H    0.236293
     8  H    0.224208
     9  H    0.275401
    10  H    0.275425
    11  H    0.222784
    12  N    0.488039
    13  O   -0.460586
    14  O   -0.460507
    15  C   -0.298533
    16  C   -0.300602
    17  C   -0.476166
    18  H    0.151664
    19  H    0.151345
    20  H    0.153270
    21  H    0.151156
    22  H    0.155839
    23  H    0.156498
    24  H    0.162208
    25  C   -0.301209
    26  C   -0.299568
    27  C   -0.479984
    28  H    0.148091
    29  H    0.147922
    30  H    0.154841
    31  H    0.156177
    32  H    0.155902
    33  H    0.145760
    34  H    0.166380
 Sum of Mulliken charges =  -0.00000

 Dipole moment (field-independent basis, Debye):
    X=             -4.6853    Y=             -2.5007    Z=              0.9325  Tot=              5.3921
 Quadrupole moment (field-independent basis, Debye-Ang):
   XX=           -124.3536   YY=            -94.8109   ZZ=            -90.8463
   XY=             -8.5519   XZ=              1.9808   YZ=              2.8079

 Normal termination of Gaussian 16 at Wed May  5 17:37:07 2021.
