 Gaussian 16, Revision A.03,
 Gaussian 16:  EM64L-G16RevA.03 25-Dec-2016

 -------------
 #p 6-31g* mp2
 -------------

 ------------------------------------------------------
 Input file generated by CHIRIPA (05-May-2021 14:57:23)
 ------------------------------------------------------
 Symbolic Z-matrix:
 Charge =  0 Multiplicity = 1

                         Standard orientation:
 ---------------------------------------------------------------------
 Center     Atomic      Atomic             Coordinates (Angstroms)
 Number     Number       Type             X           Y           Z
 ---------------------------------------------------------------------
      1          6           0        2.437136    2.251540    0.705274
      2          6           0        3.083762    1.382063    1.589811
      3          6           0        3.442089    0.093180    1.183694
      4          6           0        3.137148   -0.295072   -0.119978
      5          6           0        2.493713    0.548106   -1.024595
      6          6           0        2.144691    1.832525   -0.596811
      7          1           0        2.162394    3.251041    1.029171
      8          1           0        3.312133    1.704772    2.601616
      9          1           0        3.943402   -0.600326    1.847887
     10          1           0        2.279285    0.197934   -2.027001
     11          1           0        1.642589    2.505636   -1.285912
     12          7           0        3.511567   -1.657191   -0.561385
     13          8           0        3.231749   -1.975198   -1.715166
     14          8           0        4.077766   -2.381023    0.254779
     15          6           0       -1.495891    1.990408   -0.383119
     16          6           0       -1.153655    0.995486    0.538579
     17          6           0       -2.021126   -0.072844    0.784978
     18          6           0       -3.228144   -0.115024    0.088834
     19          6           0       -3.597521    0.860890   -0.835526
     20          6           0       -2.714583    1.920060   -1.066025
     21          1           0       -0.816011    2.816755   -0.568352
     22          1           0       -0.207869    1.047539    1.070389
     23          1           0       -1.781237   -0.856625    1.493186
     24          1           0       -4.547339    0.781801   -1.350315
     25          1           0       -2.982994    2.691309   -1.782387
     26          7           0       -4.154684   -1.241168    0.341269
     27          8           0       -5.212149   -1.255365   -0.284992
     28          8           0       -3.805897   -2.088320    1.160609
 ---------------------------------------------------------------------

 SCF Done:  E(RHF) =  -868.335522463     A.U. after   16 cycles
 E2 =    -0.2603184459D+01 EUMP2 =    -0.87093870692161D+03

 The electronic state is 1-A.
 Alpha  occ. eigenvalues --  -20.61454 -20.61448 -20.60878 -20.60869 -15.86517
 Alpha  occ. eigenvalues --  -15.85929 -11.32181 -11.31402 -11.28758 -11.28755
 Alpha  occ. eigenvalues --  -11.28608 -11.27964 -11.27906 -11.27899 -11.27861
 Alpha  occ. eigenvalues --  -11.27818 -11.27082 -11.26903  -1.60522  -1.59948
 Alpha  occ. eigenvalues --   -1.40067  -1.39498  -1.20413  -1.19576  -1.09774
 Alpha  occ. eigenvalues --   -1.08980  -1.05832  -1.04975  -0.96528  -0.95804
 Alpha  occ. eigenvalues --   -0.87231  -0.86382  -0.83339  -0.82616  -0.78324
 Alpha  occ. eigenvalues --   -0.77626  -0.72729  -0.72149  -0.71851  -0.71497
 Alpha  occ. eigenvalues --   -0.71270  -0.70798  -0.66040  -0.65836  -0.65230
 Alpha  occ. eigenvalues --   -0.65018  -0.63142  -0.62345  -0.56352  -0.55608
 Alpha  occ. eigenvalues --   -0.54327  -0.53881  -0.53295  -0.52879  -0.49510
 Alpha  occ. eigenvalues --   -0.49463  -0.48912  -0.48896  -0.45404  -0.44880
 Alpha  occ. eigenvalues --   -0.38456  -0.37923  -0.37203  -0.36447
 Alpha virt. eigenvalues --    0.04165   0.04869   0.10059   0.11098   0.15557
 Alpha virt. eigenvalues --    0.16316   0.19097   0.21963   0.25151   0.27011
 Alpha virt. eigenvalues --    0.27382   0.29099   0.29912   0.30814   0.32454

 Mulliken charges:
               1
     1  C   -0.184309
     2  C   -0.219515
     3  C   -0.171365
     4  C    0.158944
     5  C   -0.166850
     6  C   -0.220242
     7  H    0.226645
     8  H    0.228011
     9  H    0.280070
    10  H    0.280311
    11  H    0.221187
    12  N    0.488008
    13  O   -0.456386
    14  O   -0.457029
    15  C   -0.175338
    16  C   -0.219216
    17  C   -0.172672
    18  C    0.160152
    19  C   -0.171395
    20  C   -0.218092
    21  H    0.212445
    22  H    0.231122
    23  H    0.277295
    24  H    0.276368
    25  H    0.222283
    26  N    0.487949
    27  O   -0.459870
    28  O   -0.458509
 Sum of Mulliken charges =  -0.00000

 Dipole moment (field-independent basis, Debye):
    X=              2.1901    Y=              8.4677    Z=              0.6696  Tot=              8.7720
 Quadrupole moment (field-independent basis, Debye-Ang):
   XX=           -131.4339   YY=           -109.2841   ZZ=            -99.4684
   XY=              0.3764   XZ=             12.7403   YZ=             -2.9263

 Normal termination of Gaussian 16 at Fri May  7 11:01:33 2021.
