 Gaussian 16, Revision A.03,
 Gaussian 16:  EM64L-G16RevA.03 25-Dec-2016

 -------------
 #p 6-31g* mp2
 -------------

 ------------------------------------------------------
 Input file generated by CHIRIPA (05-May-2021 14:55:24)
 ------------------------------------------------------
 Symbolic Z-matrix:
 Charge =  0 Multiplicity = 1

                         Standard orientation:
 ---------------------------------------------------------------------
 Center     Atomic      Atomic             Coordinates (Angstroms)
 Number     Number       Type             X           Y           Z
 ---------------------------------------------------------------------
      1          6           0        3.373513   -2.230019   -0.553739
      2          6           0        4.423219   -1.450549   -0.056683
      3          6           0        4.252347   -0.078562    0.150689
      4          6           0        3.012937    0.483671   -0.151046
      5          6           0        1.947885   -0.266317   -0.647505
      6          6           0        2.141368   -1.636461   -0.847046
      7          1           0        3.515033   -3.295095   -0.711789
      8          1           0        5.381210   -1.908818    0.171983
      9          1           0        5.048051    0.548363    0.534407
     10          1           0        1.004406    0.218910   -0.866187
     11          1           0        1.324376   -2.239346   -1.233180
     12          7           0        2.820073    1.935157    0.064345
     13          8           0        1.718447    2.406507   -0.209305
     14          8           0        3.774186    2.573997    0.502739
     15          6           0       -4.504839    0.131657    0.367760
     16          6           0       -5.496447    0.155852   -0.795903
     17          6           0       -6.706633    1.049541   -0.522839
     18          1           0       -5.020920   -0.214281    1.273813
     19          1           0       -4.166059    1.156584    0.573056
     20          1           0       -5.832201   -0.868987   -0.999843
     21          1           0       -4.977898    0.501590   -1.699335
     22          1           0       -6.390080    2.081639   -0.340708
     23          1           0       -7.249237    0.703275    0.362758
     24          1           0       -7.402520    1.052172   -1.367585
     25          6           0       -3.289652   -0.757446    0.109794
     26          6           0       -2.298043   -0.781640    1.273457
     27          6           0       -1.087858   -1.675331    1.000394
     28          1           0       -3.628431   -1.782374   -0.095501
     29          1           0       -2.773571   -0.411508   -0.796259
     30          1           0       -2.816592   -1.127378    2.176889
     31          1           0       -1.962289    0.243198    1.477398
     32          1           0       -0.545255   -1.329063    0.114797
     33          1           0       -1.404410   -2.707427    0.818263
     34          1           0       -0.391971   -1.677961    1.845138
 ---------------------------------------------------------------------

 SCF Done:  E(RHF) =  -669.533895581     A.U. after   15 cycles
 E2 =    -0.2092555196D+01 EUMP2 =    -0.67162645077744D+03

 The electronic state is 1-A.
 Alpha  occ. eigenvalues --  -20.60768 -20.60762 -15.85820 -11.31163 -11.27723
 Alpha  occ. eigenvalues --  -11.27720 -11.27457 -11.26740 -11.26706 -11.21827
 Alpha  occ. eigenvalues --  -11.21654 -11.21617 -11.21566 -11.21443 -11.21064
 Alpha  occ. eigenvalues --   -1.59842  -1.39397  -1.19337  -1.08732  -1.08595
 Alpha  occ. eigenvalues --   -1.04758  -1.03716  -0.96202  -0.95571  -0.87228
 Alpha  occ. eigenvalues --   -0.86135  -0.82423  -0.79796  -0.78399  -0.77458
 Alpha  occ. eigenvalues --   -0.72041  -0.71165  -0.70460  -0.65251  -0.64984
 Alpha  occ. eigenvalues --   -0.64747  -0.62222  -0.61045  -0.59552  -0.57784
 Alpha  occ. eigenvalues --   -0.55554  -0.55200  -0.53198  -0.52862  -0.52784
 Alpha  occ. eigenvalues --   -0.52549  -0.50126  -0.48795  -0.48794  -0.48102
 Alpha  occ. eigenvalues --   -0.46806  -0.45949  -0.45843  -0.44806  -0.43960
 Alpha  occ. eigenvalues --   -0.37316  -0.36260
 Alpha virt. eigenvalues --    0.05063   0.11280   0.16496   0.20474   0.22773
 Alpha virt. eigenvalues --    0.24042   0.25940   0.26737   0.27503   0.28173
 Alpha virt. eigenvalues --    0.29125   0.30522   0.31371   0.31543   0.32260

 Mulliken charges:
               1
     1  C   -0.172115
     2  C   -0.218634
     3  C   -0.171622
     4  C    0.156803
     5  C   -0.169237
     6  C   -0.214870
     7  H    0.225584
     8  H    0.223266
     9  H    0.275360
    10  H    0.275020
    11  H    0.224987
    12  N    0.488384
    13  O   -0.461243
    14  O   -0.460329
    15  C   -0.299093
    16  C   -0.299868
    17  C   -0.476026
    18  H    0.149973
    19  H    0.153784
    20  H    0.150682
    21  H    0.152410
    22  H    0.157147
    23  H    0.155076
    24  H    0.160312
    25  C   -0.297956
    26  C   -0.302064
    27  C   -0.475408
    28  H    0.147945
    29  H    0.146718
    30  H    0.153517
    31  H    0.159639
    32  H    0.144390
    33  H    0.152528
    34  H    0.164943
 Sum of Mulliken charges =  -0.00000

 Dipole moment (field-independent basis, Debye):
    X=              0.6245    Y=             -5.0723    Z=             -0.6827  Tot=              5.1560
 Quadrupole moment (field-independent basis, Debye-Ang):
   XX=            -86.6741   YY=           -100.1410   ZZ=            -94.5492
   XY=            -14.1943   XZ=             -0.9144   YZ=              0.2180

 Normal termination of Gaussian 16 at Wed May  5 22:23:59 2021.
