 Gaussian 16, Revision A.03,
 Gaussian 16:  EM64L-G16RevA.03 25-Dec-2016

 -------------
 #p 6-31g* mp2
 -------------

 ------------------------------------------------------
 Input file generated by CHIRIPA (05-May-2021 14:57:27)
 ------------------------------------------------------
 Symbolic Z-matrix:
 Charge =  0 Multiplicity = 1

                         Standard orientation:
 ---------------------------------------------------------------------
 Center     Atomic      Atomic             Coordinates (Angstroms)
 Number     Number       Type             X           Y           Z
 ---------------------------------------------------------------------
      1          6           0       -2.333254    2.525078    0.030559
      2          6           0       -3.659284    2.111884   -0.135077
      3          6           0       -3.979001    0.751555   -0.177922
      4          6           0       -2.943075   -0.172641   -0.051400
      5          6           0       -1.612266    0.207661    0.114754
      6          6           0       -1.315771    1.573326    0.154727
      7          1           0       -2.093909    3.583887    0.062727
      8          1           0       -4.451526    2.848802   -0.231768
      9          1           0       -4.997052    0.403991   -0.305159
     10          1           0       -0.844138   -0.550381    0.208401
     11          1           0       -0.285066    1.891317    0.283467
     12          7           0       -3.269254   -1.615585   -0.095238
     13          8           0       -2.338350   -2.410009    0.018540
     14          8           0       -4.449640   -1.924818   -0.242547
     15          6           0        2.830215    2.456647   -0.009250
     16          6           0        3.319546    1.744463   -1.109191
     17          6           0        3.356980    0.347036   -1.090636
     18          6           0        2.895030   -0.308974    0.049340
     19          6           0        2.401740    0.372350    1.160984
     20          6           0        2.373678    1.769528    1.120335
     21          1           0        2.804775    3.542105   -0.032245
     22          1           0        3.674755    2.275445   -1.987787
     23          1           0        3.730723   -0.229234   -1.928280
     24          1           0        2.054561   -0.184816    2.022641
     25          1           0        1.993124    2.320007    1.976020
     26          7           0        2.929700   -1.788236    0.080678
     27          8           0        2.516888   -2.342662    1.096963
     28          8           0        3.369028   -2.365243   -0.911637
 ---------------------------------------------------------------------

 SCF Done:  E(RHF) =  -868.336229907     A.U. after   16 cycles
 E2 =    -0.2602518418D+01 EUMP2 =    -0.87093874832425D+03

 The electronic state is 1-A.
 Alpha  occ. eigenvalues --  -20.61214 -20.61204 -20.60568 -20.60536 -15.86277
 Alpha  occ. eigenvalues --  -15.85609 -11.32026 -11.31130 -11.28645 -11.28560
 Alpha  occ. eigenvalues --  -11.28434 -11.27737 -11.27716 -11.27671 -11.27643
 Alpha  occ. eigenvalues --  -11.27517 -11.26788 -11.26643  -1.60278  -1.59631
 Alpha  occ. eigenvalues --   -1.39821  -1.39178  -1.20243  -1.19312  -1.09563
 Alpha  occ. eigenvalues --   -1.08693  -1.05683  -1.04724  -0.96319  -0.95501
 Alpha  occ. eigenvalues --   -0.87052  -0.86126  -0.83133  -0.82319  -0.78116
 Alpha  occ. eigenvalues --   -0.77338  -0.72476  -0.71821  -0.71617  -0.71293
 Alpha  occ. eigenvalues --   -0.70961  -0.70452  -0.65858  -0.65654  -0.64960
 Alpha  occ. eigenvalues --   -0.64751  -0.62980  -0.62103  -0.56142  -0.55313
 Alpha  occ. eigenvalues --   -0.54045  -0.53728  -0.53069  -0.52704  -0.49266
 Alpha  occ. eigenvalues --   -0.49215  -0.48599  -0.48569  -0.45135  -0.44549
 Alpha  occ. eigenvalues --   -0.38239  -0.37351  -0.37271  -0.36328
 Alpha virt. eigenvalues --    0.04391   0.05191   0.10188   0.11303   0.15785
 Alpha virt. eigenvalues --    0.16663   0.20385   0.21645   0.26252   0.27282
 Alpha virt. eigenvalues --    0.27759   0.28209   0.30057   0.31208   0.31674

 Mulliken charges:
               1
     1  C   -0.174247
     2  C   -0.218185
     3  C   -0.171470
     4  C    0.159536
     5  C   -0.177293
     6  C   -0.226397
     7  H    0.221006
     8  H    0.222320
     9  H    0.275756
    10  H    0.277497
    11  H    0.230369
    12  N    0.487404
    13  O   -0.454865
    14  O   -0.461678
    15  C   -0.173863
    16  C   -0.216784
    17  C   -0.168857
    18  C    0.158743
    19  C   -0.175501
    20  C   -0.233027
    21  H    0.227069
    22  H    0.227258
    23  H    0.280308
    24  H    0.281033
    25  H    0.226585
    26  N    0.487900
    27  O   -0.454874
    28  O   -0.455744
 Sum of Mulliken charges =  -0.00000

 Dipole moment (field-independent basis, Debye):
    X=              1.3766    Y=             10.0085    Z=             -0.0263  Tot=             10.1028
 Quadrupole moment (field-independent basis, Debye-Ang):
   XX=           -106.8107   YY=           -110.8034   ZZ=           -101.2963
   XY=             -1.2017   XZ=             -2.4619   YZ=             -0.2251

 Normal termination of Gaussian 16 at Fri May  7 05:07:28 2021.
