 Gaussian 16, Revision A.03,
 Gaussian 16:  EM64L-G16RevA.03 25-Dec-2016

 -------------
 #p 6-31g* mp2
 -------------

 ------------------------------------------------------
 Input file generated by CHIRIPA (05-May-2021 14:51:12)
 ------------------------------------------------------
 Symbolic Z-matrix:
 Charge =  0 Multiplicity = 1

                         Standard orientation:
 ---------------------------------------------------------------------
 Center     Atomic      Atomic             Coordinates (Angstroms)
 Number     Number       Type             X           Y           Z
 ---------------------------------------------------------------------
      1          6           0       -2.237833   -0.878263    0.162984
      2          6           0       -1.768949   -1.408604    1.518296
      3          6           0       -1.704840   -2.935512    1.565560
      4          1           0       -3.228451   -1.295474   -0.064078
      5          1           0       -1.558440   -1.242071   -0.620254
      6          1           0       -2.448228   -1.042768    2.298912
      7          1           0       -0.779416   -0.989931    1.742246
      8          1           0       -1.012262   -3.315653    0.807648
      9          1           0       -2.690555   -3.368791    1.367478
     10          1           0       -1.367351   -3.293087    2.543365
     11          6           0       -2.307077    0.646527    0.100128
     12          6           0       -2.775961    1.176868   -1.255185
     13          6           0       -2.840071    2.703776   -1.302448
     14          1           0       -2.986471    1.010335    0.883366
     15          1           0       -1.316460    1.063737    0.327189
     16          1           0       -3.765494    0.758195   -1.479134
     17          1           0       -2.096683    0.811032   -2.035801
     18          1           0       -1.854356    3.137054   -1.104366
     19          1           0       -3.532649    3.083917   -0.544536
     20          1           0       -3.177559    3.061351   -2.280253
     21          6           0        2.580701   -0.422024   -0.577750
     22          6           0        1.656074   -1.616605   -0.814451
     23          6           0        2.286816   -2.684236   -1.708946
     24          1           0        2.851196    0.021621   -1.545715
     25          1           0        3.516615   -0.775969   -0.123679
     26          1           0        0.721629   -1.260334   -1.266668
     27          1           0        1.387595   -2.057341    0.154201
     28          1           0        3.208760   -3.067545   -1.259843
     29          1           0        2.539011   -2.266009   -2.688786
     30          1           0        1.608726   -3.529044   -1.865001
     31          6           0        1.964210    0.653760    0.314639
     32          6           0        2.888836    1.848341    0.551339
     33          6           0        2.258095    2.915972    1.445834
     34          1           0        1.028296    1.007706   -0.139432
     35          1           0        1.693715    0.210114    1.282603
     36          1           0        3.157316    2.289077   -0.417313
     37          1           0        3.823281    1.492071    1.003556
     38          1           0        2.005899    2.497746    2.425674
     39          1           0        1.336150    3.299280    0.996731
     40          1           0        2.936185    3.760780    1.601889
 ---------------------------------------------------------------------

 SCF Done:  E(RHF) =  -470.732298388     A.U. after   11 cycles
 E2 =    -0.1585850719D+01 EUMP2 =    -0.47231814910784D+03

 The electronic state is 1-A.
 Alpha  occ. eigenvalues --  -11.21688 -11.21685 -11.21600 -11.21509 -11.21504
 Alpha  occ. eigenvalues --  -11.21449 -11.21308 -11.21244 -11.21152 -11.21139
 Alpha  occ. eigenvalues --  -11.21091 -11.21011  -1.08568  -1.08345  -1.03634
 Alpha  occ. eigenvalues --   -1.03480  -0.96072  -0.95938  -0.87090  -0.86953
 Alpha  occ. eigenvalues --   -0.79715  -0.79551  -0.78411  -0.78153  -0.65290
 Alpha  occ. eigenvalues --   -0.64915  -0.61030  -0.60922  -0.59423  -0.59302
 Alpha  occ. eigenvalues --   -0.57693  -0.57550  -0.55363  -0.55240  -0.52756
 Alpha  occ. eigenvalues --   -0.52645  -0.52499  -0.52372  -0.50141  -0.49780
 Alpha  occ. eigenvalues --   -0.48131  -0.47826  -0.46794  -0.46692  -0.46318
 Alpha  occ. eigenvalues --   -0.45756  -0.45429  -0.45182  -0.43874  -0.43728
 Alpha virt. eigenvalues --    0.19759   0.21854   0.23433   0.23890   0.25495
 Alpha virt. eigenvalues --    0.26161   0.26435   0.27387   0.28616   0.30584
 Alpha virt. eigenvalues --    0.30733   0.31344   0.31578   0.32036   0.32170

 Mulliken charges:
               1
     1  C   -0.302519
     2  C   -0.303124
     3  C   -0.478253
     4  H    0.149155
     5  H    0.154810
     6  H    0.151479
     7  H    0.156106
     8  H    0.157436
     9  H    0.154978
    10  H    0.159371
    11  C   -0.305398
    12  C   -0.299704
    13  C   -0.475367
    14  H    0.149561
    15  H    0.156241
    16  H    0.152303
    17  H    0.150368
    18  H    0.153830
    19  H    0.155669
    20  H    0.160258
    21  C   -0.297434
    22  C   -0.308366
    23  C   -0.475682
    24  H    0.149784
    25  H    0.149990
    26  H    0.156336
    27  H    0.155993
    28  H    0.155676
    29  H    0.155439
    30  H    0.160429
    31  C   -0.306654
    32  C   -0.299265
    33  C   -0.476240
    34  H    0.155299
    35  H    0.151530
    36  H    0.152157
    37  H    0.152349
    38  H    0.155610
    39  H    0.154989
    40  H    0.160863
 Sum of Mulliken charges =  -0.00000

 Dipole moment (field-independent basis, Debye):
    X=              0.0672    Y=              0.0033    Z=             -0.0011  Tot=              0.0673
 Quadrupole moment (field-independent basis, Debye-Ang):
   XX=            -83.8126   YY=            -86.5308   ZZ=            -84.4584
   XY=              0.2064   XZ=              0.2243   YZ=             -0.6579

 Normal termination of Gaussian 16 at Thu May  6 07:04:37 2021.
