 Gaussian 16, Revision A.03,
 Gaussian 16:  EM64L-G16RevA.03 25-Dec-2016

 -------------
 #p 6-31g* mp2
 -------------

 ------------------------------------------------------
 Input file generated by CHIRIPA (05-May-2021 14:53:12)
 ------------------------------------------------------
 Symbolic Z-matrix:
 Charge =  0 Multiplicity = 1

                         Standard orientation:
 ---------------------------------------------------------------------
 Center     Atomic      Atomic             Coordinates (Angstroms)
 Number     Number       Type             X           Y           Z
 ---------------------------------------------------------------------
      1          6           0        2.680799    0.989516   -0.057751
      2          6           0        1.634567    1.921194   -0.670417
      3          6           0        1.951197    3.399043   -0.439113
      4          1           0        2.751213    1.186453    1.020768
      5          1           0        3.665920    1.225404   -0.483531
      6          1           0        0.651490    1.682694   -0.244632
      7          1           0        1.566499    1.721884   -1.747570
      8          1           0        2.919285    3.659094   -0.879317
      9          1           0        1.999077    3.619682    0.632160
     10          1           0        1.190518    4.047213   -0.885324
     11          6           0        2.378131   -0.491175   -0.280628
     12          6           0        3.424363   -1.422852    0.332038
     13          6           0        3.107734   -2.900701    0.100735
     14          1           0        1.393010   -0.727062    0.145152
     15          1           0        2.307718   -0.688111   -1.359147
     16          1           0        3.492432   -1.223542    1.409191
     17          1           0        4.407441   -1.184353   -0.093747
     18          1           0        3.059853   -3.121340   -0.970539
     19          1           0        2.139645   -3.160752    0.540939
     20          1           0        3.868413   -3.548871    0.546945
     21          6           0       -1.912673    2.265672    0.687732
     22          6           0       -2.409658    1.839776   -0.548447
     23          6           0       -2.449577    0.479084   -0.866994
     24          6           0       -1.982281   -0.432521    0.078470
     25          6           0       -1.481326   -0.039398    1.318547
     26          6           0       -1.450908    1.326382    1.615648
     27          1           0       -1.885354    3.324666    0.926856
     28          1           0       -2.768939    2.566999   -1.271018
     29          1           0       -2.829210    0.121833   -1.816556
     30          1           0       -1.130220   -0.787948    2.018414
     31          1           0       -1.064408    1.654252    2.576461
     32          7           0       -2.019512   -1.875718   -0.247408
     33          8           0       -1.601878   -2.658903    0.602790
     34          8           0       -2.465623   -2.196383   -1.346861
 ---------------------------------------------------------------------

 SCF Done:  E(RHF) =  -669.534421606     A.U. after   15 cycles
 E2 =    -0.2095668699D+01 EUMP2 =    -0.67163009030546D+03

 The electronic state is 1-A.
 Alpha  occ. eigenvalues --  -20.60914 -20.60908 -15.85959 -11.31368 -11.27930
 Alpha  occ. eigenvalues --  -11.27921 -11.27626 -11.26921 -11.26909 -11.21518
 Alpha  occ. eigenvalues --  -11.21422 -11.21386 -11.21363 -11.21210 -11.20562
 Alpha  occ. eigenvalues --   -1.59978  -1.39532  -1.19549  -1.08929  -1.08350
 Alpha  occ. eigenvalues --   -1.04939  -1.03439  -0.95915  -0.95739  -0.86916
 Alpha  occ. eigenvalues --   -0.86327  -0.82572  -0.79514  -0.78162  -0.77620
 Alpha  occ. eigenvalues --   -0.72175  -0.71296  -0.70622  -0.65181  -0.65036
 Alpha  occ. eigenvalues --   -0.64919  -0.62275  -0.60888  -0.59332  -0.57511
 Alpha  occ. eigenvalues --   -0.55423  -0.55198  -0.53430  -0.53014  -0.52571
 Alpha  occ. eigenvalues --   -0.52312  -0.49829  -0.48937  -0.48931  -0.47786
 Alpha  occ. eigenvalues --   -0.46506  -0.45682  -0.45551  -0.44881  -0.43697
 Alpha  occ. eigenvalues --   -0.37426  -0.36525
 Alpha virt. eigenvalues --    0.04888   0.11000   0.16356   0.21006   0.23073
 Alpha virt. eigenvalues --    0.24236   0.26420   0.27262   0.27452   0.27769
 Alpha virt. eigenvalues --    0.28665   0.30662   0.31448   0.31666   0.32126

 Mulliken charges:
               1
     1  C   -0.296191
     2  C   -0.310303
     3  C   -0.474655
     4  H    0.144245
     5  H    0.149201
     6  H    0.166578
     7  H    0.150543
     8  H    0.157446
     9  H    0.149865
    10  H    0.153342
    11  C   -0.301234
    12  C   -0.299163
    13  C   -0.478547
    14  H    0.149346
    15  H    0.151347
    16  H    0.148406
    17  H    0.150543
    18  H    0.156311
    19  H    0.165401
    20  H    0.158414
    21  C   -0.172822
    22  C   -0.215507
    23  C   -0.170274
    24  C    0.162002
    25  C   -0.171949
    26  C   -0.220136
    27  H    0.227390
    28  H    0.224573
    29  H    0.276494
    30  H    0.276025
    31  H    0.224573
    32  N    0.488704
    33  O   -0.460877
    34  O   -0.459091
 Sum of Mulliken charges =  -0.00000

 Dipole moment (field-independent basis, Debye):
    X=             -0.0897    Y=              4.9559    Z=              1.1230  Tot=              5.0824
 Quadrupole moment (field-independent basis, Debye-Ang):
   XX=            -95.1922   YY=           -100.9494   ZZ=            -89.9640
   XY=            -11.1731   XZ=             -0.7448   YZ=             -1.2065

 Normal termination of Gaussian 16 at Wed May  5 20:10:06 2021.
