 Gaussian 16, Revision A.03,
 Gaussian 16:  EM64L-G16RevA.03 25-Dec-2016

 -------------
 #p 6-31g* mp2
 -------------

 ------------------------------------------------------
 Input file generated by CHIRIPA (05-May-2021 14:55:20)
 ------------------------------------------------------
 Symbolic Z-matrix:
 Charge =  0 Multiplicity = 1

                         Standard orientation:
 ---------------------------------------------------------------------
 Center     Atomic      Atomic             Coordinates (Angstroms)
 Number     Number       Type             X           Y           Z
 ---------------------------------------------------------------------
      1          6           0       -1.621704    1.286320    1.093260
      2          6           0       -2.479732    2.022268    0.269433
      3          6           0       -3.603326    1.419689   -0.304138
      4          6           0       -3.839761    0.073210   -0.031408
      5          6           0       -3.003641   -0.686662    0.785162
      6          6           0       -1.885931   -0.063417    1.348046
      7          1           0       -0.751155    1.762445    1.534673
      8          1           0       -2.277010    3.070649    0.069817
      9          1           0       -4.284130    1.965938   -0.945648
     10          1           0       -3.231862   -1.730080    0.965749
     11          1           0       -1.221310   -0.637426    1.987450
     12          7           0       -5.026144   -0.575653   -0.632966
     13          8           0       -5.212376   -1.763304   -0.377155
     14          8           0       -5.747336    0.115707   -1.348886
     15          6           0        4.102411   -0.532521    0.333059
     16          6           0        2.707450   -0.235052   -0.217921
     17          6           0        1.593285   -0.845716    0.632679
     18          1           0        4.240900   -1.620609    0.394951
     19          1           0        4.172524   -0.149559    1.360589
     20          1           0        2.640446   -0.617234   -1.244597
     21          1           0        2.572338    0.852454   -0.278688
     22          1           0        1.631602   -0.456067    1.655081
     23          1           0        1.700097   -1.934105    0.683685
     24          1           0        0.604567   -0.620792    0.220726
     25          6           0        5.226818    0.071336   -0.506462
     26          6           0        6.621780   -0.226134    0.044518
     27          6           0        7.735944    0.384531   -0.806082
     28          1           0        5.156706   -0.311626   -1.533993
     29          1           0        5.088329    1.159424   -0.568354
     30          1           0        6.756892   -1.313639    0.105286
     31          1           0        6.688783    0.156049    1.071194
     32          1           0        7.629132    1.472919   -0.857088
     33          1           0        7.697628   -0.005119   -1.828484
     34          1           0        8.724662    0.159606   -0.394129
 ---------------------------------------------------------------------

 SCF Done:  E(RHF) =  -669.534554275     A.U. after   15 cycles
 E2 =    -0.2092174839D+01 EUMP2 =    -0.67162672911420D+03

 The electronic state is 1-A.
 Alpha  occ. eigenvalues --  -20.60760 -20.60754 -15.85812 -11.31185 -11.27748
 Alpha  occ. eigenvalues --  -11.27727 -11.27473 -11.26772 -11.26706 -11.22297
 Alpha  occ. eigenvalues --  -11.22005 -11.21957 -11.21868 -11.21839 -11.21411
 Alpha  occ. eigenvalues --   -1.59834  -1.39388  -1.19360  -1.08979  -1.08752
 Alpha  occ. eigenvalues --   -1.04766  -1.04094  -0.96568  -0.95580  -0.87611
 Alpha  occ. eigenvalues --   -0.86141  -0.82411  -0.80177  -0.78769  -0.77457
 Alpha  occ. eigenvalues --   -0.72031  -0.71158  -0.70456  -0.65612  -0.65007
 Alpha  occ. eigenvalues --   -0.64776  -0.62128  -0.61492  -0.59928  -0.58162
 Alpha  occ. eigenvalues --   -0.55860  -0.55246  -0.53610  -0.53097  -0.52820
 Alpha  occ. eigenvalues --   -0.52626  -0.50509  -0.48788  -0.48785  -0.48478
 Alpha  occ. eigenvalues --   -0.47200  -0.46316  -0.46229  -0.44792  -0.44347
 Alpha  occ. eigenvalues --   -0.37289  -0.36323
 Alpha virt. eigenvalues --    0.05058   0.11219   0.16521   0.20658   0.22447
 Alpha virt. eigenvalues --    0.23886   0.25878   0.26247   0.27115   0.27775
 Alpha virt. eigenvalues --    0.28894   0.30374   0.31005   0.31571   0.31948

 Mulliken charges:
               1
     1  C   -0.171020
     2  C   -0.218483
     3  C   -0.171208
     4  C    0.158641
     5  C   -0.172928
     6  C   -0.220335
     7  H    0.226761
     8  H    0.223400
     9  H    0.275570
    10  H    0.275801
    11  H    0.230091
    12  N    0.488078
    13  O   -0.460319
    14  O   -0.460465
    15  C   -0.298646
    16  C   -0.298498
    17  C   -0.487919
    18  H    0.151368
    19  H    0.148175
    20  H    0.156141
    21  H    0.148913
    22  H    0.145489
    23  H    0.158201
    24  H    0.170424
    25  C   -0.298576
    26  C   -0.299940
    27  C   -0.475951
    28  H    0.151091
    29  H    0.149052
    30  H    0.152872
    31  H    0.151659
    32  H    0.155129
    33  H    0.156092
    34  H    0.161342
 Sum of Mulliken charges =  -0.00000

 Dipole moment (field-independent basis, Debye):
    X=              4.2587    Y=              2.2644    Z=              2.0688  Tot=              5.2482
 Quadrupole moment (field-independent basis, Debye-Ang):
   XX=           -127.7956   YY=            -90.2434   ZZ=            -94.5567
   XY=            -10.1951   XZ=             -7.4660   YZ=             -1.4192

 Normal termination of Gaussian 16 at Thu May  6 19:06:07 2021.
