 Gaussian 16, Revision A.03,
 Gaussian 16:  EM64L-G16RevA.03 25-Dec-2016

 -------------
 #p 6-31g* mp2
 -------------

 ------------------------------------------------------
 Input file generated by CHIRIPA (05-May-2021 14:53:15)
 ------------------------------------------------------
 Symbolic Z-matrix:
 Charge =  0 Multiplicity = 1

                         Standard orientation:
 ---------------------------------------------------------------------
 Center     Atomic      Atomic             Coordinates (Angstroms)
 Number     Number       Type             X           Y           Z
 ---------------------------------------------------------------------
      1          6           0       -3.773085   -0.548330   -0.154954
      2          6           0       -3.273482   -1.442132    0.980608
      3          6           0       -2.114406   -2.344546    0.556362
      4          1           0       -4.086947   -1.178690   -0.998210
      5          1           0       -2.940615    0.069406   -0.519358
      6          1           0       -4.106980   -2.057006    1.343688
      7          1           0       -2.960952   -0.809578    1.821332
      8          1           0       -1.264952   -1.745004    0.213464
      9          1           0       -2.417492   -2.999519   -0.266894
     10          1           0       -1.772918   -2.974922    1.383327
     11          6           0       -4.931687    0.359619    0.253700
     12          6           0       -5.431290    1.253421   -0.881862
     13          6           0       -6.590366    2.155835   -0.457616
     14          1           0       -5.764157   -0.258117    0.618104
     15          1           0       -4.617825    0.989979    1.096956
     16          1           0       -5.743820    0.620868   -1.722586
     17          1           0       -4.597792    1.868295   -1.244942
     18          1           0       -6.287280    2.810808    0.365640
     19          1           0       -7.439820    1.556293   -0.114718
     20          1           0       -6.931854    2.786211   -1.284581
     21          6           0        4.727613    2.180365    0.369092
     22          6           0        3.677262    1.837771    1.226945
     23          6           0        2.935059    0.672904    1.010685
     24          6           0        3.271983   -0.129948   -0.077984
     25          6           0        4.312784    0.184366   -0.950467
     26          6           0        5.041469    1.354027   -0.714965
     27          1           0        5.298924    3.087124    0.544563
     28          1           0        3.431277    2.477625    2.069633
     29          1           0        2.116892    0.383836    1.659115
     30          1           0        4.534390   -0.473401   -1.782122
     31          1           0        5.856660    1.617591   -1.382829
     32          7           0        2.493401   -1.365678   -0.317114
     33          8           0        2.810159   -2.056165   -1.283307
     34          8           0        1.581133   -1.620356    0.466175
 ---------------------------------------------------------------------

 SCF Done:  E(RHF) =  -669.535852707     A.U. after   15 cycles
 E2 =    -0.2090723344D+01 EUMP2 =    -0.67162657605097D+03

 The electronic state is 1-A.
 Alpha  occ. eigenvalues --  -20.60911 -20.60903 -15.85943 -11.31284 -11.27851
 Alpha  occ. eigenvalues --  -11.27846 -11.27590 -11.26861 -11.26852 -11.21234
 Alpha  occ. eigenvalues --  -11.20900 -11.20797 -11.20720 -11.20660 -11.19608
 Alpha  occ. eigenvalues --   -1.59973  -1.39528  -1.19455  -1.08855  -1.07816
 Alpha  occ. eigenvalues --   -1.04854  -1.02821  -0.95696  -0.95234  -0.86261
 Alpha  occ. eigenvalues --   -0.86234  -0.82527  -0.78910  -0.77614  -0.77563
 Alpha  occ. eigenvalues --   -0.72164  -0.71290  -0.70563  -0.65110  -0.64856
 Alpha  occ. eigenvalues --   -0.64458  -0.62201  -0.60220  -0.58675  -0.56849
 Alpha  occ. eigenvalues --   -0.55357  -0.54518  -0.53185  -0.52946  -0.51906
 Alpha  occ. eigenvalues --   -0.51656  -0.49238  -0.48924  -0.48855  -0.47204
 Alpha  occ. eigenvalues --   -0.45979  -0.45166  -0.45107  -0.44794  -0.43081
 Alpha  occ. eigenvalues --   -0.37434  -0.36457
 Alpha virt. eigenvalues --    0.04923   0.11198   0.16397   0.21323   0.23421
 Alpha virt. eigenvalues --    0.25068   0.27197   0.27275   0.28038   0.28162
 Alpha virt. eigenvalues --    0.28921   0.30876   0.32087   0.32316   0.32541

 Mulliken charges:
               1
     1  C   -0.297261
     2  C   -0.300031
     3  C   -0.478302
     4  H    0.149533
     5  H    0.148162
     6  H    0.147806
     7  H    0.147017
     8  H    0.174049
     9  H    0.151062
    10  H    0.159954
    11  C   -0.297368
    12  C   -0.299006
    13  C   -0.475232
    14  H    0.148792
    15  H    0.147092
    16  H    0.152085
    17  H    0.150488
    18  H    0.153714
    19  H    0.154986
    20  H    0.158861
    21  C   -0.170662
    22  C   -0.218526
    23  C   -0.171031
    24  C    0.157947
    25  C   -0.170732
    26  C   -0.218550
    27  H    0.225956
    28  H    0.223760
    29  H    0.275654
    30  H    0.275904
    31  H    0.223802
    32  N    0.489532
    33  O   -0.458803
    34  O   -0.460651
 Sum of Mulliken charges =  -0.00000

 Dipole moment (field-independent basis, Debye):
    X=              3.0342    Y=              4.3052    Z=              0.8066  Tot=              5.3284
 Quadrupole moment (field-independent basis, Debye-Ang):
   XX=            -76.8872   YY=            -96.3791   ZZ=            -92.0351
   XY=             14.6948   XZ=              0.3471   YZ=              0.7177

 Normal termination of Gaussian 16 at Thu May  6 07:26:40 2021.
