 Gaussian 16, Revision A.03,
 Gaussian 16:  EM64L-G16RevA.03 25-Dec-2016

 -------------
 #p 6-31g* mp2
 -------------

 ------------------------------------------------------
 Input file generated by CHIRIPA (05-May-2021 14:51:14)
 ------------------------------------------------------
 Symbolic Z-matrix:
 Charge =  0 Multiplicity = 1

                         Standard orientation:
 ---------------------------------------------------------------------
 Center     Atomic      Atomic             Coordinates (Angstroms)
 Number     Number       Type             X           Y           Z
 ---------------------------------------------------------------------
      1          6           0       -2.370873   -0.191828    1.118662
      2          6           0       -0.905335   -0.625668    1.074317
      3          6           0       -0.262310   -0.678663    2.460500
      4          1           0       -2.440004    0.795967    1.594504
      5          1           0       -2.932569   -0.886809    1.758111
      6          1           0       -0.346842    0.069123    0.434029
      7          1           0       -0.839665   -1.612461    0.598352
      8          1           0       -0.793998   -1.386129    3.105015
      9          1           0       -0.298375    0.305009    2.939760
     10          1           0        0.785190   -0.991033    2.405465
     11          6           0       -3.027533   -0.134048   -0.259448
     12          6           0       -4.493071    0.299792   -0.215103
     13          6           0       -5.136096    0.352787   -1.601286
     14          1           0       -2.465838    0.560933   -0.898897
     15          1           0       -2.958402   -1.121843   -0.735290
     16          1           0       -4.558741    1.286585    0.260862
     17          1           0       -5.051564   -0.394999    0.425185
     18          1           0       -5.100031   -0.630885   -2.080546
     19          1           0       -4.604408    1.060254   -2.245802
     20          1           0       -6.183597    0.665157   -1.546251
     21          6           0        2.535970   -0.460710   -0.839302
     22          6           0        3.016987   -1.757504   -0.187433
     23          6           0        2.683076   -2.996386   -1.018978
     24          1           0        1.450029   -0.517296   -0.995749
     25          1           0        2.990865   -0.368481   -1.835274
     26          1           0        2.562403   -1.846576    0.807573
     27          1           0        4.101881   -1.697748   -0.032344
     28          1           0        3.149502   -2.934048   -2.007493
     29          1           0        1.601277   -3.083721   -1.162804
     30          1           0        3.035934   -3.912153   -0.534496
     31          6           0        2.862436    0.786586   -0.019912
     32          6           0        2.381419    2.083380   -0.671781
     33          6           0        2.715330    3.322262    0.159764
     34          1           0        2.407541    0.694357    0.976060
     35          1           0        3.948377    0.843171    0.136535
     36          1           0        1.296526    2.023623   -0.826869
     37          1           0        2.836003    2.172451   -1.666787
     38          1           0        3.797129    3.409597    0.303590
     39          1           0        2.248904    3.259924    1.148279
     40          1           0        2.362472    4.238028   -0.324718
 ---------------------------------------------------------------------

 SCF Done:  E(RHF) =  -470.732455397     A.U. after   11 cycles
 E2 =    -0.1584978384D+01 EUMP2 =    -0.47231743378062D+03

 The electronic state is 1-A.
 Alpha  occ. eigenvalues --  -11.21691 -11.21647 -11.21624 -11.21571 -11.21475
 Alpha  occ. eigenvalues --  -11.21415 -11.21349 -11.21265 -11.21173 -11.21102
 Alpha  occ. eigenvalues --  -11.21088 -11.21052  -1.08535  -1.08381  -1.03613
 Alpha  occ. eigenvalues --   -1.03515  -0.96067  -0.95951  -0.87072  -0.86981
 Alpha  occ. eigenvalues --   -0.79712  -0.79571  -0.78377  -0.78159  -0.65334
 Alpha  occ. eigenvalues --   -0.64932  -0.61085  -0.60862  -0.59411  -0.59310
 Alpha  occ. eigenvalues --   -0.57652  -0.57577  -0.55420  -0.55153  -0.52775
 Alpha  occ. eigenvalues --   -0.52665  -0.52481  -0.52384  -0.50016  -0.49890
 Alpha  occ. eigenvalues --   -0.48088  -0.47904  -0.46754  -0.46619  -0.46112
 Alpha  occ. eigenvalues --   -0.45804  -0.45694  -0.45270  -0.43822  -0.43759
 Alpha virt. eigenvalues --    0.19583   0.22649   0.23434   0.24497   0.25270
 Alpha virt. eigenvalues --    0.26061   0.26752   0.27786   0.29081   0.29674
 Alpha virt. eigenvalues --    0.29913   0.30962   0.31708   0.31894   0.32401

 Mulliken charges:
               1
     1  C   -0.297644
     2  C   -0.307212
     3  C   -0.481041
     4  H    0.149814
     5  H    0.149852
     6  H    0.159124
     7  H    0.152265
     8  H    0.155981
     9  H    0.155141
    10  H    0.164721
    11  C   -0.298461
    12  C   -0.299682
    13  C   -0.475789
    14  H    0.149088
    15  H    0.149722
    16  H    0.152088
    17  H    0.152120
    18  H    0.155288
    19  H    0.155324
    20  H    0.160437
    21  C   -0.302305
    22  C   -0.303876
    23  C   -0.476076
    24  H    0.155415
    25  H    0.149184
    26  H    0.155322
    27  H    0.151841
    28  H    0.155243
    29  H    0.155546
    30  H    0.159978
    31  C   -0.302831
    32  C   -0.301234
    33  C   -0.475595
    34  H    0.153799
    35  H    0.149909
    36  H    0.151566
    37  H    0.152336
    38  H    0.155478
    39  H    0.155082
    40  H    0.160080
 Sum of Mulliken charges =  -0.00000

 Dipole moment (field-independent basis, Debye):
    X=             -0.0318    Y=             -0.0027    Z=              0.0123  Tot=              0.0342
 Quadrupole moment (field-independent basis, Debye-Ang):
   XX=            -84.3151   YY=            -84.8343   ZZ=            -85.6387
   XY=              0.2747   XZ=             -1.0798   YZ=             -0.5444

 Normal termination of Gaussian 16 at Wed May  5 23:16:06 2021.
