 Gaussian 16, Revision A.03,
 Gaussian 16:  EM64L-G16RevA.03 25-Dec-2016

 -------------
 #p 6-31g* mp2
 -------------

 ------------------------------------------------------
 Input file generated by CHIRIPA (05-May-2021 14:57:21)
 ------------------------------------------------------
 Symbolic Z-matrix:
 Charge =  0 Multiplicity = 1

                         Standard orientation:
 ---------------------------------------------------------------------
 Center     Atomic      Atomic             Coordinates (Angstroms)
 Number     Number       Type             X           Y           Z
 ---------------------------------------------------------------------
      1          6           0       -2.043980    2.791506    0.400556
      2          6           0       -2.463084    2.309384   -0.843804
      3          6           0       -2.876402    0.981663   -0.988284
      4          6           0       -2.857862    0.160006    0.137694
      5          6           0       -2.445763    0.610827    1.390780
      6          6           0       -2.036670    1.942186    1.511917
      7          1           0       -1.724545    3.824324    0.503724
      8          1           0       -2.469802    2.966707   -1.708631
      9          1           0       -3.205681    0.582365   -1.939890
     10          1           0       -2.450038   -0.068342    2.234657
     11          1           0       -1.711693    2.313877    2.479533
     12          7           0       -3.293187   -1.247518   -0.002905
     13          8           0       -3.267589   -1.951206    1.004470
     14          8           0       -3.651749   -1.620395   -1.117818
     15          6           0        0.665269   -1.702037   -0.550351
     16          6           0        1.009075   -0.654536   -1.411199
     17          6           0        2.181780    0.078123   -1.204992
     18          6           0        2.991150   -0.265332   -0.123212
     19          6           0        2.675826   -1.303516    0.752023
     20          6           0        1.498274   -2.022618    0.526614
     21          1           0       -0.247599   -2.265918   -0.717996
     22          1           0        0.364056   -0.403343   -2.248395
     23          1           0        2.471960    0.893888   -1.855946
     24          1           0        3.338863   -1.530476    1.578030
     25          1           0        1.233786   -2.835616    1.196783
     26          7           0        4.235207    0.503126    0.105254
     27          8           0        4.931335    0.180750    1.065522
     28          8           0        4.490613    1.413268   -0.680269
 ---------------------------------------------------------------------

 SCF Done:  E(RHF) =  -868.339169447     A.U. after   16 cycles
 E2 =    -0.2600427253D+01 EUMP2 =    -0.87093959670034D+03

 The electronic state is 1-A.
 Alpha  occ. eigenvalues --  -20.61750 -20.61744 -20.60832 -20.60823 -15.86782
 Alpha  occ. eigenvalues --  -15.85879 -11.31913 -11.31148 -11.28480 -11.28423
 Alpha  occ. eigenvalues --  -11.28098 -11.27718 -11.27680 -11.27415 -11.27352
 Alpha  occ. eigenvalues --  -11.27317 -11.26682 -11.26619  -1.60844  -1.59909
 Alpha  occ. eigenvalues --   -1.40394  -1.39465  -1.20055  -1.19296  -1.09489
 Alpha  occ. eigenvalues --   -1.08689  -1.05420  -1.04685  -0.96363  -0.95547
 Alpha  occ. eigenvalues --   -0.86827  -0.86072  -0.83198  -0.82387  -0.78288
 Alpha  occ. eigenvalues --   -0.77465  -0.72991  -0.72229  -0.72096  -0.71234
 Alpha  occ. eigenvalues --   -0.71140  -0.70314  -0.65703  -0.65408  -0.64936
 Alpha  occ. eigenvalues --   -0.64666  -0.62774  -0.62038  -0.55896  -0.55107
 Alpha  occ. eigenvalues --   -0.53828  -0.53502  -0.52953  -0.52757  -0.49770
 Alpha  occ. eigenvalues --   -0.49734  -0.48860  -0.48845  -0.45846  -0.44893
 Alpha  occ. eigenvalues --   -0.38087  -0.37155  -0.37025  -0.36274
 Alpha virt. eigenvalues --    0.04182   0.05070   0.10560   0.11410   0.15760
 Alpha virt. eigenvalues --    0.16590   0.20766   0.21584   0.26613   0.27355
 Alpha virt. eigenvalues --    0.27776   0.28338   0.30554   0.30968   0.31857

 Mulliken charges:
               1
     1  C   -0.168868
     2  C   -0.219012
     3  C   -0.176151
     4  C    0.157378
     5  C   -0.169040
     6  C   -0.216913
     7  H    0.229992
     8  H    0.225201
     9  H    0.273952
    10  H    0.275730
    11  H    0.227319
    12  N    0.484624
    13  O   -0.460392
    14  O   -0.462231
    15  C   -0.177695
    16  C   -0.216535
    17  C   -0.172399
    18  C    0.157693
    19  C   -0.172567
    20  C   -0.219773
    21  H    0.237527
    22  H    0.221891
    23  H    0.272710
    24  H    0.274819
    25  H    0.227898
    26  N    0.487959
    27  O   -0.460735
    28  O   -0.462383
 Sum of Mulliken charges =  -0.00000

 Dipole moment (field-independent basis, Debye):
    X=             -2.9784    Y=              2.3387    Z=             -0.1752  Tot=              3.7909
 Quadrupole moment (field-independent basis, Debye-Ang):
   XX=           -141.6022   YY=           -100.5310   ZZ=            -96.7847
   XY=            -22.2109   XZ=             -1.3059   YZ=             -2.0228

 Normal termination of Gaussian 16 at Thu May  6 16:10:04 2021.
