 Gaussian 16, Revision A.03,
 Gaussian 16:  EM64L-G16RevA.03 25-Dec-2016

 -------------
 #p 6-31g* mp2
 -------------

 ------------------------------------------------------
 Input file generated by CHIRIPA (05-May-2021 14:53:12)
 ------------------------------------------------------
 Symbolic Z-matrix:
 Charge =  0 Multiplicity = 1

                         Standard orientation:
 ---------------------------------------------------------------------
 Center     Atomic      Atomic             Coordinates (Angstroms)
 Number     Number       Type             X           Y           Z
 ---------------------------------------------------------------------
      1          6           0       -3.320767   -1.094112    0.356645
      2          6           0       -1.814747   -1.112831    0.620342
      3          6           0       -1.288292   -2.511786    0.942154
      4          1           0       -3.845548   -1.491575    1.236175
      5          1           0       -3.548536   -1.773258   -0.476589
      6          1           0       -1.589716   -0.432799    1.451928
      7          1           0       -1.293501   -0.715099   -0.259844
      8          1           0       -1.483938   -3.197546    0.111457
      9          1           0       -1.781836   -2.913642    1.832955
     10          1           0       -0.209626   -2.502073    1.127211
     11          6           0       -3.861966    0.297437    0.033503
     12          6           0       -5.367987    0.316156   -0.230195
     13          6           0       -5.894441    1.715111   -0.552007
     14          1           0       -3.634198    0.976583    0.866736
     15          1           0       -3.337186    0.694900   -0.846028
     16          1           0       -5.889232   -0.081576    0.649992
     17          1           0       -5.593017   -0.363876   -1.061780
     18          1           0       -5.400897    2.116967   -1.442808
     19          1           0       -5.698795    2.400871    0.278690
     20          1           0       -6.973107    1.705398   -0.737064
     21          6           0        3.003051   -2.148672   -0.677782
     22          6           0        1.795786   -1.479296   -0.903545
     23          6           0        1.675047   -0.116447   -0.616121
     24          6           0        2.786681    0.549013   -0.101609
     25          6           0        4.002943   -0.090010    0.134290
     26          6           0        4.100841   -1.453118   -0.160496
     27          1           0        3.087973   -3.207466   -0.903920
     28          1           0        0.941574   -2.016925   -1.305196
     29          1           0        0.752276    0.426373   -0.781223
     30          1           0        4.837039    0.472762    0.535526
     31          1           0        5.039661   -1.970384    0.015848
     32          7           0        2.670951    1.991938    0.206571
     33          8           0        3.665013    2.555550    0.659139
     34          8           0        1.588370    2.531967   -0.010280
 ---------------------------------------------------------------------

 SCF Done:  E(RHF) =  -669.534656898     A.U. after   15 cycles
 E2 =    -0.2093000104D+01 EUMP2 =    -0.67162765700173D+03

 The electronic state is 1-A.
 Alpha  occ. eigenvalues --  -20.60748 -20.60743 -15.85800 -11.31162 -11.27737
 Alpha  occ. eigenvalues --  -11.27701 -11.27482 -11.26757 -11.26721 -11.22195
 Alpha  occ. eigenvalues --  -11.21752 -11.21711 -11.21662 -11.21534 -11.21072
 Alpha  occ. eigenvalues --   -1.59823  -1.39376  -1.19345  -1.08761  -1.08723
 Alpha  occ. eigenvalues --   -1.04763  -1.03850  -0.96292  -0.95572  -0.87317
 Alpha  occ. eigenvalues --   -0.86136  -0.82411  -0.79956  -0.78528  -0.77443
 Alpha  occ. eigenvalues --   -0.72019  -0.71146  -0.70455  -0.65415  -0.64986
 Alpha  occ. eigenvalues --   -0.64753  -0.62235  -0.61169  -0.59656  -0.57891
 Alpha  occ. eigenvalues --   -0.55596  -0.55224  -0.53240  -0.52900  -0.52900
 Alpha  occ. eigenvalues --   -0.52547  -0.50234  -0.48777  -0.48777  -0.48230
 Alpha  occ. eigenvalues --   -0.46992  -0.46060  -0.45963  -0.44781  -0.44092
 Alpha  occ. eigenvalues --   -0.37321  -0.36306
 Alpha virt. eigenvalues --    0.05067   0.11254   0.16496   0.20063   0.22935
 Alpha virt. eigenvalues --    0.24062   0.25235   0.26533   0.27207   0.28500
 Alpha virt. eigenvalues --    0.29032   0.30335   0.31319   0.31581   0.32237

 Mulliken charges:
               1
     1  C   -0.297835
     2  C   -0.301635
     3  C   -0.482607
     4  H    0.151867
     5  H    0.147730
     6  H    0.160546
     7  H    0.140731
     8  H    0.149231
     9  H    0.159828
    10  H    0.164022
    11  C   -0.299036
    12  C   -0.299989
    13  C   -0.476029
    14  H    0.154137
    15  H    0.149487
    16  H    0.152157
    17  H    0.150787
    18  H    0.156267
    19  H    0.157382
    20  H    0.160294
    21  C   -0.172787
    22  C   -0.218302
    23  C   -0.173775
    24  C    0.158693
    25  C   -0.170989
    26  C   -0.218579
    27  H    0.225892
    28  H    0.227494
    29  H    0.278801
    30  H    0.275489
    31  H    0.223415
    32  N    0.488214
    33  O   -0.460621
    34  O   -0.460282
 Sum of Mulliken charges =  -0.00000

 Dipole moment (field-independent basis, Debye):
    X=              0.3248    Y=             -5.0207    Z=             -0.9993  Tot=              5.1295
 Quadrupole moment (field-independent basis, Debye-Ang):
   XX=            -87.9082   YY=           -101.9963   ZZ=            -93.7960
   XY=            -13.8481   XZ=             -1.9432   YZ=              0.3095

 Normal termination of Gaussian 16 at Thu May  6 15:19:39 2021.
