 Gaussian 16, Revision A.03,
 Gaussian 16:  EM64L-G16RevA.03 25-Dec-2016

 -------------
 #p 6-31g* mp2
 -------------

 ------------------------------------------------------
 Input file generated by CHIRIPA (05-May-2021 14:53:17)
 ------------------------------------------------------
 Symbolic Z-matrix:
 Charge =  0 Multiplicity = 1

                         Standard orientation:
 ---------------------------------------------------------------------
 Center     Atomic      Atomic             Coordinates (Angstroms)
 Number     Number       Type             X           Y           Z
 ---------------------------------------------------------------------
      1          6           0       -2.602850    0.530913    0.570273
      2          6           0       -2.930327    1.940098    1.065188
      3          6           0       -1.735869    2.625978    1.728990
      4          1           0       -2.253465   -0.076129    1.416662
      5          1           0       -1.767577    0.584728   -0.141639
      6          1           0       -3.765642    1.883798    1.774903
      7          1           0       -3.279155    2.543802    0.217557
      8          1           0       -0.901082    2.711494    1.025841
      9          1           0       -1.390333    2.047741    2.592036
     10          1           0       -1.992154    3.632077    2.075317
     11          6           0       -3.786968   -0.167709   -0.095700
     12          6           0       -3.459491   -1.576894   -0.590615
     13          6           0       -4.653949   -2.262773   -1.254417
     14          1           0       -4.622241   -0.221524    0.616212
     15          1           0       -4.136353    0.439333   -0.942089
     16          1           0       -3.110663   -2.180597    0.257016
     17          1           0       -2.624176   -1.520594   -1.300330
     18          1           0       -4.999485   -1.684537   -2.117463
     19          1           0       -5.488736   -2.348290   -0.551268
     20          1           0       -4.397664   -3.268873   -1.600744
     21          6           0        3.097126   -2.115334    1.267226
     22          6           0        1.754781   -1.822097    1.005231
     23          6           0        1.410069   -0.731154    0.201761
     24          6           0        2.437910    0.048910   -0.325812
     25          6           0        3.784520   -0.217560   -0.083062
     26          6           0        4.105933   -1.313544    0.723202
     27          1           0        3.355857   -2.964763    1.892466
     28          1           0        0.969225   -2.443042    1.426390
     29          1           0        0.378986   -0.481472   -0.017199
     30          1           0        4.545437    0.419731   -0.516979
     31          1           0        5.149266   -1.538899    0.924980
     32          7           0        2.085312    1.206511   -1.177890
     33          8           0        3.009553    1.878295   -1.630792
     34          8           0        0.891380    1.420135   -1.376710
 ---------------------------------------------------------------------

 SCF Done:  E(RHF) =  -669.536396447     A.U. after   15 cycles
 E2 =    -0.2092418587D+01 EUMP2 =    -0.67162881503403D+03

 The electronic state is 1-A.
 Alpha  occ. eigenvalues --  -20.60917 -20.60906 -15.85939 -11.31189 -11.27768
 Alpha  occ. eigenvalues --  -11.27701 -11.27501 -11.26765 -11.26738 -11.21749
 Alpha  occ. eigenvalues --  -11.21355 -11.21315 -11.21260 -11.21149 -11.20592
 Alpha  occ. eigenvalues --   -1.59969  -1.39528  -1.19363  -1.08784  -1.08356
 Alpha  occ. eigenvalues --   -1.04749  -1.03399  -0.95842  -0.95633  -0.86863
 Alpha  occ. eigenvalues --   -0.86158  -0.82469  -0.79498  -0.78263  -0.77481
 Alpha  occ. eigenvalues --   -0.72166  -0.71275  -0.70479  -0.65061  -0.64961
 Alpha  occ. eigenvalues --   -0.64726  -0.62107  -0.60773  -0.59234  -0.57468
 Alpha  occ. eigenvalues --   -0.55277  -0.55096  -0.53089  -0.52880  -0.52534
 Alpha  occ. eigenvalues --   -0.52246  -0.49773  -0.48941  -0.48908  -0.47804
 Alpha  occ. eigenvalues --   -0.46522  -0.45728  -0.45589  -0.44900  -0.43675
 Alpha  occ. eigenvalues --   -0.37349  -0.36346
 Alpha virt. eigenvalues --    0.04974   0.11290   0.16463   0.20669   0.23127
 Alpha virt. eigenvalues --    0.24460   0.25205   0.26269   0.27963   0.28159
 Alpha virt. eigenvalues --    0.29976   0.31131   0.31549   0.31868   0.32152

 Mulliken charges:
               1
     1  C   -0.316063
     2  C   -0.296389
     3  C   -0.482575
     4  H    0.139731
     5  H    0.169771
     6  H    0.149084
     7  H    0.156514
     8  H    0.170381
     9  H    0.148453
    10  H    0.159801
    11  C   -0.296326
    12  C   -0.301413
    13  C   -0.475342
    14  H    0.148944
    15  H    0.154212
    16  H    0.144979
    17  H    0.152858
    18  H    0.158076
    19  H    0.155284
    20  H    0.159108
    21  C   -0.170087
    22  C   -0.223199
    23  C   -0.173710
    24  C    0.154811
    25  C   -0.169804
    26  C   -0.219286
    27  H    0.225625
    28  H    0.224464
    29  H    0.288508
    30  H    0.275399
    31  H    0.223376
    32  N    0.489461
    33  O   -0.458634
    34  O   -0.466013
 Sum of Mulliken charges =  -0.00000

 Dipole moment (field-independent basis, Debye):
    X=              1.2759    Y=             -3.9518    Z=              2.8581  Tot=              5.0412
 Quadrupole moment (field-independent basis, Debye-Ang):
   XX=            -84.3293   YY=            -95.7441   ZZ=            -97.1097
   XY=             -9.4586   XZ=              6.1538   YZ=              0.4343

 Normal termination of Gaussian 16 at Wed May  5 20:25:23 2021.
