 Gaussian 16, Revision A.03,
 Gaussian 16:  EM64L-G16RevA.03 25-Dec-2016

 -------------
 #p 6-31g* mp2
 -------------

 ------------------------------------------------------
 Input file generated by CHIRIPA (05-May-2021 14:57:27)
 ------------------------------------------------------
 Symbolic Z-matrix:
 Charge =  0 Multiplicity = 1

                         Standard orientation:
 ---------------------------------------------------------------------
 Center     Atomic      Atomic             Coordinates (Angstroms)
 Number     Number       Type             X           Y           Z
 ---------------------------------------------------------------------
      1          6           0       -4.891138   -2.144555   -0.370322
      2          6           0       -3.567834   -1.935237   -0.772284
      3          6           0       -2.970692   -0.679922   -0.623446
      4          6           0       -3.729432    0.348300   -0.066342
      5          6           0       -5.049921    0.171086    0.343772
      6          6           0       -5.626661   -1.092580    0.185443
      7          1           0       -5.347088   -3.122957   -0.489629
      8          1           0       -2.994220   -2.750376   -1.204212
      9          1           0       -1.948043   -0.490227   -0.926137
     10          1           0       -5.596469    1.003037    0.771042
     11          1           0       -6.654546   -1.252241    0.498503
     12          7           0       -3.108064    1.681666    0.096250
     13          8           0       -3.797840    2.571167    0.589843
     14          8           0       -1.943025    1.812010   -0.272982
     15          6           0        1.350922   -0.302124    0.518387
     16          6           0        1.878320    0.840904   -0.091416
     17          6           0        3.251366    0.947932   -0.331912
     18          6           0        4.071687   -0.111764    0.052027
     19          6           0        3.576365   -1.263508    0.661478
     20          6           0        2.200131   -1.348838    0.892227
     21          1           0        0.283069   -0.376837    0.701425
     22          1           0        1.221196    1.655352   -0.382806
     23          1           0        3.686253    1.821428   -0.802333
     24          1           0        4.256530   -2.058989    0.940770
     25          1           0        1.793333   -2.237723    1.365983
     26          7           0        5.526956   -0.009944   -0.197417
     27          8           0        6.228460   -0.957384    0.150273
     28          8           0        5.938538    1.015372   -0.735898
 ---------------------------------------------------------------------

 SCF Done:  E(RHF) =  -868.339593369     A.U. after   16 cycles
 E2 =    -0.2599537213D+01 EUMP2 =    -0.87093913058218D+03

 The electronic state is 1-A.
 Alpha  occ. eigenvalues --  -20.61999 -20.61921 -20.60435 -20.60423 -15.86997
 Alpha  occ. eigenvalues --  -15.85478 -11.32191 -11.30771 -11.28777 -11.28672
 Alpha  occ. eigenvalues --  -11.28382 -11.27708 -11.27650 -11.27351 -11.27224
 Alpha  occ. eigenvalues --  -11.26990 -11.26398 -11.26101  -1.61013  -1.59508
 Alpha  occ. eigenvalues --   -1.40580  -1.39063  -1.20329  -1.18909  -1.09744
 Alpha  occ. eigenvalues --   -1.08316  -1.05706  -1.04281  -0.96616  -0.95171
 Alpha  occ. eigenvalues --   -0.87110  -0.85670  -0.83457  -0.81996  -0.78542
 Alpha  occ. eigenvalues --   -0.77054  -0.73228  -0.72322  -0.71696  -0.71428
 Alpha  occ. eigenvalues --   -0.70830  -0.70012  -0.65982  -0.65692  -0.64547
 Alpha  occ. eigenvalues --   -0.64231  -0.63059  -0.61603  -0.56186  -0.54800
 Alpha  occ. eigenvalues --   -0.54034  -0.53767  -0.52642  -0.52334  -0.49989
 Alpha  occ. eigenvalues --   -0.49936  -0.48459  -0.48445  -0.46013  -0.44485
 Alpha  occ. eigenvalues --   -0.38277  -0.37303  -0.36903  -0.35887
 Alpha virt. eigenvalues --    0.03948   0.05423   0.10272   0.11755   0.15522
 Alpha virt. eigenvalues --    0.16879   0.20011   0.22034   0.25870   0.26938
 Alpha virt. eigenvalues --    0.28013   0.28835   0.30586   0.31051   0.32404

 Mulliken charges:
               1
     1  C   -0.170023
     2  C   -0.218584
     3  C   -0.177397
     4  C    0.158908
     5  C   -0.170086
     6  C   -0.217775
     7  H    0.229085
     8  H    0.225928
     9  H    0.272516
    10  H    0.278003
    11  H    0.227045
    12  N    0.492251
    13  O   -0.452627
    14  O   -0.474204
    15  C   -0.178204
    16  C   -0.223699
    17  C   -0.172555
    18  C    0.158846
    19  C   -0.172577
    20  C   -0.219054
    21  H    0.226313
    22  H    0.244772
    23  H    0.275899
    24  H    0.273186
    25  H    0.218731
    26  N    0.488004
    27  O   -0.462414
    28  O   -0.460286
 Sum of Mulliken charges =  -0.00000

 Dipole moment (field-independent basis, Debye):
    X=             -7.8216    Y=             -4.9185    Z=              0.2860  Tot=              9.2440
 Quadrupole moment (field-independent basis, Debye-Ang):
   XX=           -126.1414   YY=           -103.6352   ZZ=           -104.5337
   XY=             14.2233   XZ=              3.7881   YZ=             -1.1636

 Normal termination of Gaussian 16 at Fri May  7 11:16:30 2021.
