 Gaussian 16, Revision A.03,
 Gaussian 16:  EM64L-G16RevA.03 25-Dec-2016

 -------------
 #p 6-31g* mp2
 -------------

 ------------------------------------------------------
 Input file generated by CHIRIPA (05-May-2021 14:57:23)
 ------------------------------------------------------
 Symbolic Z-matrix:
 Charge =  0 Multiplicity = 1

                         Standard orientation:
 ---------------------------------------------------------------------
 Center     Atomic      Atomic             Coordinates (Angstroms)
 Number     Number       Type             X           Y           Z
 ---------------------------------------------------------------------
      1          6           0       -2.800849    2.465593    0.465253
      2          6           0       -1.653522    2.141389   -0.266221
      3          6           0       -1.451840    0.837979   -0.729897
      4          6           0       -2.422293   -0.120663   -0.442639
      5          6           0       -3.575799    0.171295    0.283636
      6          6           0       -3.756640    1.481246    0.737367
      7          1           0       -2.949426    3.480653    0.821585
      8          1           0       -0.909562    2.903803   -0.479042
      9          1           0       -0.572791    0.559591   -1.298395
     10          1           0       -4.299704   -0.610242    0.480053
     11          1           0       -4.648631    1.730155    1.305208
     12          7           0       -2.219812   -1.503987   -0.928247
     13          8           0       -3.089736   -2.330379   -0.661889
     14          8           0       -1.195019   -1.735651   -1.566031
     15          6           0        1.017031   -1.650550    1.746337
     16          6           0        0.786542   -0.271097    1.768786
     17          6           0        1.577429    0.593408    1.006107
     18          6           0        2.594746    0.041867    0.228830
     19          6           0        2.849149   -1.328052    0.185353
     20          6           0        2.045785   -2.173703    0.956085
     21          1           0        0.397805   -2.314795    2.341933
     22          1           0       -0.011692    0.137995    2.381576
     23          1           0        1.420842    1.665274    1.004860
     24          1           0        3.652330   -1.706314   -0.435319
     25          1           0        2.227075   -3.244591    0.936698
     26          7           0        3.438626    0.947099   -0.582847
     27          8           0        4.328584    0.436253   -1.259343
     28          8           0        3.194123    2.150327   -0.527173
 ---------------------------------------------------------------------

 SCF Done:  E(RHF) =  -868.337585464     A.U. after   16 cycles
 E2 =    -0.2603463838D+01 EUMP2 =    -0.87094104930290D+03

 The electronic state is 1-A.
 Alpha  occ. eigenvalues --  -20.61201 -20.61162 -20.60943 -20.60892 -15.86229
 Alpha  occ. eigenvalues --  -15.85966 -11.31557 -11.31180 -11.28216 -11.28115
 Alpha  occ. eigenvalues --  -11.27931 -11.27769 -11.27617 -11.27339 -11.27174
 Alpha  occ. eigenvalues --  -11.27088 -11.26702 -11.26586  -1.60261  -1.59999
 Alpha  occ. eigenvalues --   -1.39811  -1.39558  -1.19790  -1.19307  -1.09170
 Alpha  occ. eigenvalues --   -1.08723  -1.05204  -1.04658  -0.96004  -0.95593
 Alpha  occ. eigenvalues --   -0.86559  -0.86093  -0.82830  -0.82425  -0.77878
 Alpha  occ. eigenvalues --   -0.77510  -0.72451  -0.72184  -0.71598  -0.71330
 Alpha  occ. eigenvalues --   -0.70870  -0.70403  -0.65419  -0.65148  -0.64956
 Alpha  occ. eigenvalues --   -0.64673  -0.62515  -0.62037  -0.55671  -0.55163
 Alpha  occ. eigenvalues --   -0.53775  -0.53269  -0.52800  -0.52695  -0.49214
 Alpha  occ. eigenvalues --   -0.49204  -0.48957  -0.48919  -0.45216  -0.44996
 Alpha  occ. eigenvalues --   -0.37915  -0.37278  -0.37210  -0.35617
 Alpha virt. eigenvalues --    0.04378   0.05248   0.10754   0.11365   0.16048
 Alpha virt. eigenvalues --    0.16622   0.20700   0.21755   0.26073   0.27629
 Alpha virt. eigenvalues --    0.27927   0.28487   0.30295   0.31518   0.31935

 Mulliken charges:
               1
     1  C   -0.171953
     2  C   -0.230389
     3  C   -0.164839
     4  C    0.155151
     5  C   -0.173252
     6  C   -0.221089
     7  H    0.227833
     8  H    0.231403
     9  H    0.280268
    10  H    0.275431
    11  H    0.224115
    12  N    0.487420
    13  O   -0.463197
    14  O   -0.457448
    15  C   -0.170429
    16  C   -0.217323
    17  C   -0.179695
    18  C    0.158005
    19  C   -0.168068
    20  C   -0.209788
    21  H    0.228490
    22  H    0.223435
    23  H    0.268023
    24  H    0.276732
    25  H    0.227444
    26  N    0.488007
    27  O   -0.456768
    28  O   -0.467519
 Sum of Mulliken charges =  -0.00000

 Dipole moment (field-independent basis, Debye):
    X=             -3.6151    Y=              1.4301    Z=              4.5059  Tot=              5.9512
 Quadrupole moment (field-independent basis, Debye-Ang):
   XX=           -112.5728   YY=           -103.2904   ZZ=           -104.9098
   XY=            -22.0070   XZ=             -0.1974   YZ=             -2.3484

 Normal termination of Gaussian 16 at Thu May  6 22:45:28 2021.
