 Gaussian 16, Revision A.03,
 Gaussian 16:  EM64L-G16RevA.03 25-Dec-2016

 -------------
 #p 6-31g* mp2
 -------------

 ------------------------------------------------------
 Input file generated by CHIRIPA (05-May-2021 14:51:08)
 ------------------------------------------------------
 Symbolic Z-matrix:
 Charge =  0 Multiplicity = 1

                         Standard orientation:
 ---------------------------------------------------------------------
 Center     Atomic      Atomic             Coordinates (Angstroms)
 Number     Number       Type             X           Y           Z
 ---------------------------------------------------------------------
      1          6           0        3.223777   -0.081532   -0.178379
      2          6           0        4.686740   -0.023486    0.262477
      3          6           0        5.361134    1.300152   -0.099424
      4          1           0        3.168211    0.075053   -1.264353
      5          1           0        2.674966    0.749604    0.285747
      6          1           0        5.232330   -0.855296   -0.201246
      7          1           0        4.738846   -0.180418    1.347499
      8          1           0        4.842404    2.139258    0.375360
      9          1           0        5.338692    1.460545   -1.182185
     10          1           0        6.406254    1.320086    0.224901
     11          6           0        2.535950   -1.398634    0.176393
     12          6           0        1.072986   -1.456681   -0.264463
     13          6           0        0.398593   -2.780318    0.097437
     14          1           0        3.084761   -2.229770   -0.287734
     15          1           0        2.591516   -1.555219    1.262367
     16          1           0        1.020881   -1.299748   -1.349486
     17          1           0        0.527397   -0.624870    0.199260
     18          1           0        0.421035   -2.940711    1.180198
     19          1           0        0.917323   -3.619424   -0.377347
     20          1           0       -0.646527   -2.800252   -0.226888
     21          6           0       -3.285138    0.190658    0.343510
     22          6           0       -3.483861   -1.049446   -0.528632
     23          6           0       -4.296514   -2.139734    0.170413
     24          1           0       -2.783492   -0.101416    1.276242
     25          1           0       -4.267839    0.590774    0.629167
     26          1           0       -2.501079   -1.446300   -0.813700
     27          1           0       -3.984920   -0.754355   -1.459478
     28          1           0       -5.289717   -1.766574    0.440413
     29          1           0       -3.797446   -2.462451    1.089862
     30          1           0       -4.426507   -3.017036   -0.470915
     31          6           0       -2.474589    1.289507   -0.341524
     32          6           0       -2.275866    2.529613    0.530618
     33          6           0       -1.463213    3.619901   -0.168426
     34          1           0       -1.491888    0.889391   -0.627180
     35          1           0       -2.976235    1.581582   -1.274256
     36          1           0       -1.774807    2.234521    1.461466
     37          1           0       -3.258648    2.926466    0.815687
     38          1           0       -1.962282    3.942617   -1.087875
     39          1           0       -0.470010    3.246740   -0.438427
     40          1           0       -1.333220    4.497202    0.472903
 ---------------------------------------------------------------------

 SCF Done:  E(RHF) =  -470.733161554     A.U. after   11 cycles
 E2 =    -0.1583626914D+01 EUMP2 =    -0.47231678846813D+03

 The electronic state is 1-A.
 Alpha  occ. eigenvalues --  -11.21692 -11.21640 -11.21595 -11.21576 -11.21468
 Alpha  occ. eigenvalues --  -11.21408 -11.21379 -11.21314 -11.21129 -11.21097
 Alpha  occ. eigenvalues --  -11.21064 -11.21062  -1.08500  -1.08408  -1.03598
 Alpha  occ. eigenvalues --   -1.03514  -0.96038  -0.95966  -0.87059  -0.86976
 Alpha  occ. eigenvalues --   -0.79673  -0.79568  -0.78340  -0.78196  -0.65200
 Alpha  occ. eigenvalues --   -0.65003  -0.60988  -0.60974  -0.59434  -0.59283
 Alpha  occ. eigenvalues --   -0.57652  -0.57566  -0.55327  -0.55256  -0.52744
 Alpha  occ. eigenvalues --   -0.52659  -0.52489  -0.52367  -0.49988  -0.49897
 Alpha  occ. eigenvalues --   -0.48062  -0.47818  -0.46725  -0.46576  -0.45967
 Alpha  occ. eigenvalues --   -0.45796  -0.45744  -0.45498  -0.43832  -0.43765
 Alpha virt. eigenvalues --    0.19895   0.22885   0.23403   0.24928   0.25924
 Alpha virt. eigenvalues --    0.26647   0.27223   0.27430   0.27799   0.29414
 Alpha virt. eigenvalues --    0.30669   0.31438   0.31720   0.31891   0.32252

 Mulliken charges:
               1
     1  C   -0.298405
     2  C   -0.299694
     3  C   -0.475797
     4  H    0.149882
     5  H    0.149077
     6  H    0.152093
     7  H    0.152029
     8  H    0.155326
     9  H    0.155307
    10  H    0.160415
    11  C   -0.298097
    12  C   -0.303718
    13  C   -0.481943
    14  H    0.150010
    15  H    0.149799
    16  H    0.152333
    17  H    0.154925
    18  H    0.155237
    19  H    0.155866
    20  H    0.166037
    21  C   -0.297707
    22  C   -0.306350
    23  C   -0.476075
    24  H    0.149411
    25  H    0.149542
    26  H    0.157721
    27  H    0.152124
    28  H    0.155350
    29  H    0.155717
    30  H    0.160090
    31  C   -0.303732
    32  C   -0.299512
    33  C   -0.475805
    34  H    0.155128
    35  H    0.149592
    36  H    0.151154
    37  H    0.151971
    38  H    0.155309
    39  H    0.155306
    40  H    0.160084
 Sum of Mulliken charges =  -0.00000

 Dipole moment (field-independent basis, Debye):
    X=              0.0270    Y=             -0.0171    Z=             -0.0103  Tot=              0.0335
 Quadrupole moment (field-independent basis, Debye-Ang):
   XX=            -84.6583   YY=            -86.0567   ZZ=            -83.9931
   XY=             -1.5276   XZ=              0.3990   YZ=              0.6999

 Normal termination of Gaussian 16 at Thu May  6 16:33:13 2021.
