 Gaussian 16, Revision A.03,
 Gaussian 16:  EM64L-G16RevA.03 25-Dec-2016

 -------------
 #p 6-31g* mp2
 -------------

 ------------------------------------------------------
 Input file generated by CHIRIPA (05-May-2021 14:53:12)
 ------------------------------------------------------
 Symbolic Z-matrix:
 Charge =  0 Multiplicity = 1

                         Standard orientation:
 ---------------------------------------------------------------------
 Center     Atomic      Atomic             Coordinates (Angstroms)
 Number     Number       Type             X           Y           Z
 ---------------------------------------------------------------------
      1          6           0       -4.081466    0.189424    0.028914
      2          6           0       -5.467453   -0.454130   -0.024617
      3          6           0       -6.540699    0.396121    0.655832
      4          1           0       -3.804382    0.361544    1.077982
      5          1           0       -4.125117    1.177872   -0.449061
      6          1           0       -5.420881   -1.441652    0.452087
      7          1           0       -5.741188   -0.624913   -1.073672
      8          1           0       -6.616381    1.377297    0.176074
      9          1           0       -6.294254    0.555917    1.710503
     10          1           0       -7.523616   -0.082668    0.605883
     11          6           0       -2.997860   -0.648666   -0.647200
     12          6           0       -1.611873   -0.005113   -0.593670
     13          6           0       -0.538627   -0.855364   -1.274119
     14          1           0       -2.954208   -1.637115   -0.169226
     15          1           0       -3.274944   -0.820787   -1.696269
     16          1           0       -1.338138    0.165671    0.455386
     17          1           0       -1.658445    0.982410   -1.070374
     18          1           0       -0.785072   -1.015160   -2.328790
     19          1           0       -0.462945   -1.836540   -0.794361
     20          1           0        0.444291   -0.376575   -1.224169
     21          6           0        3.332002   -2.272871    0.418304
     22          6           0        2.392728   -1.707086    1.286737
     23          6           0        2.071012   -0.349460    1.197873
     24          6           0        2.710580    0.416467    0.224427
     25          6           0        3.650642   -0.118051   -0.655269
     26          6           0        3.956859   -1.477949   -0.548223
     27          1           0        3.575899   -3.328389    0.494397
     28          1           0        1.905883   -2.322022    2.038322
     29          1           0        1.347599    0.114304    1.857430
     30          1           0        4.119378    0.520356   -1.394282
     31          1           0        4.686703   -1.914644   -1.223996
     32          7           0        2.378199    1.854927    0.120727
     33          8           0        2.955654    2.508258   -0.745496
     34          8           0        1.546515    2.301825    0.907635
 ---------------------------------------------------------------------

 SCF Done:  E(RHF) =  -669.534162405     A.U. after   15 cycles
 E2 =    -0.2093845851D+01 EUMP2 =    -0.67162800825571D+03

 The electronic state is 1-A.
 Alpha  occ. eigenvalues --  -20.60818 -20.60805 -15.85857 -11.31180 -11.27807
 Alpha  occ. eigenvalues --  -11.27773 -11.27552 -11.26817 -11.26802 -11.21486
 Alpha  occ. eigenvalues --  -11.21374 -11.21261 -11.21187 -11.20944 -11.20880
 Alpha  occ. eigenvalues --   -1.59886  -1.39438  -1.19415  -1.08804  -1.08278
 Alpha  occ. eigenvalues --   -1.04810  -1.03381  -0.95855  -0.95624  -0.86863
 Alpha  occ. eigenvalues --   -0.86205  -0.82464  -0.79435  -0.78081  -0.77507
 Alpha  occ. eigenvalues --   -0.72078  -0.71231  -0.70513  -0.65057  -0.64928
 Alpha  occ. eigenvalues --   -0.64801  -0.62159  -0.60789  -0.59277  -0.57502
 Alpha  occ. eigenvalues --   -0.55310  -0.55172  -0.53499  -0.52898  -0.52322
 Alpha  occ. eigenvalues --   -0.52018  -0.49772  -0.48839  -0.48835  -0.47751
 Alpha  occ. eigenvalues --   -0.46469  -0.45630  -0.45554  -0.44825  -0.43632
 Alpha  occ. eigenvalues --   -0.37328  -0.36375
 Alpha virt. eigenvalues --    0.04991   0.11181   0.16476   0.21141   0.22961
 Alpha virt. eigenvalues --    0.24247   0.26262   0.27221   0.27584   0.28007
 Alpha virt. eigenvalues --    0.28494   0.30478   0.31436   0.31679   0.31910

 Mulliken charges:
               1
     1  C   -0.298123
     2  C   -0.299443
     3  C   -0.475614
     4  H    0.149453
     5  H    0.152520
     6  H    0.149937
     7  H    0.151715
     8  H    0.156415
     9  H    0.155076
    10  H    0.159414
    11  C   -0.298164
    12  C   -0.300454
    13  C   -0.477623
    14  H    0.145263
    15  H    0.149547
    16  H    0.149952
    17  H    0.159351
    18  H    0.153896
    19  H    0.148957
    20  H    0.163303
    21  C   -0.170676
    22  C   -0.215349
    23  C   -0.168549
    24  C    0.155121
    25  C   -0.172816
    26  C   -0.216634
    27  H    0.225904
    28  H    0.223352
    29  H    0.275588
    30  H    0.275950
    31  H    0.223809
    32  N    0.489744
    33  O   -0.460575
    34  O   -0.460246
 Sum of Mulliken charges =  -0.00000

 Dipole moment (field-independent basis, Debye):
    X=              1.2527    Y=             -5.0035    Z=              0.3740  Tot=              5.1714
 Quadrupole moment (field-independent basis, Debye-Ang):
   XX=            -87.5542   YY=            -99.6493   ZZ=            -91.5461
   XY=            -13.1172   XZ=             -1.0042   YZ=             -2.1849

 Normal termination of Gaussian 16 at Thu May  6 12:01:48 2021.
