 Gaussian 16, Revision A.03,
 Gaussian 16:  EM64L-G16RevA.03 25-Dec-2016

 -------------
 #p 6-31g* mp2
 -------------

 ------------------------------------------------------
 Input file generated by CHIRIPA (05-May-2021 14:51:07)
 ------------------------------------------------------
 Symbolic Z-matrix:
 Charge =  0 Multiplicity = 1

                         Standard orientation:
 ---------------------------------------------------------------------
 Center     Atomic      Atomic             Coordinates (Angstroms)
 Number     Number       Type             X           Y           Z
 ---------------------------------------------------------------------
      1          6           0       -4.159720   -0.291127   -0.325254
      2          6           0       -5.182852    0.733904    0.165150
      3          6           0       -6.422786    0.804763   -0.726667
      4          1           0       -3.860786   -0.039066   -1.351923
      5          1           0       -4.635729   -1.280370   -0.372255
      6          1           0       -4.704668    1.720672    0.212531
      7          1           0       -5.479241    0.479483    1.190839
      8          1           0       -6.925458   -0.167049   -0.765466
      9          1           0       -6.146484    1.081193   -1.749332
     10          1           0       -7.140941    1.543699   -0.357768
     11          6           0       -2.914578   -0.373588    0.555966
     12          6           0       -1.891445   -1.398619    0.065562
     13          6           0       -0.651511   -1.469478    0.957378
     14          1           0       -2.438568    0.615655    0.602967
     15          1           0       -3.213511   -0.625649    1.582635
     16          1           0       -1.595056   -1.144198   -0.960128
     17          1           0       -2.369629   -2.385387    0.018180
     18          1           0       -0.927814   -1.745908    1.980044
     19          1           0       -0.148839   -0.497667    0.996177
     20          1           0        0.066643   -2.208415    0.588479
     21          6           0        3.201676    0.937942    0.207378
     22          6           0        3.693479    2.273309   -0.352006
     23          6           0        3.013073    3.475412    0.303577
     24          1           0        2.114344    0.867103    0.067244
     25          1           0        3.379275    0.914774    1.291499
     26          1           0        3.516267    2.293393   -1.434968
     27          1           0        4.779794    2.340894   -0.210696
     28          1           0        3.200397    3.483184    1.382211
     29          1           0        1.929691    3.435413    0.150983
     30          1           0        3.379472    4.419640   -0.111206
     31          6           0        3.872621   -0.273227   -0.438090
     32          6           0        3.380819   -1.608593    0.121294
     33          6           0        4.061225   -2.810696   -0.534289
     34          1           0        3.695022   -0.250059   -1.522210
     35          1           0        4.959953   -0.202388   -0.297956
     36          1           0        2.294504   -1.676178   -0.020015
     37          1           0        3.558031   -1.628678    1.204256
     38          1           0        5.144606   -2.770699   -0.381694
     39          1           0        3.873900   -2.818469   -1.612922
     40          1           0        3.694826   -3.754924   -0.119506
 ---------------------------------------------------------------------

 SCF Done:  E(RHF) =  -470.732946973     A.U. after   11 cycles
 E2 =    -0.1582996709D+01 EUMP2 =    -0.47231594368138D+03

 The electronic state is 1-A.
 Alpha  occ. eigenvalues --  -11.21633 -11.21617 -11.21598 -11.21484 -11.21429
 Alpha  occ. eigenvalues --  -11.21379 -11.21370 -11.21314 -11.21084 -11.21081
 Alpha  occ. eigenvalues --  -11.21076 -11.21027  -1.08458  -1.08396  -1.03562
 Alpha  occ. eigenvalues --   -1.03492  -0.96006  -0.95955  -0.87037  -0.86959
 Alpha  occ. eigenvalues --   -0.79667  -0.79521  -0.78284  -0.78189  -0.65121
 Alpha  occ. eigenvalues --   -0.65006  -0.60981  -0.60898  -0.59467  -0.59236
 Alpha  occ. eigenvalues --   -0.57675  -0.57504  -0.55313  -0.55229  -0.52774
 Alpha  occ. eigenvalues --   -0.52620  -0.52447  -0.52346  -0.49961  -0.49893
 Alpha  occ. eigenvalues --   -0.47996  -0.47811  -0.46703  -0.46572  -0.45848
 Alpha  occ. eigenvalues --   -0.45776  -0.45707  -0.45567  -0.43790  -0.43705
 Alpha virt. eigenvalues --    0.21403   0.23159   0.23804   0.24212   0.25953
 Alpha virt. eigenvalues --    0.26830   0.26999   0.27173   0.27800   0.29303
 Alpha virt. eigenvalues --    0.30186   0.31577   0.31593   0.31878   0.32055

 Mulliken charges:
               1
     1  C   -0.298283
     2  C   -0.299671
     3  C   -0.475715
     4  H    0.149538
     5  H    0.149615
     6  H    0.151957
     7  H    0.152027
     8  H    0.155210
     9  H    0.155160
    10  H    0.160336
    11  C   -0.298491
    12  C   -0.299766
    13  C   -0.482379
    14  H    0.149376
    15  H    0.149912
    16  H    0.151432
    17  H    0.152103
    18  H    0.155635
    19  H    0.158503
    20  H    0.164243
    21  C   -0.301249
    22  C   -0.299554
    23  C   -0.475580
    24  H    0.152017
    25  H    0.149739
    26  H    0.151747
    27  H    0.152131
    28  H    0.155339
    29  H    0.154513
    30  H    0.160288
    31  C   -0.297682
    32  C   -0.307315
    33  C   -0.475567
    34  H    0.148923
    35  H    0.149396
    36  H    0.161076
    37  H    0.151629
    38  H    0.155015
    39  H    0.154680
    40  H    0.159716
 Sum of Mulliken charges =  -0.00000

 Dipole moment (field-independent basis, Debye):
    X=             -0.0280    Y=             -0.0068    Z=              0.0195  Tot=              0.0348
 Quadrupole moment (field-independent basis, Debye-Ang):
   XX=            -85.2437   YY=            -85.2709   ZZ=            -84.3876
   XY=              0.9566   XZ=             -0.0792   YZ=             -0.7013

 Normal termination of Gaussian 16 at Wed May  5 22:53:26 2021.
