 Gaussian 16, Revision A.03,
 Gaussian 16:  EM64L-G16RevA.03 25-Dec-2016

 -------------
 #p 6-31g* mp2
 -------------

 ------------------------------------------------------
 Input file generated by CHIRIPA (05-May-2021 14:51:10)
 ------------------------------------------------------
 Symbolic Z-matrix:
 Charge =  0 Multiplicity = 1

                         Standard orientation:
 ---------------------------------------------------------------------
 Center     Atomic      Atomic             Coordinates (Angstroms)
 Number     Number       Type             X           Y           Z
 ---------------------------------------------------------------------
      1          6           0        2.723862   -0.587592   -0.248132
      2          6           0        2.320588   -1.682670    0.739876
      3          6           0        2.347879   -3.079210    0.118003
      4          1           0        2.049272   -0.617891   -1.114708
      5          1           0        3.732178   -0.800584   -0.629352
      6          1           0        1.313885   -1.466933    1.120166
      7          1           0        2.996098   -1.649637    1.604289
      8          1           0        3.352272   -3.319548   -0.245363
      9          1           0        1.660500   -3.135806   -0.732237
     10          1           0        2.056246   -3.846711    0.841710
     11          6           0        2.701437    0.814144    0.358796
     12          6           0        3.104711    1.909221   -0.629211
     13          6           0        3.077420    3.305761   -0.007339
     14          1           0        1.693121    1.027135    0.740016
     15          1           0        3.376027    0.844442    1.225373
     16          1           0        2.429201    1.876188   -1.493625
     17          1           0        4.111414    1.693484   -1.009502
     18          1           0        3.764799    3.362357    0.842901
     19          1           0        2.073027    3.546100    0.356027
     20          1           0        3.369053    4.073263   -0.731045
     21          6           0       -2.355251   -0.675329   -0.429223
     22          6           0       -2.485098   -2.036797    0.254539
     23          6           0       -1.764858   -3.151054   -0.505383
     24          1           0       -2.757276   -0.744605   -1.449284
     25          1           0       -1.290458   -0.423174   -0.529365
     26          1           0       -3.549363   -2.285678    0.354607
     27          1           0       -2.082893   -1.964221    1.273155
     28          1           0       -0.696374   -2.929156   -0.593163
     29          1           0       -2.171177   -3.252440   -1.516929
     30          1           0       -1.870571   -4.115586    0.000939
     31          6           0       -3.070047    0.448778    0.318559
     32          6           0       -2.940202    1.810246   -0.365203
     33          6           0       -3.660441    2.924502    0.394718
     34          1           0       -4.134840    0.196622    0.418701
     35          1           0       -2.668023    0.518054    1.338619
     36          1           0       -3.342407    1.737670   -1.383820
     37          1           0       -1.875937    2.059127   -0.465272
     38          1           0       -3.254123    3.025889    1.406265
     39          1           0       -4.728925    2.702605    0.482498
     40          1           0       -3.554728    3.889035   -0.111603
 ---------------------------------------------------------------------

 SCF Done:  E(RHF) =  -470.733223274     A.U. after   11 cycles
 E2 =    -0.1583467993D+01 EUMP2 =    -0.47231669126714D+03

 The electronic state is 1-A.
 Alpha  occ. eigenvalues --  -11.21663 -11.21650 -11.21641 -11.21627 -11.21463
 Alpha  occ. eigenvalues --  -11.21456 -11.21404 -11.21396 -11.21104 -11.21103
 Alpha  occ. eigenvalues --  -11.21090 -11.21039  -1.08498  -1.08460  -1.03604
 Alpha  occ. eigenvalues --   -1.03533  -0.96064  -0.95968  -0.87087  -0.86977
 Alpha  occ. eigenvalues --   -0.79670  -0.79591  -0.78299  -0.78284  -0.65284
 Alpha  occ. eigenvalues --   -0.64957  -0.61229  -0.60732  -0.59396  -0.59363
 Alpha  occ. eigenvalues --   -0.57663  -0.57594  -0.55598  -0.55033  -0.52729
 Alpha  occ. eigenvalues --   -0.52677  -0.52510  -0.52364  -0.50192  -0.49709
 Alpha  occ. eigenvalues --   -0.48040  -0.47848  -0.46774  -0.46539  -0.45949
 Alpha  occ. eigenvalues --   -0.45796  -0.45757  -0.45647  -0.43840  -0.43808
 Alpha virt. eigenvalues --    0.18974   0.22674   0.23644   0.25239   0.25599
 Alpha virt. eigenvalues --    0.26493   0.26915   0.27731   0.29010   0.29877
 Alpha virt. eigenvalues --    0.30113   0.31115   0.31516   0.31881   0.32211

 Mulliken charges:
               1
     1  C   -0.298891
     2  C   -0.302373
     3  C   -0.478517
     4  H    0.149931
     5  H    0.150085
     6  H    0.152713
     7  H    0.152561
     8  H    0.155748
     9  H    0.157825
    10  H    0.160995
    11  C   -0.298628
    12  C   -0.299780
    13  C   -0.475698
    14  H    0.148940
    15  H    0.149958
    16  H    0.152168
    17  H    0.152165
    18  H    0.155267
    19  H    0.155027
    20  H    0.160519
    21  C   -0.300058
    22  C   -0.299347
    23  C   -0.482838
    24  H    0.149945
    25  H    0.149624
    26  H    0.152100
    27  H    0.151874
    28  H    0.163122
    29  H    0.154766
    30  H    0.160486
    31  C   -0.298256
    32  C   -0.299604
    33  C   -0.475773
    34  H    0.149913
    35  H    0.149602
    36  H    0.152150
    37  H    0.151195
    38  H    0.155258
    39  H    0.155376
    40  H    0.160447
 Sum of Mulliken charges =  -0.00000

 Dipole moment (field-independent basis, Debye):
    X=              0.0173    Y=             -0.0114    Z=             -0.0027  Tot=              0.0209
 Quadrupole moment (field-independent basis, Debye-Ang):
   XX=            -83.1941   YY=            -86.6490   ZZ=            -84.7011
   XY=              0.4120   XZ=              0.9367   YZ=             -0.6579

 Normal termination of Gaussian 16 at Wed May  5 19:48:15 2021.
