 Gaussian 16, Revision A.03,
 Gaussian 16:  EM64L-G16RevA.03 25-Dec-2016

 -------------
 #p 6-31g* mp2
 -------------

 ------------------------------------------------------
 Input file generated by CHIRIPA (05-May-2021 14:53:16)
 ------------------------------------------------------
 Symbolic Z-matrix:
 Charge =  0 Multiplicity = 1

                         Standard orientation:
 ---------------------------------------------------------------------
 Center     Atomic      Atomic             Coordinates (Angstroms)
 Number     Number       Type             X           Y           Z
 ---------------------------------------------------------------------
      1          6           0       -4.038451   -0.870545   -0.083738
      2          6           0       -2.635579   -0.337910   -0.377396
      3          6           0       -1.629419   -1.451665   -0.668921
      4          1           0       -3.991219   -1.557305    0.772460
      5          1           0       -4.384879   -1.463643   -0.941419
      6          1           0       -2.292457    0.255156    0.480017
      7          1           0       -2.686188    0.347810   -1.232873
      8          1           0       -1.945379   -2.038641   -1.537385
      9          1           0       -1.549411   -2.131822    0.185237
     10          1           0       -0.633196   -1.048588   -0.876113
     11          6           0       -5.055535    0.230910    0.209633
     12          6           0       -6.458407   -0.301724    0.503291
     13          6           0       -7.464567    0.812030    0.794817
     14          1           0       -4.709107    0.824008    1.067315
     15          1           0       -5.102768    0.917671   -0.646564
     16          1           0       -6.407798   -0.987445    1.358769
     17          1           0       -6.801529   -0.894791   -0.354121
     18          1           0       -7.544576    1.492187   -0.059341
     19          1           0       -7.148607    1.399006    1.663281
     20          1           0       -8.460791    0.408954    1.002009
     21          6           0        5.419695   -0.983837    1.115682
     22          6           0        4.659722   -1.628998    0.134496
     23          6           0        3.622650   -0.955212   -0.517457
     24          6           0        3.371809    0.369126   -0.161792
     25          6           0        4.111236    1.039231    0.811603
     26          6           0        5.143514    0.345874    1.450514
     27          1           0        6.223456   -1.514851    1.617069
     28          1           0        4.871959   -2.661625   -0.127579
     29          1           0        3.018640   -1.430574   -1.280751
     30          1           0        3.875961    2.069078    1.051350
     31          1           0        5.732077    0.849442    2.212129
     32          7           0        2.276445    1.092793   -0.845082
     33          8           0        2.075468    2.259136   -0.513589
     34          8           0        1.639617    0.479956   -1.699201
 ---------------------------------------------------------------------

 SCF Done:  E(RHF) =  -669.536350001     A.U. after   15 cycles
 E2 =    -0.2090811617D+01 EUMP2 =    -0.67162716161867D+03

 The electronic state is 1-A.
 Alpha  occ. eigenvalues --  -20.60970 -20.60959 -15.85985 -11.31283 -11.27847
 Alpha  occ. eigenvalues --  -11.27841 -11.27583 -11.26851 -11.26840 -11.21119
 Alpha  occ. eigenvalues --  -11.20774 -11.20682 -11.20651 -11.20622 -11.20020
 Alpha  occ. eigenvalues --   -1.60019  -1.39577  -1.19452  -1.08861  -1.07750
 Alpha  occ. eigenvalues --   -1.04845  -1.02812  -0.95708  -0.95271  -0.86298
 Alpha  occ. eigenvalues --   -0.86247  -0.82541  -0.78894  -0.77598  -0.77543
 Alpha  occ. eigenvalues --   -0.72211  -0.71328  -0.70562  -0.65109  -0.64849
 Alpha  occ. eigenvalues --   -0.64390  -0.62193  -0.60222  -0.58639  -0.56850
 Alpha  occ. eigenvalues --   -0.55353  -0.54584  -0.53179  -0.52937  -0.51943
 Alpha  occ. eigenvalues --   -0.51700  -0.49249  -0.48976  -0.48960  -0.47208
 Alpha  occ. eigenvalues --   -0.45944  -0.45102  -0.45014  -0.44958  -0.43030
 Alpha  occ. eigenvalues --   -0.37430  -0.36445
 Alpha virt. eigenvalues --    0.04889   0.11205   0.16353   0.21308   0.23508
 Alpha virt. eigenvalues --    0.25036   0.27201   0.27300   0.27943   0.28188
 Alpha virt. eigenvalues --    0.28853   0.30669   0.31938   0.32062   0.32460

 Mulliken charges:
               1
     1  C   -0.297772
     2  C   -0.297337
     3  C   -0.486000
     4  H    0.146187
     5  H    0.147761
     6  H    0.150983
     7  H    0.157592
     8  H    0.151205
     9  H    0.145994
    10  H    0.178732
    11  C   -0.297847
    12  C   -0.299059
    13  C   -0.475347
    14  H    0.149046
    15  H    0.150671
    16  H    0.150309
    17  H    0.151076
    18  H    0.155380
    19  H    0.154672
    20  H    0.158474
    21  C   -0.170547
    22  C   -0.218544
    23  C   -0.170728
    24  C    0.158289
    25  C   -0.170826
    26  C   -0.218598
    27  H    0.225983
    28  H    0.223984
    29  H    0.276290
    30  H    0.275762
    31  H    0.223766
    32  N    0.488436
    33  O   -0.458191
    34  O   -0.459792
 Sum of Mulliken charges =  -0.00000

 Dipole moment (field-independent basis, Debye):
    X=              4.1284    Y=             -2.4327    Z=              2.3475  Tot=              5.3360
 Quadrupole moment (field-independent basis, Debye-Ang):
   XX=            -70.5092   YY=            -94.2167   ZZ=            -93.6786
   XY=             -6.1479   XZ=              8.9917   YZ=              3.6503

 Normal termination of Gaussian 16 at Thu May  6 17:12:15 2021.
