 Gaussian 16, Revision A.03,
 Gaussian 16:  EM64L-G16RevA.03 25-Dec-2016

 -------------
 #p 6-31g* mp2
 -------------

 ------------------------------------------------------
 Input file generated by CHIRIPA (05-May-2021 14:53:14)
 ------------------------------------------------------
 Symbolic Z-matrix:
 Charge =  0 Multiplicity = 1

                         Standard orientation:
 ---------------------------------------------------------------------
 Center     Atomic      Atomic             Coordinates (Angstroms)
 Number     Number       Type             X           Y           Z
 ---------------------------------------------------------------------
      1          6           0       -3.429094    1.130731   -0.480092
      2          6           0       -2.301992    1.850912    0.260831
      3          6           0       -1.870069    3.143380   -0.432540
      4          1           0       -3.101537    0.907091   -1.504610
      5          1           0       -4.291082    1.806482   -0.568019
      6          1           0       -1.442882    1.173527    0.348551
      7          1           0       -2.632201    2.072693    1.283764
      8          1           0       -2.711072    3.840385   -0.506688
      9          1           0       -1.514997    2.936110   -1.447214
     10          1           0       -1.063428    3.641919    0.113948
     11          6           0       -3.871845   -0.163115    0.200835
     12          6           0       -4.998947   -0.883297   -0.540087
     13          6           0       -5.430870   -2.175765    0.153283
     14          1           0       -3.009857   -0.838866    0.288763
     15          1           0       -4.199401    0.060524    1.225353
     16          1           0       -4.668738   -1.105078   -1.563020
     17          1           0       -5.858057   -0.205911   -0.627808
     18          1           0       -5.785942   -1.968495    1.167958
     19          1           0       -4.589867   -2.872770    0.227431
     20          1           0       -6.237511   -2.674304   -0.393205
     21          6           0        0.473677   -0.792968    0.842311
     22          6           0        1.384281   -0.199761    1.722895
     23          6           0        2.704521    0.034917    1.327366
     24          6           0        3.081850   -0.337855    0.038199
     25          6           0        2.197982   -0.930699   -0.862135
     26          6           0        0.882712   -1.155903   -0.445124
     27          1           0       -0.549986   -0.971592    1.157911
     28          1           0        1.069412    0.083133    2.723332
     29          1           0        3.430117    0.492553    1.988802
     30          1           0        2.541293   -1.201817   -1.853120
     31          1           0        0.177689   -1.616764   -1.131123
     32          7           0        4.476897   -0.094426   -0.391901
     33          8           0        4.784474   -0.432030   -1.532978
     34          8           0        5.236342    0.429367    0.420208
 ---------------------------------------------------------------------

 SCF Done:  E(RHF) =  -669.534737556     A.U. after   15 cycles
 E2 =    -0.2092945734D+01 EUMP2 =    -0.67162768329056D+03

 The electronic state is 1-A.
 Alpha  occ. eigenvalues --  -20.60788 -20.60782 -15.85843 -11.31223 -11.27803
 Alpha  occ. eigenvalues --  -11.27794 -11.27510 -11.26820 -11.26800 -11.22461
 Alpha  occ. eigenvalues --  -11.22401 -11.22262 -11.22160 -11.21835 -11.21577
 Alpha  occ. eigenvalues --   -1.59863  -1.39416  -1.19407  -1.09283  -1.08798
 Alpha  occ. eigenvalues --   -1.04807  -1.04265  -0.96717  -0.95635  -0.87726
 Alpha  occ. eigenvalues --   -0.86204  -0.82467  -0.80350  -0.79128  -0.77498
 Alpha  occ. eigenvalues --   -0.72060  -0.71187  -0.70545  -0.65919  -0.65054
 Alpha  occ. eigenvalues --   -0.64798  -0.62151  -0.61672  -0.60089  -0.58337
 Alpha  occ. eigenvalues --   -0.56020  -0.55333  -0.53374  -0.53196  -0.53091
 Alpha  occ. eigenvalues --   -0.52897  -0.50657  -0.48822  -0.48814  -0.48656
 Alpha  occ. eigenvalues --   -0.47398  -0.46618  -0.46560  -0.44819  -0.44553
 Alpha  occ. eigenvalues --   -0.37301  -0.36416
 Alpha virt. eigenvalues --    0.04994   0.11218   0.16381   0.19457   0.22709
 Alpha virt. eigenvalues --    0.23670   0.25003   0.26113   0.27079   0.27512
 Alpha virt. eigenvalues --    0.30175   0.30798   0.30997   0.31232   0.31580

 Mulliken charges:
               1
     1  C   -0.298215
     2  C   -0.308524
     3  C   -0.474734
     4  H    0.149880
     5  H    0.153312
     6  H    0.154262
     7  H    0.150108
     8  H    0.156404
     9  H    0.156965
    10  H    0.162445
    11  C   -0.300212
    12  C   -0.299898
    13  C   -0.475984
    14  H    0.137998
    15  H    0.151704
    16  H    0.152517
    17  H    0.155852
    18  H    0.156474
    19  H    0.152506
    20  H    0.163609
    21  C   -0.173759
    22  C   -0.219973
    23  C   -0.170479
    24  C    0.158580
    25  C   -0.170473
    26  C   -0.220934
    27  H    0.233776
    28  H    0.224638
    29  H    0.275815
    30  H    0.275773
    31  H    0.223160
    32  N    0.488043
    33  O   -0.460365
    34  O   -0.460272
 Sum of Mulliken charges =  -0.00000

 Dipole moment (field-independent basis, Debye):
    X=             -5.0070    Y=             -0.7997    Z=              1.4893  Tot=              5.2847
 Quadrupole moment (field-independent basis, Debye-Ang):
   XX=           -124.5120   YY=            -94.5846   ZZ=            -90.5700
   XY=             -1.3211   XZ=              5.5244   YZ=              2.1215

 Normal termination of Gaussian 16 at Thu May  6 07:25:22 2021.
