 Gaussian 16, Revision A.03,
 Gaussian 16:  EM64L-G16RevA.03 25-Dec-2016

 -------------
 #p 6-31g* mp2
 -------------

 ------------------------------------------------------
 Input file generated by CHIRIPA (05-May-2021 14:51:11)
 ------------------------------------------------------
 Symbolic Z-matrix:
 Charge =  0 Multiplicity = 1

                         Standard orientation:
 ---------------------------------------------------------------------
 Center     Atomic      Atomic             Coordinates (Angstroms)
 Number     Number       Type             X           Y           Z
 ---------------------------------------------------------------------
      1          6           0       -1.836303   -1.351100    0.517108
      2          6           0       -1.032744   -2.516445   -0.061034
      3          6           0       -0.096595   -3.155632    0.965056
      4          1           0       -1.142746   -0.592658    0.905297
      5          1           0       -2.421244   -1.708503    1.375887
      6          1           0       -0.450555   -2.157258   -0.919321
      7          1           0       -1.728293   -3.272113   -0.448064
      8          1           0       -0.665034   -3.540833    1.817757
      9          1           0        0.619964   -2.419643    1.343822
     10          1           0        0.468063   -3.986445    0.530577
     11          6           0       -2.776747   -0.701767   -0.496627
     12          6           0       -3.580306    0.463578    0.081515
     13          6           0       -4.516455    1.102765   -0.944575
     14          1           0       -2.191806   -0.344364   -1.355407
     15          1           0       -3.470304   -1.460208   -0.884816
     16          1           0       -2.884757    1.219247    0.468545
     17          1           0       -4.162495    0.104391    0.939802
     18          1           0       -5.233014    0.366777   -1.323342
     19          1           0       -3.948016    1.487966   -1.797276
     20          1           0       -5.081113    1.933578   -0.510096
     21          6           0        2.621017    0.347412    0.142914
     22          6           0        3.655803   -0.089425   -0.894571
     23          6           0        4.276066   -1.449774   -0.574384
     24          1           0        3.096205    0.383347    1.132788
     25          1           0        1.829525   -0.412364    0.203547
     26          1           0        4.444391    0.671617   -0.954225
     27          1           0        3.178144   -0.124139   -1.882120
     28          1           0        3.504341   -2.225321   -0.534787
     29          1           0        4.777782   -1.425042    0.398380
     30          1           0        5.012924   -1.742599   -1.328806
     31          6           0        1.992033    1.705455   -0.163395
     32          6           0        0.957247    2.142291    0.874091
     33          6           0        0.336984    3.502640    0.553903
     34          1           0        2.783525    2.465230   -0.224028
     35          1           0        1.516845    1.669520   -1.153269
     36          1           0        1.434905    2.177005    1.861640
     37          1           0        0.168659    1.381248    0.933745
     38          1           0       -0.164732    3.477908   -0.418862
     39          1           0        1.108710    4.278187    0.514307
     40          1           0       -0.399874    3.795466    1.308325
 ---------------------------------------------------------------------

 SCF Done:  E(RHF) =  -470.733129333     A.U. after   11 cycles
 E2 =    -0.1584594126D+01 EUMP2 =    -0.47231772345881D+03

 The electronic state is 1-A.
 Alpha  occ. eigenvalues --  -11.21662 -11.21659 -11.21638 -11.21628 -11.21465
 Alpha  occ. eigenvalues --  -11.21446 -11.21405 -11.21386 -11.21135 -11.21099
 Alpha  occ. eigenvalues --  -11.21090 -11.21078  -1.08522  -1.08447  -1.03588
 Alpha  occ. eigenvalues --   -1.03561  -0.96032  -0.96011  -0.87053  -0.87020
 Alpha  occ. eigenvalues --   -0.79652  -0.79629  -0.78403  -0.78202  -0.65429
 Alpha  occ. eigenvalues --   -0.64831  -0.61080  -0.60880  -0.59397  -0.59384
 Alpha  occ. eigenvalues --   -0.57673  -0.57591  -0.55375  -0.55251  -0.52720
 Alpha  occ. eigenvalues --   -0.52706  -0.52507  -0.52382  -0.50048  -0.49891
 Alpha  occ. eigenvalues --   -0.47965  -0.47963  -0.46828  -0.46671  -0.46179
 Alpha  occ. eigenvalues --   -0.45816  -0.45781  -0.45179  -0.43833  -0.43821
 Alpha virt. eigenvalues --    0.19056   0.21710   0.24016   0.24548   0.26037
 Alpha virt. eigenvalues --    0.26601   0.26905   0.27423   0.28112   0.30306
 Alpha virt. eigenvalues --    0.31231   0.31492   0.31543   0.31819   0.32214

 Mulliken charges:
               1
     1  C   -0.308073
     2  C   -0.299768
     3  C   -0.480064
     4  H    0.157872
     5  H    0.150208
     6  H    0.151239
     7  H    0.152574
     8  H    0.155700
     9  H    0.159047
    10  H    0.160311
    11  C   -0.297629
    12  C   -0.301796
    13  C   -0.475558
    14  H    0.148817
    15  H    0.150001
    16  H    0.153692
    17  H    0.152128
    18  H    0.155231
    19  H    0.155019
    20  H    0.160534
    21  C   -0.306112
    22  C   -0.299277
    23  C   -0.476681
    24  H    0.149827
    25  H    0.156454
    26  H    0.152185
    27  H    0.151684
    28  H    0.156472
    29  H    0.155257
    30  H    0.160313
    31  C   -0.297308
    32  C   -0.309878
    33  C   -0.475349
    34  H    0.150077
    35  H    0.149114
    36  H    0.152438
    37  H    0.160076
    38  H    0.155049
    39  H    0.155647
    40  H    0.160527
 Sum of Mulliken charges =  -0.00000

 Dipole moment (field-independent basis, Debye):
    X=              0.0018    Y=              0.0023    Z=              0.0186  Tot=              0.0188
 Quadrupole moment (field-independent basis, Debye-Ang):
   XX=            -84.4214   YY=            -85.3778   ZZ=            -84.8118
   XY=              1.7733   XZ=             -0.3157   YZ=              0.5119

 Normal termination of Gaussian 16 at Wed May  5 23:05:26 2021.
