 Gaussian 16, Revision A.03,
 Gaussian 16:  EM64L-G16RevA.03 25-Dec-2016

 -------------
 #p 6-31g* mp2
 -------------

 ------------------------------------------------------
 Input file generated by CHIRIPA (05-May-2021 14:55:22)
 ------------------------------------------------------
 Symbolic Z-matrix:
 Charge =  0 Multiplicity = 1

                         Standard orientation:
 ---------------------------------------------------------------------
 Center     Atomic      Atomic             Coordinates (Angstroms)
 Number     Number       Type             X           Y           Z
 ---------------------------------------------------------------------
      1          6           0       -2.493516    2.230536    0.421198
      2          6           0       -1.753337    1.730600   -0.655241
      3          6           0       -1.730194    0.359000   -0.924916
      4          6           0       -2.462070   -0.487895   -0.094003
      5          6           0       -3.209152   -0.020276    0.986038
      6          6           0       -3.217785    1.355046    1.236964
      7          1           0       -2.505859    3.297474    0.623406
      8          1           0       -1.189911    2.408170   -1.290453
      9          1           0       -1.165664   -0.054928   -1.751589
     10          1           0       -3.760795   -0.720443    1.601566
     11          1           0       -3.793507    1.740484    2.073639
     12          7           0       -2.445250   -1.941917   -0.369572
     13          8           0       -3.098484   -2.667152    0.377393
     14          8           0       -1.779151   -2.328812   -1.327310
     15          6           0        3.190092    1.080618    0.046136
     16          6           0        1.861427    1.741109   -0.323170
     17          6           0        1.947622    3.267406   -0.351111
     18          1           0        3.514733    1.449013    1.028907
     19          1           0        3.959176    1.392236   -0.674140
     20          1           0        1.094759    1.427243    0.396780
     21          1           0        1.539815    1.370954   -1.305089
     22          1           0        2.692181    3.597882   -1.082562
     23          1           0        2.244597    3.654492    0.628976
     24          1           0        0.986842    3.718964   -0.617300
     25          6           0        3.119905   -0.445085    0.078245
     26          6           0        4.448569   -1.105577    0.447550
     27          6           0        4.362373   -2.631874    0.475493
     28          1           0        2.350819   -0.756704    0.798521
     29          1           0        2.795263   -0.813481   -0.904525
     30          1           0        4.770180   -0.735421    1.429470
     31          1           0        5.215237   -0.791711   -0.272398
     32          1           0        4.065400   -3.018959   -0.504595
     33          1           0        3.617814   -2.962349    1.206943
     34          1           0        5.323153   -3.083431    0.741682
 ---------------------------------------------------------------------

 SCF Done:  E(RHF) =  -669.534863610     A.U. after   15 cycles
 E2 =    -0.2092871787D+01 EUMP2 =    -0.67162773539630D+03

 The electronic state is 1-A.
 Alpha  occ. eigenvalues --  -20.60759 -20.60754 -15.85812 -11.31177 -11.27737
 Alpha  occ. eigenvalues --  -11.27724 -11.27479 -11.26766 -11.26729 -11.22087
 Alpha  occ. eigenvalues --  -11.21818 -11.21660 -11.21585 -11.21431 -11.20898
 Alpha  occ. eigenvalues --   -1.59834  -1.39387  -1.19352  -1.08756  -1.08647
 Alpha  occ. eigenvalues --   -1.04760  -1.03779  -0.96233  -0.95580  -0.87246
 Alpha  occ. eigenvalues --   -0.86149  -0.82418  -0.79876  -0.78426  -0.77445
 Alpha  occ. eigenvalues --   -0.72030  -0.71157  -0.70454  -0.65285  -0.64999
 Alpha  occ. eigenvalues --   -0.64780  -0.62143  -0.61173  -0.59647  -0.57835
 Alpha  occ. eigenvalues --   -0.55500  -0.55247  -0.53131  -0.52992  -0.52835
 Alpha  occ. eigenvalues --   -0.52565  -0.50152  -0.48789  -0.48785  -0.48176
 Alpha  occ. eigenvalues --   -0.46892  -0.45967  -0.45855  -0.44791  -0.44030
 Alpha  occ. eigenvalues --   -0.37333  -0.36278
 Alpha virt. eigenvalues --    0.05070   0.11223   0.16524   0.19926   0.22895
 Alpha virt. eigenvalues --    0.24070   0.25566   0.26308   0.26876   0.28541
 Alpha virt. eigenvalues --    0.28918   0.30459   0.31176   0.31491   0.32261

 Mulliken charges:
               1
     1  C   -0.173118
     2  C   -0.215795
     3  C   -0.169764
     4  C    0.157935
     5  C   -0.171624
     6  C   -0.218642
     7  H    0.225569
     8  H    0.226812
     9  H    0.275534
    10  H    0.275424
    11  H    0.223330
    12  N    0.488126
    13  O   -0.460594
    14  O   -0.460307
    15  C   -0.298433
    16  C   -0.302978
    17  C   -0.476077
    18  H    0.150060
    19  H    0.149689
    20  H    0.159250
    21  H    0.144826
    22  H    0.158479
    23  H    0.158298
    24  H    0.148071
    25  C   -0.299127
    26  C   -0.300050
    27  C   -0.476111
    28  H    0.151542
    29  H    0.152012
    30  H    0.151054
    31  H    0.151307
    32  H    0.158066
    33  H    0.157430
    34  H    0.159809
 Sum of Mulliken charges =  -0.00000

 Dipole moment (field-independent basis, Debye):
    X=              0.0053    Y=              5.0280    Z=              1.0136  Tot=              5.1292
 Quadrupole moment (field-independent basis, Debye-Ang):
   XX=            -93.0131   YY=           -101.6854   ZZ=            -91.2667
   XY=            -12.2353   XZ=             -5.3778   YZ=             -1.4103

 Normal termination of Gaussian 16 at Thu May  6 03:02:58 2021.
