 Gaussian 16, Revision A.03,
 Gaussian 16:  EM64L-G16RevA.03 25-Dec-2016

 -------------
 #p 6-31g* mp2
 -------------

 ------------------------------------------------------
 Input file generated by CHIRIPA (05-May-2021 14:51:08)
 ------------------------------------------------------
 Symbolic Z-matrix:
 Charge =  0 Multiplicity = 1

                         Standard orientation:
 ---------------------------------------------------------------------
 Center     Atomic      Atomic             Coordinates (Angstroms)
 Number     Number       Type             X           Y           Z
 ---------------------------------------------------------------------
      1          6           0       -2.375274   -0.273203    0.664417
      2          6           0       -2.421827   -1.724481    0.185240
      3          6           0       -2.403551   -2.728570    1.338177
      4          1           0       -1.470850   -0.122385    1.269574
      5          1           0       -3.230489   -0.086026    1.328470
      6          1           0       -1.567547   -1.908476   -0.478814
      7          1           0       -3.326148   -1.871812   -0.419007
      8          1           0       -3.263597   -2.573606    1.997654
      9          1           0       -1.495003   -2.610478    1.937507
     10          1           0       -2.437468   -3.759778    0.973049
     11          6           0       -2.392906    0.742386   -0.476633
     12          6           0       -2.346354    2.193664    0.002544
     13          6           0       -2.364629    3.197752   -1.150394
     14          1           0       -1.537691    0.555209   -1.140687
     15          1           0       -3.297331    0.591568   -1.081790
     16          1           0       -1.442033    2.340995    0.606790
     17          1           0       -3.200634    2.377659    0.666597
     18          1           0       -3.273178    3.079661   -1.749723
     19          1           0       -1.504584    3.042789   -1.809870
     20          1           0       -2.330713    4.228961   -0.785265
     21          6           0        2.873534    0.243823    0.245219
     22          6           0        2.361789    1.682771    0.319574
     23          6           0        3.352059    2.627923    1.000638
     24          1           0        3.086405   -0.115863    1.261220
     25          1           0        3.828569    0.229294   -0.298005
     26          1           0        1.407314    1.694399    0.861293
     27          1           0        2.149930    2.039008   -0.696708
     28          1           0        4.302782    2.645998    0.458052
     29          1           0        3.555947    2.299430    2.024904
     30          1           0        2.966115    3.651209    1.043016
     31          6           0        1.894646   -0.713006   -0.433003
     32          6           0        2.406392   -2.151954   -0.507358
     33          6           0        1.416122   -3.097106   -1.188421
     34          1           0        0.939611   -0.698477    0.110221
     35          1           0        1.681776   -0.353320   -1.449003
     36          1           0        2.618250   -2.508191    0.508923
     37          1           0        3.360866   -2.163582   -1.049077
     38          1           0        1.212234   -2.768613   -2.212689
     39          1           0        0.465399   -3.115180   -0.645835
     40          1           0        1.802066   -4.120391   -1.230801
 ---------------------------------------------------------------------

 SCF Done:  E(RHF) =  -470.733053100     A.U. after   11 cycles
 E2 =    -0.1584879065D+01 EUMP2 =    -0.47231793216505D+03

 The electronic state is 1-A.
 Alpha  occ. eigenvalues --  -11.21690 -11.21665 -11.21569 -11.21567 -11.21490
 Alpha  occ. eigenvalues --  -11.21430 -11.21392 -11.21314 -11.21128 -11.21105
 Alpha  occ. eigenvalues --  -11.21099 -11.21041  -1.08531  -1.08397  -1.03617
 Alpha  occ. eigenvalues --   -1.03504  -0.96062  -0.95958  -0.87064  -0.86987
 Alpha  occ. eigenvalues --   -0.79681  -0.79572  -0.78347  -0.78215  -0.65367
 Alpha  occ. eigenvalues --   -0.64847  -0.61202  -0.60747  -0.59408  -0.59334
 Alpha  occ. eigenvalues --   -0.57702  -0.57550  -0.55472  -0.55128  -0.52733
 Alpha  occ. eigenvalues --   -0.52665  -0.52485  -0.52380  -0.50010  -0.49917
 Alpha  occ. eigenvalues --   -0.48134  -0.47779  -0.46741  -0.46592  -0.46135
 Alpha  occ. eigenvalues --   -0.45883  -0.45571  -0.45370  -0.43855  -0.43766
 Alpha virt. eigenvalues --    0.19124   0.21828   0.23728   0.24644   0.25513
 Alpha virt. eigenvalues --    0.26227   0.26683   0.27743   0.28272   0.30138
 Alpha virt. eigenvalues --    0.31243   0.31552   0.31706   0.31845   0.32209

 Mulliken charges:
               1
     1  C   -0.299464
     2  C   -0.308012
     3  C   -0.476059
     4  H    0.149232
     5  H    0.149828
     6  H    0.159225
     7  H    0.152500
     8  H    0.155657
     9  H    0.154112
    10  H    0.160676
    11  C   -0.299912
    12  C   -0.301846
    13  C   -0.475562
    14  H    0.152378
    15  H    0.149486
    16  H    0.154038
    17  H    0.151577
    18  H    0.154974
    19  H    0.155397
    20  H    0.160031
    21  C   -0.298107
    22  C   -0.302713
    23  C   -0.475704
    24  H    0.149788
    25  H    0.150151
    26  H    0.153810
    27  H    0.152063
    28  H    0.155518
    29  H    0.155361
    30  H    0.160679
    31  C   -0.305256
    32  C   -0.299392
    33  C   -0.482281
    34  H    0.155878
    35  H    0.149571
    36  H    0.151976
    37  H    0.152299
    38  H    0.154920
    39  H    0.162402
    40  H    0.160782
 Sum of Mulliken charges =  -0.00000

 Dipole moment (field-independent basis, Debye):
    X=              0.0288    Y=             -0.0113    Z=             -0.0139  Tot=              0.0339
 Quadrupole moment (field-independent basis, Debye-Ang):
   XX=            -83.8816   YY=            -86.0777   ZZ=            -84.7120
   XY=             -0.3700   XZ=             -0.6844   YZ=              0.0696

 Normal termination of Gaussian 16 at Wed May  5 19:40:04 2021.
