 Gaussian 16, Revision A.03,
 Gaussian 16:  EM64L-G16RevA.03 25-Dec-2016

 -------------
 #p 6-31g* mp2
 -------------

 ------------------------------------------------------
 Input file generated by CHIRIPA (05-May-2021 14:55:22)
 ------------------------------------------------------
 Symbolic Z-matrix:
 Charge =  0 Multiplicity = 1

                         Standard orientation:
 ---------------------------------------------------------------------
 Center     Atomic      Atomic             Coordinates (Angstroms)
 Number     Number       Type             X           Y           Z
 ---------------------------------------------------------------------
      1          6           0        0.017167   -1.811705    0.642128
      2          6           0        0.783961   -2.178901   -0.468600
      3          6           0        1.986778   -1.523774   -0.748938
      4          6           0        2.394607   -0.501339    0.106393
      5          6           0        1.652810   -0.112539    1.220782
      6          6           0        0.453270   -0.781512    1.481794
      7          1           0       -0.915937   -2.326001    0.852395
      8          1           0        0.447744   -2.978595   -1.122429
      9          1           0        2.599974   -1.787791   -1.601993
     10          1           0        2.013960    0.688506    1.854277
     11          1           0       -0.140180   -0.494220    2.345115
     12          7           0        3.666240    0.199544   -0.180158
     13          8           0        4.003593    1.097043    0.588818
     14          8           0        4.301515   -0.161876   -1.168307
     15          6           0       -3.014193    0.123798   -0.501481
     16          6           0       -4.104799   -0.584204    0.303065
     17          6           0       -4.529075   -1.914723   -0.319433
     18          1           0       -3.375000    0.294711   -1.524981
     19          1           0       -2.141151   -0.538271   -0.584301
     20          1           0       -4.975004    0.079544    0.385522
     21          1           0       -3.741425   -0.753281    1.324822
     22          1           0       -3.676176   -2.597810   -0.386939
     23          1           0       -4.916765   -1.760254   -1.331577
     24          1           0       -5.309492   -2.403836    0.271818
     25          6           0       -2.579474    1.455346    0.108214
     26          6           0       -1.488867    2.163347   -0.696333
     27          6           0       -1.064592    3.493866   -0.073836
     28          1           0       -3.452516    2.117414    0.191033
     29          1           0       -2.218666    1.284432    1.131713
     30          1           0       -1.852241    2.332423   -1.718090
     31          1           0       -0.618662    1.499599   -0.778790
     32          1           0       -0.676902    3.339397    0.938309
     33          1           0       -1.917490    4.176953   -0.006328
     34          1           0       -0.284175    3.982979   -0.665086
 ---------------------------------------------------------------------

 SCF Done:  E(RHF) =  -669.534834986     A.U. after   15 cycles
 E2 =    -0.2094704506D+01 EUMP2 =    -0.67162953949234D+03

 The electronic state is 1-A.
 Alpha  occ. eigenvalues --  -20.60852 -20.60847 -15.85909 -11.31324 -11.27909
 Alpha  occ. eigenvalues --  -11.27896 -11.27640 -11.26920 -11.26905 -11.22401
 Alpha  occ. eigenvalues --  -11.21970 -11.21919 -11.21860 -11.21793 -11.21249
 Alpha  occ. eigenvalues --   -1.59927  -1.39479  -1.19513  -1.09032  -1.08843
 Alpha  occ. eigenvalues --   -1.04913  -1.04057  -0.96510  -0.95721  -0.87526
 Alpha  occ. eigenvalues --   -0.86306  -0.82549  -0.80129  -0.78758  -0.77580
 Alpha  occ. eigenvalues --   -0.72125  -0.71252  -0.70642  -0.65688  -0.65156
 Alpha  occ. eigenvalues --   -0.64866  -0.62251  -0.61479  -0.59889  -0.58100
 Alpha  occ. eigenvalues --   -0.55845  -0.55411  -0.53312  -0.53135  -0.53008
 Alpha  occ. eigenvalues --   -0.52909  -0.50485  -0.48889  -0.48877  -0.48442
 Alpha  occ. eigenvalues --   -0.47200  -0.46299  -0.46165  -0.44874  -0.44288
 Alpha  occ. eigenvalues --   -0.37393  -0.36500
 Alpha virt. eigenvalues --    0.04915   0.11047   0.16286   0.18917   0.22858
 Alpha virt. eigenvalues --    0.23434   0.25268   0.26130   0.27463   0.28273
 Alpha virt. eigenvalues --    0.28898   0.30446   0.31180   0.31389   0.32091

 Mulliken charges:
               1
     1  C   -0.173681
     2  C   -0.219115
     3  C   -0.170258
     4  C    0.158510
     5  C   -0.171542
     6  C   -0.217101
     7  H    0.230559
     8  H    0.224620
     9  H    0.276416
    10  H    0.276485
    11  H    0.224559
    12  N    0.488081
    13  O   -0.459882
    14  O   -0.459998
    15  C   -0.305568
    16  C   -0.300555
    17  C   -0.474819
    18  H    0.151980
    19  H    0.152399
    20  H    0.156482
    21  H    0.144230
    22  H    0.145419
    23  H    0.159697
    24  H    0.162887
    25  C   -0.295518
    26  C   -0.303536
    27  C   -0.475260
    28  H    0.150982
    29  H    0.141679
    30  H    0.152572
    31  H    0.157608
    32  H    0.151400
    33  H    0.155070
    34  H    0.165197
 Sum of Mulliken charges =  -0.00000

 Dipole moment (field-independent basis, Debye):
    X=             -4.4122    Y=             -2.4358    Z=              0.9333  Tot=              5.1256
 Quadrupole moment (field-independent basis, Debye-Ang):
   XX=           -116.3459   YY=            -91.7507   ZZ=            -91.3880
   XY=             -4.9671   XZ=              1.7953   YZ=              1.2464

 Normal termination of Gaussian 16 at Wed May  5 17:29:04 2021.
