 Gaussian 16, Revision A.03,
 Gaussian 16:  EM64L-G16RevA.03 25-Dec-2016

 -------------
 #p 6-31g* mp2
 -------------

 ------------------------------------------------------
 Input file generated by CHIRIPA (05-May-2021 14:55:20)
 ------------------------------------------------------
 Symbolic Z-matrix:
 Charge =  0 Multiplicity = 1

                         Standard orientation:
 ---------------------------------------------------------------------
 Center     Atomic      Atomic             Coordinates (Angstroms)
 Number     Number       Type             X           Y           Z
 ---------------------------------------------------------------------
      1          6           0        4.518476    0.840865   -0.289682
      2          6           0        3.930634    0.181191   -1.374022
      3          6           0        2.782753   -0.596436   -1.194538
      4          6           0        2.246784   -0.692930    0.088706
      5          6           0        2.809306   -0.047748    1.188979
      6          6           0        3.956926    0.724495    0.986108
      7          1           0        5.410076    1.442853   -0.438193
      8          1           0        4.364566    0.269766   -2.365940
      9          1           0        2.307230   -1.117782   -2.016423
     10          1           0        2.353822   -0.154998    2.165938
     11          1           0        4.411310    1.235691    1.830063
     12          7           0        1.031712   -1.513319    0.291097
     13          8           0        0.578873   -1.582329    1.431628
     14          8           0        0.555186   -2.071797   -0.694633
     15          6           0       -3.891697    0.706148    0.010137
     16          6           0       -4.514705   -0.666802   -0.244527
     17          6           0       -6.034668   -0.666210   -0.078675
     18          1           0       -4.151088    1.036875    1.025165
     19          1           0       -4.336471    1.436574   -0.679827
     20          1           0       -4.067890   -1.394700    0.444775
     21          1           0       -4.253642   -0.994384   -1.258999
     22          1           0       -6.498093    0.038383   -0.776807
     23          1           0       -6.311286   -0.364208    0.936647
     24          1           0       -6.459267   -1.657544   -0.265307
     25          6           0       -2.372732    0.721616   -0.151833
     26          6           0       -1.749724    2.094566    0.102832
     27          6           0       -0.229762    2.093974   -0.063020
     28          1           0       -1.927959   -0.008810    0.538131
     29          1           0       -2.113342    0.390889   -1.166861
     30          1           0       -2.010788    2.422148    1.117303
     31          1           0       -2.196539    2.822464   -0.586471
     32          1           0        0.046856    1.791972   -1.078342
     33          1           0        0.233663    1.389381    0.635111
     34          1           0        0.194837    3.085308    0.123611
 ---------------------------------------------------------------------

 SCF Done:  E(RHF) =  -669.535454040     A.U. after   15 cycles
 E2 =    -0.2094088946D+01 EUMP2 =    -0.67162954298533D+03

 The electronic state is 1-A.
 Alpha  occ. eigenvalues --  -20.60939 -20.60930 -15.85929 -11.31205 -11.27781
 Alpha  occ. eigenvalues --  -11.27773 -11.27520 -11.26801 -11.26791 -11.21018
 Alpha  occ. eigenvalues --  -11.20731 -11.20682 -11.20561 -11.20374 -11.20344
 Alpha  occ. eigenvalues --   -1.59975  -1.39536  -1.19395  -1.08808  -1.07630
 Alpha  occ. eigenvalues --   -1.04792  -1.02856  -0.95653  -0.95321  -0.86362
 Alpha  occ. eigenvalues --   -0.86190  -0.82494  -0.78917  -0.77552  -0.77407
 Alpha  occ. eigenvalues --   -0.72167  -0.71282  -0.70513  -0.65057  -0.64801
 Alpha  occ. eigenvalues --   -0.64252  -0.62146  -0.60260  -0.58694  -0.56953
 Alpha  occ. eigenvalues --   -0.55301  -0.54646  -0.53236  -0.52887  -0.52032
 Alpha  occ. eigenvalues --   -0.51649  -0.49304  -0.48931  -0.48917  -0.47219
 Alpha  occ. eigenvalues --   -0.45979  -0.45107  -0.44950  -0.44585  -0.43059
 Alpha  occ. eigenvalues --   -0.37308  -0.36367
 Alpha virt. eigenvalues --    0.04937   0.11168   0.16458   0.21357   0.23644
 Alpha virt. eigenvalues --    0.24799   0.27188   0.27533   0.27876   0.28474
 Alpha virt. eigenvalues --    0.28706   0.30939   0.31670   0.32137   0.32512

 Mulliken charges:
               1
     1  C   -0.170614
     2  C   -0.218154
     3  C   -0.171301
     4  C    0.162803
     5  C   -0.173354
     6  C   -0.217056
     7  H    0.225705
     8  H    0.223500
     9  H    0.275299
    10  H    0.275002
    11  H    0.223608
    12  N    0.491010
    13  O   -0.461888
    14  O   -0.457780
    15  C   -0.297834
    16  C   -0.300006
    17  C   -0.475487
    18  H    0.147480
    19  H    0.145034
    20  H    0.159622
    21  H    0.152696
    22  H    0.152140
    23  H    0.153504
    24  H    0.159355
    25  C   -0.307479
    26  C   -0.297481
    27  C   -0.479993
    28  H    0.168093
    29  H    0.150830
    30  H    0.150419
    31  H    0.148445
    32  H    0.152832
    33  H    0.155167
    34  H    0.155880
 Sum of Mulliken charges =  -0.00000

 Dipole moment (field-independent basis, Debye):
    X=              4.4362    Y=              2.6946    Z=             -0.6975  Tot=              5.2371
 Quadrupole moment (field-independent basis, Debye-Ang):
   XX=            -77.8984   YY=            -99.6213   ZZ=            -89.1988
   XY=              3.9251   XZ=             -1.1484   YZ=              1.8625

 Normal termination of Gaussian 16 at Wed May  5 20:32:48 2021.
