 Gaussian 16, Revision A.03,
 Gaussian 16:  EM64L-G16RevA.03 25-Dec-2016

 -------------
 #p 6-31g* mp2
 -------------

 ------------------------------------------------------
 Input file generated by CHIRIPA (05-May-2021 14:57:27)
 ------------------------------------------------------
 Symbolic Z-matrix:
 Charge =  0 Multiplicity = 1

                         Standard orientation:
 ---------------------------------------------------------------------
 Center     Atomic      Atomic             Coordinates (Angstroms)
 Number     Number       Type             X           Y           Z
 ---------------------------------------------------------------------
      1          6           0       -1.963447    1.843243   -0.096516
      2          6           0       -2.955813    1.721160   -1.074692
      3          6           0       -3.919052    0.711709   -0.986783
      4          6           0       -3.859891   -0.162274    0.097626
      5          6           0       -2.883693   -0.066478    1.088156
      6          6           0       -1.930613    0.950608    0.979888
      7          1           0       -1.219126    2.630374   -0.172713
      8          1           0       -2.983759    2.412970   -1.911748
      9          1           0       -4.698355    0.594398   -1.729981
     10          1           0       -2.881609   -0.771088    1.910919
     11          1           0       -1.161087    1.043030    1.741028
     12          7           0       -4.874252   -1.234976    0.201467
     13          8           0       -4.800371   -1.992310    1.166674
     14          8           0       -5.723982   -1.298114   -0.684315
     15          6           0        2.051013    1.897031    0.048801
     16          6           0        1.860415    0.872519   -0.884242
     17          6           0        2.763654   -0.191539   -0.964782
     18          6           0        3.851425   -0.199321   -0.093013
     19          6           0        4.068597    0.806600    0.847332
     20          6           0        3.152554    1.860865    0.910092
     21          1           0        1.344382    2.719813    0.104462
     22          1           0        1.005843    0.897994   -1.554393
     23          1           0        2.640164   -0.997762   -1.677645
     24          1           0        4.929950    0.753674    1.502075
     25          1           0        3.303098    2.655143    1.635698
     26          7           0        4.814421   -1.320608   -0.168866
     27          8           0        5.764752   -1.304221    0.610391
     28          8           0        4.600653   -2.194630   -1.006140
 ---------------------------------------------------------------------

 SCF Done:  E(RHF) =  -868.336463244     A.U. after   16 cycles
 E2 =    -0.2600810086D+01 EUMP2 =    -0.87093727332995D+03

 The electronic state is 1-A.
 Alpha  occ. eigenvalues --  -20.61284 -20.61277 -20.61256 -20.61249 -15.86341
 Alpha  occ. eigenvalues --  -15.86312 -11.31897 -11.31856 -11.28458 -11.28433
 Alpha  occ. eigenvalues --  -11.28414 -11.28394 -11.28385 -11.28340 -11.27593
 Alpha  occ. eigenvalues --  -11.27555 -11.27540 -11.27510  -1.60354  -1.60326
 Alpha  occ. eigenvalues --   -1.39901  -1.39874  -1.20095  -1.20046  -1.09513
 Alpha  occ. eigenvalues --   -1.09422  -1.05503  -1.05457  -0.96324  -0.96211
 Alpha  occ. eigenvalues --   -0.86917  -0.86857  -0.83111  -0.83042  -0.78081
 Alpha  occ. eigenvalues --   -0.78043  -0.72557  -0.72529  -0.71678  -0.71650
 Alpha  occ. eigenvalues --   -0.71559  -0.70988  -0.65758  -0.65706  -0.65541
 Alpha  occ. eigenvalues --   -0.65424  -0.62826  -0.62785  -0.56378  -0.55820
 Alpha  occ. eigenvalues --   -0.53933  -0.53751  -0.53583  -0.53520  -0.49331
 Alpha  occ. eigenvalues --   -0.49302  -0.49298  -0.49271  -0.45263  -0.45239
 Alpha  occ. eigenvalues --   -0.38319  -0.37947  -0.37143  -0.36958
 Alpha virt. eigenvalues --    0.04372   0.04468   0.10289   0.10832   0.15699
 Alpha virt. eigenvalues --    0.15819   0.18309   0.21912   0.24897   0.26384
 Alpha virt. eigenvalues --    0.26888   0.29352   0.29685   0.31488   0.31998

 Mulliken charges:
               1
     1  C   -0.177704
     2  C   -0.219918
     3  C   -0.170457
     4  C    0.159850
     5  C   -0.170460
     6  C   -0.216618
     7  H    0.217509
     8  H    0.224540
     9  H    0.278004
    10  H    0.278921
    11  H    0.225412
    12  N    0.487826
    13  O   -0.457643
    14  O   -0.458500
    15  C   -0.177893
    16  C   -0.216944
    17  C   -0.170653
    18  C    0.159739
    19  C   -0.170724
    20  C   -0.218570
    21  H    0.216889
    22  H    0.224873
    23  H    0.278812
    24  H    0.277797
    25  H    0.224520
    26  N    0.487828
    27  O   -0.458659
    28  O   -0.457778
 Sum of Mulliken charges =  -0.00000

 Dipole moment (field-independent basis, Debye):
    X=              0.1555    Y=              7.4566    Z=             -0.0773  Tot=              7.4586
 Quadrupole moment (field-independent basis, Debye-Ang):
   XX=           -155.8093   YY=           -107.9157   ZZ=            -99.0032
   XY=              1.2077   XZ=              7.4258   YZ=              0.2269

 Normal termination of Gaussian 16 at Wed May  5 19:39:17 2021.
