 Gaussian 16, Revision A.03,
 Gaussian 16:  EM64L-G16RevA.03 25-Dec-2016

 -------------
 #p 6-31g* mp2
 -------------

 ------------------------------------------------------
 Input file generated by CHIRIPA (05-May-2021 14:57:23)
 ------------------------------------------------------
 Symbolic Z-matrix:
 Charge =  0 Multiplicity = 1

                         Standard orientation:
 ---------------------------------------------------------------------
 Center     Atomic      Atomic             Coordinates (Angstroms)
 Number     Number       Type             X           Y           Z
 ---------------------------------------------------------------------
      1          6           0        2.229431    2.473798    0.198196
      2          6           0        3.616321    2.451426    0.378630
      3          6           0        4.333925    1.262194    0.219508
      4          6           0        3.629499    0.108707   -0.121874
      5          6           0        2.248061    0.098874   -0.308484
      6          6           0        1.550924    1.299520   -0.144182
      7          1           0        1.679928    3.402055    0.323818
      8          1           0        4.145886    3.361861    0.644549
      9          1           0        5.407922    1.216531    0.353159
     10          1           0        1.747854   -0.824748   -0.573310
     11          1           0        0.473879    1.313924   -0.284942
     12          7           0        4.378361   -1.156321   -0.293072
     13          8           0        3.734383   -2.158990   -0.594046
     14          8           0        5.595117   -1.121229   -0.123041
     15          6           0       -5.539972    0.835354   -0.855456
     16          6           0       -5.381729    0.722933    0.529767
     17          6           0       -4.258802    0.086376    1.066774
     18          6           0       -3.309448   -0.428624    0.185416
     19          6           0       -3.438677   -0.332419   -1.199262
     20          6           0       -4.569651    0.308248   -1.714036
     21          1           0       -6.415414    1.331443   -1.263982
     22          1           0       -6.133683    1.131351    1.198949
     23          1           0       -4.111209   -0.014599    2.135156
     24          1           0       -2.672135   -0.749460   -1.841062
     25          1           0       -4.689915    0.394093   -2.790238
     26          7           0       -2.116396   -1.104694    0.742153
     27          8           0       -1.294331   -1.550042   -0.055663
     28          8           0       -2.025939   -1.176448    1.965797
 ---------------------------------------------------------------------

 SCF Done:  E(RHF) =  -868.338946555     A.U. after   16 cycles
 E2 =    -0.2599188873D+01 EUMP2 =    -0.87093813542868D+03

 The electronic state is 1-A.
 Alpha  occ. eigenvalues --  -20.61618 -20.61572 -20.59936 -20.59906 -15.86624
 Alpha  occ. eigenvalues --  -15.84975 -11.31870 -11.30291 -11.28420 -11.28398
 Alpha  occ. eigenvalues --  -11.28111 -11.27388 -11.27375 -11.26963 -11.26734
 Alpha  occ. eigenvalues --  -11.26726 -11.25992 -11.25876  -1.60658  -1.59002
 Alpha  occ. eigenvalues --   -1.40214  -1.38553  -1.20024  -1.18498  -1.09437
 Alpha  occ. eigenvalues --   -1.07928  -1.05399  -1.03881  -0.96289  -0.94749
 Alpha  occ. eigenvalues --   -0.86801  -0.85303  -0.83120  -0.81571  -0.78190
 Alpha  occ. eigenvalues --   -0.76601  -0.72832  -0.71985  -0.71198  -0.71111
 Alpha  occ. eigenvalues --   -0.70324  -0.69626  -0.65669  -0.65386  -0.64156
 Alpha  occ. eigenvalues --   -0.63911  -0.62740  -0.61201  -0.55888  -0.54462
 Alpha  occ. eigenvalues --   -0.53746  -0.53478  -0.52243  -0.51980  -0.49600
 Alpha  occ. eigenvalues --   -0.49570  -0.47967  -0.47939  -0.45633  -0.43967
 Alpha  occ. eigenvalues --   -0.37997  -0.37001  -0.36536  -0.35480
 Alpha virt. eigenvalues --    0.04300   0.05917   0.10641   0.12154   0.15797
 Alpha virt. eigenvalues --    0.17379   0.20820   0.22170   0.26754   0.27386
 Alpha virt. eigenvalues --    0.28128   0.29140   0.30544   0.31517   0.32097

 Mulliken charges:
               1
     1  C   -0.171014
     2  C   -0.219637
     3  C   -0.171309
     4  C    0.157217
     5  C   -0.170861
     6  C   -0.218954
     7  H    0.220714
     8  H    0.219597
     9  H    0.272967
    10  H    0.292176
    11  H    0.219242
    12  N    0.487797
    13  O   -0.456879
    14  O   -0.464746
    15  C   -0.170392
    16  C   -0.218597
    17  C   -0.171066
    18  C    0.155499
    19  C   -0.173630
    20  C   -0.218493
    21  H    0.227864
    22  H    0.225578
    23  H    0.277112
    24  H    0.275943
    25  H    0.225727
    26  N    0.488078
    27  O   -0.466019
    28  O   -0.453916
 Sum of Mulliken charges =  -0.00000

 Dipole moment (field-independent basis, Debye):
    X=             -7.2626    Y=              6.6494    Z=             -1.3298  Tot=              9.9362
 Quadrupole moment (field-independent basis, Debye-Ang):
   XX=            -92.6656   YY=           -106.2401   ZZ=           -101.8568
   XY=             11.1810   XZ=              7.5536   YZ=              2.2510

 Normal termination of Gaussian 16 at Fri May  7 11:03:17 2021.
