 Gaussian 16, Revision A.03,
 Gaussian 16:  EM64L-G16RevA.03 25-Dec-2016

 -------------
 #p 6-31g* mp2
 -------------

 ------------------------------------------------------
 Input file generated by CHIRIPA (05-May-2021 14:53:15)
 ------------------------------------------------------
 Symbolic Z-matrix:
 Charge =  0 Multiplicity = 1

                         Standard orientation:
 ---------------------------------------------------------------------
 Center     Atomic      Atomic             Coordinates (Angstroms)
 Number     Number       Type             X           Y           Z
 ---------------------------------------------------------------------
      1          6           0       -2.784125   -0.789374    0.179774
      2          6           0       -2.146943   -2.020959   -0.464572
      3          6           0       -0.765990   -2.340395    0.108773
      4          1           0       -2.119367    0.074284    0.041440
      5          1           0       -2.864599   -0.951438    1.263589
      6          1           0       -2.068963   -1.857181   -1.547029
      7          1           0       -2.813384   -2.881744   -0.324855
      8          1           0       -0.830207   -2.530060    1.185112
      9          1           0       -0.081556   -1.499676   -0.044006
     10          1           0       -0.328848   -3.224344   -0.365991
     11          6           0       -4.165003   -0.457275   -0.382911
     12          6           0       -4.802186    0.774310    0.261436
     13          6           0       -6.183139    1.093746   -0.311910
     14          1           0       -4.084530   -0.295211   -1.466726
     15          1           0       -4.829762   -1.320933   -0.244577
     16          1           0       -4.135745    1.635095    0.121719
     17          1           0       -4.880166    0.610532    1.343892
     18          1           0       -6.867573    0.253027   -0.159131
     19          1           0       -6.118922    1.283411   -1.388248
     20          1           0       -6.620280    1.977695    0.162854
     21          6           0        4.009926   -1.668721   -0.122612
     22          6           0        4.311664   -0.589654   -0.959922
     23          6           0        3.600442    0.609550   -0.856870
     24          6           0        2.589267    0.695376    0.098875
     25          6           0        2.265060   -0.361972    0.947519
     26          6           0        2.989386   -1.551643    0.826763
     27          1           0        4.567510   -2.596589   -0.209542
     28          1           0        5.103710   -0.677729   -1.698131
     29          1           0        3.813234    1.460594   -1.492372
     30          1           0        1.470038   -0.244136    1.673792
     31          1           0        2.752871   -2.388018    1.478361
     32          7           0        1.829391    1.959875    0.217343
     33          8           0        0.943164    2.010128    1.067469
     34          8           0        2.134416    2.876791   -0.542171
 ---------------------------------------------------------------------

 SCF Done:  E(RHF) =  -669.534983880     A.U. after   15 cycles
 E2 =    -0.2092439958D+01 EUMP2 =    -0.67162742383817D+03

 The electronic state is 1-A.
 Alpha  occ. eigenvalues --  -20.60829 -20.60824 -15.85876 -11.31210 -11.27779
 Alpha  occ. eigenvalues --  -11.27749 -11.27511 -11.26783 -11.26756 -11.21541
 Alpha  occ. eigenvalues --  -11.21214 -11.21175 -11.21093 -11.21034 -11.20708
 Alpha  occ. eigenvalues --   -1.59902  -1.39455  -1.19391  -1.08784  -1.08172
 Alpha  occ. eigenvalues --   -1.04790  -1.03336  -0.95820  -0.95615  -0.86844
 Alpha  occ. eigenvalues --   -0.86179  -0.82452  -0.79413  -0.77956  -0.77494
 Alpha  occ. eigenvalues --   -0.72091  -0.71227  -0.70495  -0.65035  -0.64825
 Alpha  occ. eigenvalues --   -0.64754  -0.62137  -0.60742  -0.59183  -0.57415
 Alpha  occ. eigenvalues --   -0.55289  -0.55145  -0.53222  -0.52877  -0.52493
 Alpha  occ. eigenvalues --   -0.52150  -0.49739  -0.48850  -0.48849  -0.47722
 Alpha  occ. eigenvalues --   -0.46421  -0.45514  -0.45410  -0.44837  -0.43570
 Alpha  occ. eigenvalues --   -0.37369  -0.36294
 Alpha virt. eigenvalues --    0.05011   0.11194   0.16475   0.21172   0.23106
 Alpha virt. eigenvalues --    0.24381   0.26554   0.26974   0.27752   0.28212
 Alpha virt. eigenvalues --    0.29078   0.30748   0.31652   0.31858   0.32158

 Mulliken charges:
               1
     1  C   -0.301458
     2  C   -0.298746
     3  C   -0.481590
     4  H    0.159697
     5  H    0.148081
     6  H    0.152496
     7  H    0.150548
     8  H    0.148898
     9  H    0.161337
    10  H    0.156640
    11  C   -0.298202
    12  C   -0.300625
    13  C   -0.475713
    14  H    0.149290
    15  H    0.147335
    16  H    0.158307
    17  H    0.151439
    18  H    0.153216
    19  H    0.154908
    20  H    0.160705
    21  C   -0.171113
    22  C   -0.218525
    23  C   -0.171156
    24  C    0.158264
    25  C   -0.173945
    26  C   -0.214816
    27  H    0.225759
    28  H    0.223450
    29  H    0.275515
    30  H    0.277979
    31  H    0.224915
    32  N    0.488246
    33  O   -0.460984
    34  O   -0.460153
 Sum of Mulliken charges =  -0.00000

 Dipole moment (field-independent basis, Debye):
    X=              2.7400    Y=             -4.3517    Z=             -0.4170  Tot=              5.1593
 Quadrupole moment (field-independent basis, Debye-Ang):
   XX=            -80.8271   YY=           -100.8199   ZZ=            -92.1392
   XY=             -8.3823   XZ=             -3.8031   YZ=             -2.7345

 Normal termination of Gaussian 16 at Wed May  5 15:38:32 2021.
