 Gaussian 16, Revision A.03,
 Gaussian 16:  EM64L-G16RevA.03 25-Dec-2016

 -------------
 #p 6-31g* mp2
 -------------

 ------------------------------------------------------
 Input file generated by CHIRIPA (05-May-2021 14:51:11)
 ------------------------------------------------------
 Symbolic Z-matrix:
 Charge =  0 Multiplicity = 1

                         Standard orientation:
 ---------------------------------------------------------------------
 Center     Atomic      Atomic             Coordinates (Angstroms)
 Number     Number       Type             X           Y           Z
 ---------------------------------------------------------------------
      1          6           0        2.316963   -1.268220    0.632038
      2          6           0        0.834662   -1.619317    0.764329
      3          6           0        0.571824   -2.681899    1.831863
      4          1           0        2.882930   -2.178784    0.392244
      5          1           0        2.690852   -0.914355    1.602802
      6          1           0        0.463340   -1.971104   -0.206743
      7          1           0        0.272134   -0.707777    1.003648
      8          1           0        0.915349   -2.336262    2.812234
      9          1           0        1.107642   -3.606767    1.594966
     10          1           0       -0.494092   -2.917762    1.909657
     11          6           0        2.595704   -0.207323   -0.431224
     12          6           0        4.078005    0.143774   -0.563515
     13          6           0        4.340843    1.206356   -1.631049
     14          1           0        2.221815   -0.561188   -1.401988
     15          1           0        2.029737    0.703240   -0.191430
     16          1           0        4.640534   -0.767766   -0.802834
     17          1           0        4.449327    0.495561    0.407557
     18          1           0        3.805025    2.131224   -1.394152
     19          1           0        3.997318    0.860719   -2.611420
     20          1           0        5.406759    1.442219   -1.708843
     21          6           0       -2.092272    1.408802   -0.125083
     22          6           0       -1.653890    1.911773    1.250717
     23          6           0       -0.926930    3.255274    1.184916
     24          1           0       -1.210139    1.318628   -0.773664
     25          1           0       -2.746999    2.158622   -0.590375
     26          1           0       -1.001297    1.160613    1.713855
     27          1           0       -2.537143    2.000578    1.896156
     28          1           0       -1.573694    4.022187    0.746575
     29          1           0       -0.029121    3.177449    0.563238
     30          1           0       -0.622471    3.596132    2.179391
     31          6           0       -2.820396    0.066741   -0.075731
     32          6           0       -3.258778   -0.436230   -1.451531
     33          6           0       -3.985737   -1.779731   -1.385730
     34          1           0       -2.165668   -0.683079    0.389561
     35          1           0       -3.702528    0.156915    0.572850
     36          1           0       -2.375524   -0.525034   -2.096970
     37          1           0       -3.911371    0.314930   -1.914669
     38          1           0       -4.883546   -1.701906   -0.764053
     39          1           0       -3.338973   -2.546644   -0.947390
     40          1           0       -4.290196   -2.120588   -2.380205
 ---------------------------------------------------------------------

 SCF Done:  E(RHF) =  -470.732888930     A.U. after   11 cycles
 E2 =    -0.1584553021D+01 EUMP2 =    -0.47231744195006D+03

 The electronic state is 1-A.
 Alpha  occ. eigenvalues --  -11.21666 -11.21655 -11.21624 -11.21566 -11.21482
 Alpha  occ. eigenvalues --  -11.21422 -11.21366 -11.21287 -11.21152 -11.21117
 Alpha  occ. eigenvalues --  -11.21111 -11.21054  -1.08527  -1.08394  -1.03602
 Alpha  occ. eigenvalues --   -1.03529  -0.96051  -0.95970  -0.87062  -0.86991
 Alpha  occ. eigenvalues --   -0.79690  -0.79590  -0.78382  -0.78167  -0.65320
 Alpha  occ. eigenvalues --   -0.64903  -0.61104  -0.60829  -0.59417  -0.59341
 Alpha  occ. eigenvalues --   -0.57694  -0.57558  -0.55351  -0.55239  -0.52739
 Alpha  occ. eigenvalues --   -0.52677  -0.52474  -0.52397  -0.50031  -0.49886
 Alpha  occ. eigenvalues --   -0.48039  -0.47920  -0.46885  -0.46529  -0.46119
 Alpha  occ. eigenvalues --   -0.45796  -0.45693  -0.45260  -0.43851  -0.43769
 Alpha virt. eigenvalues --    0.19665   0.22086   0.23679   0.24220   0.25879
 Alpha virt. eigenvalues --    0.26308   0.26964   0.27643   0.28576   0.29675
 Alpha virt. eigenvalues --    0.30216   0.31348   0.31665   0.31944   0.32232

 Mulliken charges:
               1
     1  C   -0.297410
     2  C   -0.310435
     3  C   -0.476933
     4  H    0.150019
     5  H    0.149712
     6  H    0.151769
     7  H    0.161798
     8  H    0.155571
     9  H    0.155859
    10  H    0.160881
    11  C   -0.300063
    12  C   -0.299702
    13  C   -0.475779
    14  H    0.149496
    15  H    0.150198
    16  H    0.152259
    17  H    0.152259
    18  H    0.155186
    19  H    0.155241
    20  H    0.160563
    21  C   -0.299567
    22  C   -0.304941
    23  C   -0.476312
    24  H    0.151284
    25  H    0.149800
    26  H    0.155271
    27  H    0.152520
    28  H    0.155778
    29  H    0.155017
    30  H    0.160181
    31  C   -0.304091
    32  C   -0.299430
    33  C   -0.475778
    34  H    0.156999
    35  H    0.148974
    36  H    0.151991
    37  H    0.151689
    38  H    0.155123
    39  H    0.154899
    40  H    0.160103
 Sum of Mulliken charges =  -0.00000

 Dipole moment (field-independent basis, Debye):
    X=              0.0255    Y=             -0.0101    Z=              0.0096  Tot=              0.0291
 Quadrupole moment (field-independent basis, Debye-Ang):
   XX=            -84.3893   YY=            -85.5192   ZZ=            -84.8271
   XY=             -1.3405   XZ=              0.0014   YZ=              0.9965

 Normal termination of Gaussian 16 at Wed May  5 23:05:41 2021.
