 Gaussian 16, Revision A.03,
 Gaussian 16:  EM64L-G16RevA.03 25-Dec-2016

 -------------
 #p 6-31g* mp2
 -------------

 ------------------------------------------------------
 Input file generated by CHIRIPA (05-May-2021 14:53:13)
 ------------------------------------------------------
 Symbolic Z-matrix:
 Charge =  0 Multiplicity = 1

                         Standard orientation:
 ---------------------------------------------------------------------
 Center     Atomic      Atomic             Coordinates (Angstroms)
 Number     Number       Type             X           Y           Z
 ---------------------------------------------------------------------
      1          6           0       -3.190001   -0.710169   -0.418877
      2          6           0       -1.837698   -0.348535   -1.034084
      3          6           0       -0.911535   -1.556594   -1.177648
      4          1           0       -3.026775   -1.167989    0.566366
      5          1           0       -3.675891   -1.473893   -1.041799
      6          1           0       -1.355115    0.415285   -0.410940
      7          1           0       -2.004172    0.108653   -2.017894
      8          1           0       -1.368844   -2.318813   -1.816783
      9          1           0       -0.716100   -2.010438   -0.200698
     10          1           0        0.049504   -1.275421   -1.619469
     11          6           0       -4.126931    0.487077   -0.268900
     12          6           0       -5.479235    0.125442    0.346308
     13          6           0       -6.405397    1.333502    0.489872
     14          1           0       -3.641042    1.250801    0.354022
     15          1           0       -4.290158    0.944897   -1.254142
     16          1           0       -5.312761   -0.331745    1.330118
     17          1           0       -5.961817   -0.638378   -0.276837
     18          1           0       -6.600833    1.787345   -0.487079
     19          1           0       -5.948089    2.095720    1.129006
     20          1           0       -7.366436    1.052329    0.931692
     21          6           0        1.967737   -2.174695    0.944766
     22          6           0        2.917576   -2.073206   -0.077010
     23          6           0        3.417919   -0.825166   -0.459895
     24          6           0        2.944261    0.305812    0.203300
     25          6           0        1.998399    0.237325    1.225035
     26          6           0        1.511984   -1.021140    1.591388
     27          1           0        1.584468   -3.148252    1.235779
     28          1           0        3.273330   -2.967376   -0.580938
     29          1           0        4.153681   -0.717804   -1.247643
     30          1           0        1.662846    1.146551    1.708908
     31          1           0        0.774371   -1.096940    2.385257
     32          7           0        3.466581    1.632574   -0.193293
     33          8           0        3.033177    2.613878    0.406575
     34          8           0        4.299487    1.666064   -1.096500
 ---------------------------------------------------------------------

 SCF Done:  E(RHF) =  -669.534376770     A.U. after   15 cycles
 E2 =    -0.2093250147D+01 EUMP2 =    -0.67162762691688D+03

 The electronic state is 1-A.
 Alpha  occ. eigenvalues --  -20.60795 -20.60790 -15.85852 -11.31232 -11.27819
 Alpha  occ. eigenvalues --  -11.27812 -11.27523 -11.26803 -11.26792 -11.21817
 Alpha  occ. eigenvalues --  -11.21813 -11.21678 -11.21581 -11.21262 -11.21228
 Alpha  occ. eigenvalues --   -1.59871  -1.39425  -1.19411  -1.08810  -1.08660
 Alpha  occ. eigenvalues --   -1.04817  -1.03742  -0.96203  -0.95630  -0.87220
 Alpha  occ. eigenvalues --   -0.86213  -0.82465  -0.79812  -0.78483  -0.77509
 Alpha  occ. eigenvalues --   -0.72069  -0.71196  -0.70522  -0.65315  -0.65063
 Alpha  occ. eigenvalues --   -0.64816  -0.62166  -0.61173  -0.59574  -0.57808
 Alpha  occ. eigenvalues --   -0.55614  -0.55312  -0.53380  -0.52906  -0.52628
 Alpha  occ. eigenvalues --   -0.52538  -0.50113  -0.48829  -0.48823  -0.48132
 Alpha  occ. eigenvalues --   -0.46858  -0.46027  -0.45958  -0.44828  -0.44002
 Alpha  occ. eigenvalues --   -0.37270  -0.36401
 Alpha virt. eigenvalues --    0.05002   0.11156   0.16463   0.20936   0.22729
 Alpha virt. eigenvalues --    0.24137   0.26216   0.26992   0.27478   0.27553
 Alpha virt. eigenvalues --    0.28475   0.30841   0.31331   0.31617   0.31759

 Mulliken charges:
               1
     1  C   -0.297645
     2  C   -0.300445
     3  C   -0.473540
     4  H    0.144223
     5  H    0.149847
     6  H    0.151340
     7  H    0.154618
     8  H    0.151868
     9  H    0.147404
    10  H    0.164190
    11  C   -0.298376
    12  C   -0.299536
    13  C   -0.475837
    14  H    0.149618
    15  H    0.151700
    16  H    0.150126
    17  H    0.152054
    18  H    0.156316
    19  H    0.155653
    20  H    0.160410
    21  C   -0.166695
    22  C   -0.218169
    23  C   -0.171947
    24  C    0.158400
    25  C   -0.171040
    26  C   -0.216476
    27  H    0.226002
    28  H    0.223894
    29  H    0.275921
    30  H    0.275587
    31  H    0.223162
    32  N    0.488143
    33  O   -0.460392
    34  O   -0.460381
 Sum of Mulliken charges =  -0.00000

 Dipole moment (field-independent basis, Debye):
    X=             -1.7848    Y=             -4.6589    Z=              1.3794  Tot=              5.1762
 Quadrupole moment (field-independent basis, Debye-Ang):
   XX=           -104.8604   YY=            -97.8268   ZZ=            -91.3930
   XY=            -15.5422   XZ=              2.0151   YZ=              1.1502

 Normal termination of Gaussian 16 at Wed May  5 15:31:30 2021.
