 Gaussian 16, Revision A.03,
 Gaussian 16:  EM64L-G16RevA.03 25-Dec-2016

 -------------
 #p 6-31g* mp2
 -------------

 ------------------------------------------------------
 Input file generated by CHIRIPA (05-May-2021 14:53:12)
 ------------------------------------------------------
 Symbolic Z-matrix:
 Charge =  0 Multiplicity = 1

                         Standard orientation:
 ---------------------------------------------------------------------
 Center     Atomic      Atomic             Coordinates (Angstroms)
 Number     Number       Type             X           Y           Z
 ---------------------------------------------------------------------
      1          6           0       -3.070306   -0.332434   -0.561191
      2          6           0       -2.298119   -1.551955   -0.056732
      3          6           0       -1.038343   -1.834320   -0.875897
      4          1           0       -3.343091   -0.488808   -1.613845
      5          1           0       -2.411054    0.546296   -0.536353
      6          1           0       -2.959050   -2.427847   -0.081210
      7          1           0       -2.027306   -1.392741    0.994898
      8          1           0       -0.356881   -0.978128   -0.842069
      9          1           0       -1.293919   -2.019115   -1.924292
     10          1           0       -0.501711   -2.710175   -0.498056
     11          6           0       -4.332247   -0.037345    0.247608
     12          6           0       -5.104434    1.182177   -0.256850
     13          6           0       -6.364210    1.464542    0.562314
     14          1           0       -4.991499   -0.916074    0.222770
     15          1           0       -4.059462    0.119030    1.300262
     16          1           0       -5.375247    1.022963   -1.308481
     17          1           0       -4.443503    2.058069   -0.232373
     18          1           0       -6.108634    1.649336    1.610709
     19          1           0       -7.045672    0.608350    0.528486
     20          1           0       -6.900842    2.340397    0.184473
     21          6           0        3.562042    2.530126   -0.351834
     22          6           0        3.316176    2.120270    0.962734
     23          6           0        2.944113    0.800896    1.237274
     24          6           0        2.826808   -0.086194    0.168350
     25          6           0        3.065030    0.291853   -1.152113
     26          6           0        3.435907    1.616221   -1.403208
     27          1           0        3.850608    3.556986   -0.555997
     28          1           0        3.413360    2.827851    1.781226
     29          1           0        2.747825    0.456861    2.245504
     30          1           0        2.959998   -0.436359   -1.947156
     31          1           0        3.626226    1.931717   -2.425111
     32          7           0        2.433551   -1.485600    0.446583
     33          8           0        2.337089   -2.247829   -0.512760
     34          8           0        2.229223   -1.793726    1.618737
 ---------------------------------------------------------------------

 SCF Done:  E(RHF) =  -669.535628655     A.U. after   15 cycles
 E2 =    -0.2092089165D+01 EUMP2 =    -0.67162771782064D+03

 The electronic state is 1-A.
 Alpha  occ. eigenvalues --  -20.60853 -20.60844 -15.85866 -11.31252 -11.27815
 Alpha  occ. eigenvalues --  -11.27810 -11.27557 -11.26830 -11.26818 -11.21375
 Alpha  occ. eigenvalues --  -11.21033 -11.20918 -11.20894 -11.20836 -11.20046
 Alpha  occ. eigenvalues --   -1.59906  -1.39462  -1.19420  -1.08815  -1.07991
 Alpha  occ. eigenvalues --   -1.04820  -1.03021  -0.95655  -0.95452  -0.86475
 Alpha  occ. eigenvalues --   -0.86218  -0.82481  -0.79110  -0.77795  -0.77524
 Alpha  occ. eigenvalues --   -0.72105  -0.71236  -0.70523  -0.65072  -0.64821
 Alpha  occ. eigenvalues --   -0.64633  -0.62164  -0.60433  -0.58835  -0.57049
 Alpha  occ. eigenvalues --   -0.55322  -0.54775  -0.53158  -0.52910  -0.52088
 Alpha  occ. eigenvalues --   -0.51889  -0.49455  -0.48862  -0.48859  -0.47401
 Alpha  occ. eigenvalues --   -0.46196  -0.45356  -0.45284  -0.44793  -0.43180
 Alpha  occ. eigenvalues --   -0.37395  -0.36421
 Alpha virt. eigenvalues --    0.04977   0.11199   0.16453   0.21369   0.23236
 Alpha virt. eigenvalues --    0.24768   0.26993   0.27269   0.27853   0.28096
 Alpha virt. eigenvalues --    0.28551   0.30873   0.31692   0.32144   0.32568

 Mulliken charges:
               1
     1  C   -0.297297
     2  C   -0.301253
     3  C   -0.475752
     4  H    0.147848
     5  H    0.145758
     6  H    0.150904
     7  H    0.153362
     8  H    0.141918
     9  H    0.149849
    10  H    0.182920
    11  C   -0.297679
    12  C   -0.298949
    13  C   -0.475368
    14  H    0.149736
    15  H    0.149137
    16  H    0.151267
    17  H    0.149755
    18  H    0.154672
    19  H    0.155484
    20  H    0.158750
    21  C   -0.170686
    22  C   -0.218642
    23  C   -0.171364
    24  C    0.157535
    25  C   -0.171309
    26  C   -0.218565
    27  H    0.225862
    28  H    0.223641
    29  H    0.275727
    30  H    0.276636
    31  H    0.223853
    32  N    0.489849
    33  O   -0.457304
    34  O   -0.460291
 Sum of Mulliken charges =  -0.00000

 Dipole moment (field-independent basis, Debye):
    X=              1.5827    Y=              4.7921    Z=             -0.9539  Tot=              5.1360
 Quadrupole moment (field-independent basis, Debye-Ang):
   XX=            -88.8448   YY=            -95.3502   ZZ=            -90.2485
   XY=             14.8002   XZ=             -2.1858   YZ=              2.3142

 Normal termination of Gaussian 16 at Wed May  5 16:59:25 2021.
