 Gaussian 16, Revision A.03,
 Gaussian 16:  EM64L-G16RevA.03 25-Dec-2016

 -------------
 #p 6-31g* mp2
 -------------

 ------------------------------------------------------
 Input file generated by CHIRIPA (05-May-2021 14:51:14)
 ------------------------------------------------------
 Symbolic Z-matrix:
 Charge =  0 Multiplicity = 1

                         Standard orientation:
 ---------------------------------------------------------------------
 Center     Atomic      Atomic             Coordinates (Angstroms)
 Number     Number       Type             X           Y           Z
 ---------------------------------------------------------------------
      1          6           0        2.677936    0.940948    0.187644
      2          6           0        3.625521    2.122884   -0.019944
      3          6           0        3.009562    3.456151    0.405247
      4          1           0        1.753275    1.116595   -0.379009
      5          1           0        2.390720    0.891929    1.247125
      6          1           0        3.911956    2.168826   -1.078462
      7          1           0        4.548111    1.944313    0.547115
      8          1           0        2.739783    3.434992    1.466083
      9          1           0        2.100014    3.660781   -0.168731
     10          1           0        3.703984    4.287419    0.248300
     11          6           0        3.279455   -0.398876   -0.232802
     12          6           0        2.331870   -1.580813   -0.025214
     13          6           0        2.947829   -2.914080   -0.450405
     14          1           0        3.566671   -0.349858   -1.292283
     15          1           0        4.204116   -0.574524    0.333851
     16          1           0        1.409280   -1.402242   -0.592273
     17          1           0        2.045435   -1.626755    1.033304
     18          1           0        3.857377   -3.118709    0.123573
     19          1           0        3.217608   -2.892921   -1.511241
     20          1           0        2.253407   -3.745347   -0.293458
     21          6           0       -3.000492    0.429712   -0.280586
     22          6           0       -4.224282    1.238926    0.150107
     23          6           0       -4.253722    2.638586   -0.464611
     24          1           0       -2.089908    0.975287    0.002484
     25          1           0       -2.989292    0.350202   -1.376464
     26          1           0       -4.233918    1.315708    1.244925
     27          1           0       -5.132058    0.691270   -0.133851
     28          1           0       -4.268523    2.579032   -1.557697
     29          1           0       -3.365281    3.207018   -0.171087
     30          1           0       -5.136858    3.199631   -0.143427
     31          6           0       -2.956899   -0.971784    0.325744
     32          6           0       -1.733109   -1.780997   -0.104949
     33          6           0       -1.703669   -3.180658    0.509769
     34          1           0       -2.968098   -0.892274    1.421622
     35          1           0       -3.867483   -1.517359    0.042674
     36          1           0       -0.825333   -1.233342    0.179009
     37          1           0       -1.723472   -1.857780   -1.199767
     38          1           0       -2.592110   -3.749090    0.216245
     39          1           0       -1.688868   -3.121104    1.602855
     40          1           0       -0.820532   -3.741702    0.188585
 ---------------------------------------------------------------------

 SCF Done:  E(RHF) =  -470.733115629     A.U. after   11 cycles
 E2 =    -0.1583242011D+01 EUMP2 =    -0.47231635763990D+03

 The electronic state is 1-A.
 Alpha  occ. eigenvalues --  -11.21625 -11.21593 -11.21571 -11.21526 -11.21428
 Alpha  occ. eigenvalues --  -11.21387 -11.21364 -11.21323 -11.21094 -11.21084
 Alpha  occ. eigenvalues --  -11.21066 -11.21052  -1.08459  -1.08400  -1.03571
 Alpha  occ. eigenvalues --   -1.03482  -0.96007  -0.95950  -0.87021  -0.86969
 Alpha  occ. eigenvalues --   -0.79720  -0.79488  -0.78356  -0.78129  -0.65110
 Alpha  occ. eigenvalues --   -0.65011  -0.60993  -0.60872  -0.59516  -0.59198
 Alpha  occ. eigenvalues --   -0.57725  -0.57432  -0.55283  -0.55245  -0.52736
 Alpha  occ. eigenvalues --   -0.52614  -0.52458  -0.52343  -0.49964  -0.49887
 Alpha  occ. eigenvalues --   -0.48176  -0.47738  -0.46767  -0.46515  -0.46044
 Alpha  occ. eigenvalues --   -0.45762  -0.45702  -0.45297  -0.43823  -0.43730
 Alpha virt. eigenvalues --    0.21266   0.22969   0.23255   0.24912   0.25329
 Alpha virt. eigenvalues --    0.26518   0.26742   0.27041   0.28776   0.29305
 Alpha virt. eigenvalues --    0.30133   0.30903   0.31386   0.31623   0.32614

 Mulliken charges:
               1
     1  C   -0.299151
     2  C   -0.299524
     3  C   -0.475789
     4  H    0.149775
     5  H    0.149060
     6  H    0.152146
     7  H    0.152109
     8  H    0.155011
     9  H    0.155206
    10  H    0.160433
    11  C   -0.297744
    12  C   -0.305815
    13  C   -0.476629
    14  H    0.149513
    15  H    0.149558
    16  H    0.159940
    17  H    0.151489
    18  H    0.155209
    19  H    0.155182
    20  H    0.160769
    21  C   -0.298599
    22  C   -0.299559
    23  C   -0.475751
    24  H    0.149739
    25  H    0.149121
    26  H    0.152008
    27  H    0.151949
    28  H    0.155014
    29  H    0.155236
    30  H    0.160274
    31  C   -0.297621
    32  C   -0.305557
    33  C   -0.476936
    34  H    0.149388
    35  H    0.149324
    36  H    0.159425
    37  H    0.150494
    38  H    0.155057
    39  H    0.155015
    40  H    0.161230
 Sum of Mulliken charges =  -0.00000

 Dipole moment (field-independent basis, Debye):
    X=              0.0214    Y=              0.0056    Z=             -0.0023  Tot=              0.0223
 Quadrupole moment (field-independent basis, Debye-Ang):
   XX=            -84.5732   YY=            -86.8604   ZZ=            -83.4369
   XY=              0.6218   XZ=              0.7678   YZ=              0.2780

 Normal termination of Gaussian 16 at Wed May  5 23:16:32 2021.
