 Gaussian 16, Revision A.03,
 Gaussian 16:  EM64L-G16RevA.03 25-Dec-2016

 -------------
 #p 6-31g* mp2
 -------------

 ------------------------------------------------------
 Input file generated by CHIRIPA (05-May-2021 14:53:12)
 ------------------------------------------------------
 Symbolic Z-matrix:
 Charge =  0 Multiplicity = 1

                         Standard orientation:
 ---------------------------------------------------------------------
 Center     Atomic      Atomic             Coordinates (Angstroms)
 Number     Number       Type             X           Y           Z
 ---------------------------------------------------------------------
      1          6           0        2.704588   -0.784578    0.342124
      2          6           0        3.767105    0.213968   -0.118255
      3          6           0        4.756474    0.577145    0.989467
      4          1           0        2.160254   -0.362534    1.198000
      5          1           0        3.200336   -1.695449    0.705365
      6          1           0        3.269449    1.122143   -0.481807
      7          1           0        4.308845   -0.210423   -0.973256
      8          1           0        5.279249   -0.315846    1.347063
      9          1           0        4.233947    1.024292    1.841304
     10          1           0        5.507226    1.292104    0.638663
     11          6           0        1.708186   -1.157454   -0.754176
     12          6           0        0.645668   -2.156000   -0.293798
     13          6           0       -0.343700   -2.519177   -1.401520
     14          1           0        1.212437   -0.246584   -1.117417
     15          1           0        2.252519   -1.579499   -1.610053
     16          1           0        0.103929   -1.731609    0.561203
     17          1           0        1.143325   -3.064176    0.069754
     18          1           0        0.178827   -2.966324   -2.253356
     19          1           0       -0.866475   -1.626187   -1.759115
     20          1           0       -1.094452   -3.234137   -1.050715
     21          6           0       -0.367038    2.549762   -0.986667
     22          6           0       -0.188636    2.303346    0.378607
     23          6           0       -0.934867    1.313376    1.024863
     24          6           0       -1.854901    0.585445    0.271906
     25          6           0       -2.055468    0.807370   -1.089641
     26          6           0       -1.298243    1.802305   -1.715149
     27          1           0        0.216923    3.320723   -1.480635
     28          1           0        0.533833    2.882279    0.946867
     29          1           0       -0.816893    1.101800    2.080674
     30          1           0       -2.783214    0.213910   -1.629650
     31          1           0       -1.438902    1.991494   -2.775559
     32          7           0       -2.650722   -0.465221    0.945086
     33          8           0       -3.454896   -1.092726    0.259391
     34          8           0       -2.455243   -0.641333    2.145673
 ---------------------------------------------------------------------

 SCF Done:  E(RHF) =  -669.534390909     A.U. after   15 cycles
 E2 =    -0.2097776150D+01 EUMP2 =    -0.67163216705879D+03

 The electronic state is 1-A.
 Alpha  occ. eigenvalues --  -20.60948 -20.60926 -15.85962 -11.31345 -11.27938
 Alpha  occ. eigenvalues --  -11.27920 -11.27684 -11.26965 -11.26951 -11.21893
 Alpha  occ. eigenvalues --  -11.21472 -11.21406 -11.21364 -11.21239 -11.20698
 Alpha  occ. eigenvalues --   -1.59996  -1.39550  -1.19563  -1.08940  -1.08452
 Alpha  occ. eigenvalues --   -1.04966  -1.03553  -0.95992  -0.95763  -0.87021
 Alpha  occ. eigenvalues --   -0.86341  -0.82593  -0.79635  -0.78246  -0.77636
 Alpha  occ. eigenvalues --   -0.72191  -0.71362  -0.70655  -0.65203  -0.65132
 Alpha  occ. eigenvalues --   -0.64950  -0.62314  -0.61002  -0.59363  -0.57581
 Alpha  occ. eigenvalues --   -0.55490  -0.55282  -0.53247  -0.53043  -0.52655
 Alpha  occ. eigenvalues --   -0.52411  -0.49989  -0.48954  -0.48948  -0.47934
 Alpha  occ. eigenvalues --   -0.46741  -0.45827  -0.45675  -0.44833  -0.43756
 Alpha  occ. eigenvalues --   -0.37461  -0.36485
 Alpha virt. eigenvalues --    0.04842   0.10957   0.16314   0.20741   0.22903
 Alpha virt. eigenvalues --    0.23992   0.26131   0.27075   0.27153   0.28268
 Alpha virt. eigenvalues --    0.28380   0.30398   0.31472   0.31814   0.32195

 Mulliken charges:
               1
     1  C   -0.296478
     2  C   -0.299063
     3  C   -0.475128
     4  H    0.145895
     5  H    0.151172
     6  H    0.144557
     7  H    0.152955
     8  H    0.158066
     9  H    0.151752
    10  H    0.159134
    11  C   -0.303113
    12  C   -0.302981
    13  C   -0.481160
    14  H    0.153702
    15  H    0.147494
    16  H    0.152454
    17  H    0.153757
    18  H    0.151825
    19  H    0.150791
    20  H    0.171791
    21  C   -0.171795
    22  C   -0.216955
    23  C   -0.171958
    24  C    0.162679
    25  C   -0.174867
    26  C   -0.218072
    27  H    0.227027
    28  H    0.224898
    29  H    0.276347
    30  H    0.277546
    31  H    0.225002
    32  N    0.490815
    33  O   -0.458203
    34  O   -0.459884
 Sum of Mulliken charges =  -0.00000

 Dipole moment (field-independent basis, Debye):
    X=              2.6096    Y=              3.7118    Z=             -2.3523  Tot=              5.1109
 Quadrupole moment (field-independent basis, Debye-Ang):
   XX=           -105.0528   YY=            -90.1226   ZZ=            -92.9960
   XY=             -5.5025   XZ=              6.8329   YZ=              0.4009

 Normal termination of Gaussian 16 at Thu May  6 18:41:50 2021.
