 Gaussian 16, Revision A.03,
 Gaussian 16:  EM64L-G16RevA.03 25-Dec-2016

 -------------
 #p 6-31g* mp2
 -------------

 ------------------------------------------------------
 Input file generated by CHIRIPA (05-May-2021 14:55:24)
 ------------------------------------------------------
 Symbolic Z-matrix:
 Charge =  0 Multiplicity = 1

                         Standard orientation:
 ---------------------------------------------------------------------
 Center     Atomic      Atomic             Coordinates (Angstroms)
 Number     Number       Type             X           Y           Z
 ---------------------------------------------------------------------
      1          6           0        2.872224   -2.316067    0.400908
      2          6           0        2.397888   -1.725440   -0.774969
      3          6           0        2.529464   -0.348965   -0.981250
      4          6           0        3.143294    0.410274    0.013768
      5          6           0        3.626047   -0.148827    1.195989
      6          6           0        3.483712   -1.527266    1.380906
      7          1           0        2.765834   -3.386109    0.552853
      8          1           0        1.922575   -2.335568   -1.537771
      9          1           0        2.171214    0.134181   -1.882163
     10          1           0        4.095390    0.485364    1.938240
     11          1           0        3.853027   -1.983239    2.295094
     12          7           0        3.288283    1.868526   -0.193304
     13          8           0        3.832845    2.515477    0.698628
     14          8           0        2.854617    2.336940   -1.243618
     15          6           0       -3.406051   -0.664606    0.136771
     16          6           0       -2.394667   -0.872785   -0.990948
     17          6           0       -1.226570   -1.769413   -0.579361
     18          1           0       -2.893519   -0.226445    1.004107
     19          1           0       -3.789400   -1.641965    0.461130
     20          1           0       -2.014370    0.104769   -1.314023
     21          1           0       -2.909705   -1.310325   -1.855766
     22          1           0       -1.587570   -2.757638   -0.276552
     23          1           0       -0.687148   -1.334505    0.268269
     24          1           0       -0.515707   -1.904840   -1.400453
     25          6           0       -4.579609    0.229570   -0.259384
     26          6           0       -5.590993    0.437749    0.868335
     27          6           0       -6.759089    1.334377    0.456749
     28          1           0       -4.196260    1.206928   -0.583743
     29          1           0       -5.092141   -0.208591   -1.126719
     30          1           0       -5.075954    0.875288    1.733154
     31          1           0       -5.971290   -0.539805    1.191411
     32          1           0       -7.298512    0.899468   -0.390881
     33          1           0       -6.398090    2.322601    0.153940
     34          1           0       -7.469953    1.469803    1.277841
 ---------------------------------------------------------------------

 SCF Done:  E(RHF) =  -669.534672525     A.U. after   15 cycles
 E2 =    -0.2091916302D+01 EUMP2 =    -0.67162658882659D+03

 The electronic state is 1-A.
 Alpha  occ. eigenvalues --  -20.60767 -20.60761 -15.85819 -11.31178 -11.27723
 Alpha  occ. eigenvalues --  -11.27716 -11.27456 -11.26759 -11.26732 -11.21894
 Alpha  occ. eigenvalues --  -11.21679 -11.21594 -11.21547 -11.21476 -11.21104
 Alpha  occ. eigenvalues --   -1.59842  -1.39396  -1.19343  -1.08741  -1.08610
 Alpha  occ. eigenvalues --   -1.04751  -1.03741  -0.96210  -0.95574  -0.87244
 Alpha  occ. eigenvalues --   -0.86135  -0.82412  -0.79812  -0.78408  -0.77461
 Alpha  occ. eigenvalues --   -0.72037  -0.71166  -0.70441  -0.65235  -0.64994
 Alpha  occ. eigenvalues --   -0.64774  -0.62132  -0.61133  -0.59593  -0.57813
 Alpha  occ. eigenvalues --   -0.55505  -0.55239  -0.53337  -0.52959  -0.52623
 Alpha  occ. eigenvalues --   -0.52542  -0.50116  -0.48795  -0.48793  -0.48126
 Alpha  occ. eigenvalues --   -0.46821  -0.45956  -0.45862  -0.44803  -0.44006
 Alpha  occ. eigenvalues --   -0.37309  -0.36280
 Alpha virt. eigenvalues --    0.05064   0.11281   0.16516   0.20767   0.22767
 Alpha virt. eigenvalues --    0.24072   0.26171   0.26488   0.27338   0.28278
 Alpha virt. eigenvalues --    0.28426   0.30051   0.31181   0.31764   0.32328

 Mulliken charges:
               1
     1  C   -0.172570
     2  C   -0.211875
     3  C   -0.171507
     4  C    0.158160
     5  C   -0.171775
     6  C   -0.218573
     7  H    0.225831
     8  H    0.223762
     9  H    0.275196
    10  H    0.275339
    11  H    0.223353
    12  N    0.488034
    13  O   -0.460496
    14  O   -0.460568
    15  C   -0.298858
    16  C   -0.300396
    17  C   -0.475107
    18  H    0.151056
    19  H    0.148485
    20  H    0.155387
    21  H    0.151534
    22  H    0.152771
    23  H    0.161112
    24  H    0.149008
    25  C   -0.298872
    26  C   -0.299861
    27  C   -0.475942
    28  H    0.152044
    29  H    0.149415
    30  H    0.152742
    31  H    0.151129
    32  H    0.154968
    33  H    0.156566
    34  H    0.160509
 Sum of Mulliken charges =  -0.00000

 Dipole moment (field-independent basis, Debye):
    X=             -0.5592    Y=             -5.1080    Z=              0.7673  Tot=              5.1955
 Quadrupole moment (field-independent basis, Debye-Ang):
   XX=            -98.1113   YY=            -99.4241   ZZ=            -90.9517
   XY=            -15.5509   XZ=              4.6400   YZ=              0.9000

 Normal termination of Gaussian 16 at Thu May  6 11:03:36 2021.
