 Gaussian 16, Revision A.03,
 Gaussian 16:  EM64L-G16RevA.03 25-Dec-2016

 -------------
 #p 6-31g* mp2
 -------------

 ------------------------------------------------------
 Input file generated by CHIRIPA (05-May-2021 14:53:12)
 ------------------------------------------------------
 Symbolic Z-matrix:
 Charge =  0 Multiplicity = 1

                         Standard orientation:
 ---------------------------------------------------------------------
 Center     Atomic      Atomic             Coordinates (Angstroms)
 Number     Number       Type             X           Y           Z
 ---------------------------------------------------------------------
      1          6           0        3.887168   -0.326108   -0.362996
      2          6           0        4.487398    1.079091   -0.307084
      3          6           0        5.511695    1.328878   -1.414431
      4          1           0        4.695633   -1.066418   -0.290404
      5          1           0        3.413106   -0.476050   -1.342883
      6          1           0        4.958983    1.226831    0.672915
      7          1           0        3.677393    1.816142   -0.379625
      8          1           0        5.050518    1.208651   -2.400059
      9          1           0        6.339391    0.615991   -1.341539
     10          1           0        5.928077    2.339340   -1.355673
     11          6           0        2.861435   -0.590967    0.737662
     12          6           0        2.261205   -1.996166    0.681749
     13          6           0        1.236908   -2.245953    1.789096
     14          1           0        3.335497   -0.441025    1.717548
     15          1           0        2.052970    0.149343    0.665069
     16          1           0        3.071210   -2.733217    0.754290
     17          1           0        1.789620   -2.143906   -0.298249
     18          1           0        0.409213   -1.533066    1.716205
     19          1           0        1.698085   -2.125725    2.774724
     20          1           0        0.820526   -3.256415    1.730338
     21          6           0       -1.765005    2.508998    0.844199
     22          6           0       -0.870808    1.515849    0.431178
     23          6           0       -1.342253    0.320214   -0.119043
     24          6           0       -2.720394    0.150305   -0.242116
     25          6           0       -3.636551    1.120956    0.160105
     26          6           0       -3.142594    2.308735    0.707586
     27          1           0       -1.390031    3.434745    1.270560
     28          1           0        0.199566    1.668637    0.536068
     29          1           0       -0.672271   -0.465280   -0.446982
     30          1           0       -4.698080    0.939785    0.042838
     31          1           0       -3.839374    3.078284    1.027485
     32          7           0       -3.231408   -1.111303   -0.823161
     33          8           0       -4.450173   -1.236624   -0.920861
     34          8           0       -2.403501   -1.950941   -1.169879
 ---------------------------------------------------------------------

 SCF Done:  E(RHF) =  -669.535128815     A.U. after   15 cycles
 E2 =    -0.2092869398D+01 EUMP2 =    -0.67162799821299D+03

 The electronic state is 1-A.
 Alpha  occ. eigenvalues --  -20.60774 -20.60769 -15.85828 -11.31206 -11.27776
 Alpha  occ. eigenvalues --  -11.27764 -11.27512 -11.26794 -11.26774 -11.22193
 Alpha  occ. eigenvalues --  -11.22120 -11.21993 -11.21920 -11.21512 -11.21293
 Alpha  occ. eigenvalues --   -1.59849  -1.39402  -1.19382  -1.09002  -1.08769
 Alpha  occ. eigenvalues --   -1.04793  -1.03991  -0.96432  -0.95604  -0.87444
 Alpha  occ. eigenvalues --   -0.86181  -0.82445  -0.80053  -0.78841  -0.77482
 Alpha  occ. eigenvalues --   -0.72047  -0.71172  -0.70495  -0.65693  -0.65023
 Alpha  occ. eigenvalues --   -0.64801  -0.62225  -0.61286  -0.59789  -0.58039
 Alpha  occ. eigenvalues --   -0.55760  -0.55278  -0.53130  -0.53075  -0.52992
 Alpha  occ. eigenvalues --   -0.52707  -0.50376  -0.48808  -0.48800  -0.48355
 Alpha  occ. eigenvalues --   -0.47105  -0.46361  -0.46273  -0.44804  -0.44269
 Alpha  occ. eigenvalues --   -0.37356  -0.36368
 Alpha virt. eigenvalues --    0.05010   0.11228   0.16448   0.18767   0.22995
 Alpha virt. eigenvalues --    0.23270   0.24576   0.26196   0.27556   0.28453
 Alpha virt. eigenvalues --    0.29530   0.30965   0.31312   0.31568   0.31703

 Mulliken charges:
               1
     1  C   -0.298519
     2  C   -0.298983
     3  C   -0.476050
     4  H    0.153708
     5  H    0.151252
     6  H    0.152954
     7  H    0.145256
     8  H    0.156773
     9  H    0.157389
    10  H    0.160880
    11  C   -0.302836
    12  C   -0.304591
    13  C   -0.478312
    14  H    0.152568
    15  H    0.138930
    16  H    0.156352
    17  H    0.155892
    18  H    0.152451
    19  H    0.154713
    20  H    0.168879
    21  C   -0.170783
    22  C   -0.224799
    23  C   -0.174572
    24  C    0.157598
    25  C   -0.170648
    26  C   -0.218397
    27  H    0.226239
    28  H    0.230204
    29  H    0.279840
    30  H    0.275745
    31  H    0.223611
    32  N    0.488081
    33  O   -0.460383
    34  O   -0.460442
 Sum of Mulliken charges =  -0.00000

 Dipole moment (field-independent basis, Debye):
    X=              1.8988    Y=              4.3216    Z=              2.0363  Tot=              5.1409
 Quadrupole moment (field-independent basis, Debye-Ang):
   XX=            -99.4980   YY=            -93.0345   ZZ=            -96.6621
   XY=            -14.5550   XZ=             -5.7630   YZ=             -0.5485

 Normal termination of Gaussian 16 at Wed May  5 23:21:04 2021.
