 Gaussian 16, Revision A.03,
 Gaussian 16:  EM64L-G16RevA.03 25-Dec-2016

 -------------
 #p 6-31g* mp2
 -------------

 ------------------------------------------------------
 Input file generated by CHIRIPA (05-May-2021 14:55:23)
 ------------------------------------------------------
 Symbolic Z-matrix:
 Charge =  0 Multiplicity = 1

                         Standard orientation:
 ---------------------------------------------------------------------
 Center     Atomic      Atomic             Coordinates (Angstroms)
 Number     Number       Type             X           Y           Z
 ---------------------------------------------------------------------
      1          6           0        4.643059    0.790726    0.537566
      2          6           0        3.704470    0.537128    1.543181
      3          6           0        2.525065   -0.156118    1.255148
      4          6           0        2.315576   -0.583230   -0.055187
      5          6           0        3.231555   -0.345957   -1.078893
      6          6           0        4.404027    0.349152   -0.767959
      7          1           0        5.556556    1.329980    0.770212
      8          1           0        3.887454    0.878873    2.557958
      9          1           0        1.781535   -0.366027    2.014436
     10          1           0        3.021213   -0.699137   -2.081110
     11          1           0        5.131175    0.544676   -1.550948
     12          7           0        1.070662   -1.318125   -0.372237
     13          8           0        0.909686   -1.683847   -1.534550
     14          8           0        0.279449   -1.514498    0.547576
     15          6           0       -2.736526    1.070565   -0.333578
     16          6           0       -2.888718    2.519611    0.130203
     17          6           0       -1.901484    3.465949   -0.553613
     18          1           0       -1.708944    0.735348   -0.136986
     19          1           0       -2.877374    1.024665   -1.422361
     20          1           0       -2.748994    2.562560    1.217976
     21          1           0       -3.916112    2.851355   -0.067340
     22          1           0       -2.043991    3.452727   -1.639024
     23          1           0       -0.870243    3.162291   -0.346406
     24          1           0       -2.027764    4.496505   -0.207391
     25          6           0       -3.716600    0.112437    0.341088
     26          6           0       -3.564408   -1.336608   -0.122692
     27          6           0       -4.551642   -2.282947    0.561124
     28          1           0       -3.575751    0.158338    1.429871
     29          1           0       -4.744183    0.447654    0.144496
     30          1           0       -2.537014   -1.668353    0.074850
     31          1           0       -3.704131   -1.379557   -1.210465
     32          1           0       -5.582882   -1.979288    0.353917
     33          1           0       -4.409134   -2.269725    1.646535
     34          1           0       -4.425361   -3.313503    0.214902
 ---------------------------------------------------------------------

 SCF Done:  E(RHF) =  -669.536721867     A.U. after   15 cycles
 E2 =    -0.2092003074D+01 EUMP2 =    -0.67162872494155D+03

 The electronic state is 1-A.
 Alpha  occ. eigenvalues --  -20.61130 -20.61106 -15.86119 -11.31384 -11.27938
 Alpha  occ. eigenvalues --  -11.27930 -11.27661 -11.26928 -11.26917 -11.20913
 Alpha  occ. eigenvalues --  -11.20618 -11.20326 -11.20198 -11.19916 -11.19812
 Alpha  occ. eigenvalues --   -1.60157  -1.39717  -1.19542  -1.08958  -1.07340
 Alpha  occ. eigenvalues --   -1.04928  -1.02485  -0.95809  -0.94998  -0.86332
 Alpha  occ. eigenvalues --   -0.86026  -0.82646  -0.78571  -0.77708  -0.77073
 Alpha  occ. eigenvalues --   -0.72339  -0.71459  -0.70650  -0.65200  -0.64931
 Alpha  occ. eigenvalues --   -0.63966  -0.62276  -0.59881  -0.58399  -0.56573
 Alpha  occ. eigenvalues --   -0.55435  -0.54305  -0.53263  -0.53019  -0.51734
 Alpha  occ. eigenvalues --   -0.51416  -0.49201  -0.49092  -0.48930  -0.46878
 Alpha  occ. eigenvalues --   -0.45599  -0.45254  -0.44638  -0.44257  -0.42729
 Alpha  occ. eigenvalues --   -0.37516  -0.36525
 Alpha virt. eigenvalues --    0.04796   0.11128   0.16284   0.21256   0.23858
 Alpha virt. eigenvalues --    0.25308   0.27191   0.27574   0.28118   0.28633
 Alpha virt. eigenvalues --    0.28962   0.30928   0.32322   0.32409   0.32699

 Mulliken charges:
               1
     1  C   -0.170301
     2  C   -0.218490
     3  C   -0.170949
     4  C    0.157627
     5  C   -0.170321
     6  C   -0.218551
     7  H    0.226420
     8  H    0.224200
     9  H    0.275759
    10  H    0.276203
    11  H    0.224243
    12  N    0.489051
    13  O   -0.456554
    14  O   -0.460036
    15  C   -0.300140
    16  C   -0.298742
    17  C   -0.474325
    18  H    0.155827
    19  H    0.148468
    20  H    0.148867
    21  H    0.150063
    22  H    0.155069
    23  H    0.151167
    24  H    0.156722
    25  C   -0.295583
    26  C   -0.312894
    27  C   -0.474644
    28  H    0.146020
    29  H    0.143440
    30  H    0.184647
    31  H    0.147986
    32  H    0.148625
    33  H    0.151847
    34  H    0.159277
 Sum of Mulliken charges =  -0.00000

 Dipole moment (field-independent basis, Debye):
    X=              4.7802    Y=              2.4083    Z=              1.0711  Tot=              5.4587
 Quadrupole moment (field-independent basis, Debye-Ang):
   XX=            -75.7709   YY=            -99.7305   ZZ=            -89.9949
   XY=              3.0020   XZ=              1.6923   YZ=             -0.0425

 Normal termination of Gaussian 16 at Thu May  6 06:19:16 2021.
