 Gaussian 16, Revision A.03,
 Gaussian 16:  EM64L-G16RevA.03 25-Dec-2016

 -------------
 #p 6-31g* mp2
 -------------

 ------------------------------------------------------
 Input file generated by CHIRIPA (05-May-2021 14:53:14)
 ------------------------------------------------------
 Symbolic Z-matrix:
 Charge =  0 Multiplicity = 1

                         Standard orientation:
 ---------------------------------------------------------------------
 Center     Atomic      Atomic             Coordinates (Angstroms)
 Number     Number       Type             X           Y           Z
 ---------------------------------------------------------------------
      1          6           0        3.780504   -0.554349   -0.309679
      2          6           0        2.397061   -0.082991    0.139645
      3          6           0        1.281508   -1.041762   -0.277603
      4          1           0        3.784386   -0.670447   -1.402131
      5          1           0        3.975389   -1.550477    0.111205
      6          1           0        2.205412    0.912543   -0.280831
      7          1           0        2.396528    0.032183    1.231135
      8          1           0        1.445406   -2.034551    0.153798
      9          1           0        1.253205   -1.149189   -1.366758
     10          1           0        0.301130   -0.685503    0.053755
     11          6           0        4.906156    0.393684    0.100039
     12          6           0        6.289599   -0.077675   -0.349285
     13          6           0        7.405151    0.881096    0.067963
     14          1           0        4.711270    1.389812   -0.320845
     15          1           0        4.902273    0.509782    1.192491
     16          1           0        6.290132   -0.192848   -1.440775
     17          1           0        6.481247   -1.073208    0.071191
     18          1           0        7.433455    0.988524    1.157118
     19          1           0        7.241253    1.873886   -0.363439
     20          1           0        8.385529    0.524837   -0.263395
     21          6           0       -3.864733    2.534918   -0.097115
     22          6           0       -4.680787    1.616445   -0.765685
     23          6           0       -4.428915    0.244355   -0.673617
     24          6           0       -3.347643   -0.176239    0.099197
     25          6           0       -2.516413    0.714163    0.777082
     26          6           0       -2.787050    2.081644    0.670781
     27          1           0       -4.067682    3.599000   -0.174164
     28          1           0       -5.518428    1.965595   -1.362758
     29          1           0       -5.044640   -0.488485   -1.180812
     30          1           0       -1.688768    0.335889    1.364732
     31          1           0       -2.151610    2.792658    1.191089
     32          7           0       -3.071064   -1.626369    0.204198
     33          8           0       -2.112249   -1.971396    0.891417
     34          8           0       -3.818333   -2.390498   -0.402707
 ---------------------------------------------------------------------

 SCF Done:  E(RHF) =  -669.535547852     A.U. after   15 cycles
 E2 =    -0.2091664266D+01 EUMP2 =    -0.67162721211834D+03

 The electronic state is 1-A.
 Alpha  occ. eigenvalues --  -20.60850 -20.60837 -15.85874 -11.31246 -11.27809
 Alpha  occ. eigenvalues --  -11.27802 -11.27547 -11.26828 -11.26818 -11.21481
 Alpha  occ. eigenvalues --  -11.21348 -11.21251 -11.21137 -11.20996 -11.20446
 Alpha  occ. eigenvalues --   -1.59906  -1.39462  -1.19415  -1.08809  -1.08234
 Alpha  occ. eigenvalues --   -1.04818  -1.03293  -0.95732  -0.95626  -0.86720
 Alpha  occ. eigenvalues --   -0.86215  -0.82477  -0.79361  -0.78058  -0.77527
 Alpha  occ. eigenvalues --   -0.72101  -0.71222  -0.70526  -0.65069  -0.64867
 Alpha  occ. eigenvalues --   -0.64826  -0.62186  -0.60688  -0.59094  -0.57345
 Alpha  occ. eigenvalues --   -0.55318  -0.54988  -0.53149  -0.52943  -0.52363
 Alpha  occ. eigenvalues --   -0.52124  -0.49641  -0.48863  -0.48854  -0.47667
 Alpha  occ. eigenvalues --   -0.46407  -0.45589  -0.45525  -0.44883  -0.43471
 Alpha  occ. eigenvalues --   -0.37390  -0.36412
 Alpha virt. eigenvalues --    0.04977   0.11138   0.16483   0.21113   0.23038
 Alpha virt. eigenvalues --    0.24280   0.26764   0.26852   0.27704   0.27777
 Alpha virt. eigenvalues --    0.28981   0.30436   0.31613   0.31675   0.32046

 Mulliken charges:
               1
     1  C   -0.297838
     2  C   -0.301426
     3  C   -0.476895
     4  H    0.149649
     5  H    0.151522
     6  H    0.145930
     7  H    0.148956
     8  H    0.163159
     9  H    0.152598
    10  H    0.162782
    11  C   -0.297807
    12  C   -0.299554
    13  C   -0.475542
    14  H    0.147439
    15  H    0.148806
    16  H    0.151919
    17  H    0.152766
    18  H    0.154831
    19  H    0.154173
    20  H    0.160182
    21  C   -0.170789
    22  C   -0.218265
    23  C   -0.170986
    24  C    0.159236
    25  C   -0.171924
    26  C   -0.218958
    27  H    0.225831
    28  H    0.223689
    29  H    0.275775
    30  H    0.276879
    31  H    0.224077
    32  N    0.488352
    33  O   -0.459074
    34  O   -0.459493
 Sum of Mulliken charges =  -0.00000

 Dipole moment (field-independent basis, Debye):
    X=             -1.1128    Y=              5.0109    Z=             -0.3658  Tot=              5.1460
 Quadrupole moment (field-independent basis, Debye-Ang):
   XX=            -86.4707   YY=            -96.8716   ZZ=            -92.9774
   XY=            -17.1389   XZ=              3.8194   YZ=              0.6145

 Normal termination of Gaussian 16 at Thu May  6 12:05:45 2021.
