 Gaussian 16, Revision A.03,
 Gaussian 16:  EM64L-G16RevA.03 25-Dec-2016

 -------------
 #p 6-31g* mp2
 -------------

 ------------------------------------------------------
 Input file generated by CHIRIPA (05-May-2021 14:55:19)
 ------------------------------------------------------
 Symbolic Z-matrix:
 Charge =  0 Multiplicity = 1

                         Standard orientation:
 ---------------------------------------------------------------------
 Center     Atomic      Atomic             Coordinates (Angstroms)
 Number     Number       Type             X           Y           Z
 ---------------------------------------------------------------------
      1          6           0       -0.344844   -2.135302    0.573858
      2          6           0       -1.338817   -2.456635   -0.356348
      3          6           0       -2.396205   -1.574754   -0.598762
      4          6           0       -2.428529   -0.374795    0.110001
      5          6           0       -1.453274   -0.026141    1.043065
      6          6           0       -0.405139   -0.923217    1.269369
      7          1           0        0.472966   -2.826271    0.755914
      8          1           0       -1.294558   -3.397247   -0.897953
      9          1           0       -3.178999   -1.798370   -1.313358
     10          1           0       -1.524437    0.918984    1.567558
     11          1           0        0.365401   -0.671029    1.992360
     12          7           0       -3.543040    0.566857   -0.138105
     13          8           0       -3.548686    1.617709    0.499322
     14          8           0       -4.389845    0.236240   -0.965300
     15          6           0        2.345460    1.175420   -0.433288
     16          6           0        2.504199    2.569503    0.174427
     17          6           0        1.440667    3.552622   -0.315646
     18          1           0        2.391833    1.252238   -1.528229
     19          1           0        1.346540    0.788187   -0.189146
     20          1           0        3.503031    2.953422   -0.069618
     21          1           0        2.457634    2.489332    1.268054
     22          1           0        0.438200    3.195432   -0.058590
     23          1           0        1.489536    3.662159   -1.403863
     24          1           0        1.572942    4.542881    0.131286
     25          6           0        3.401340    0.181356    0.047006
     26          6           0        3.242601   -1.212727   -0.560709
     27          6           0        4.306133   -2.195845   -0.070635
     28          1           0        4.400259    0.568589   -0.197135
     29          1           0        3.354966    0.104538    1.141946
     30          1           0        3.289166   -1.132556   -1.654337
     31          1           0        2.243769   -1.596646   -0.316664
     32          1           0        4.257263   -2.305383    1.017580
     33          1           0        5.308599   -1.838656   -0.327692
     34          1           0        4.173859   -3.186105   -0.517568
 ---------------------------------------------------------------------

 SCF Done:  E(RHF) =  -669.533848251     A.U. after   15 cycles
 E2 =    -0.2095039824D+01 EUMP2 =    -0.67162888807480D+03

 The electronic state is 1-A.
 Alpha  occ. eigenvalues --  -20.60858 -20.60852 -15.85912 -11.31328 -11.27899
 Alpha  occ. eigenvalues --  -11.27880 -11.27614 -11.26919 -11.26904 -11.22265
 Alpha  occ. eigenvalues --  -11.21989 -11.21910 -11.21842 -11.21644 -11.21199
 Alpha  occ. eigenvalues --   -1.59931  -1.39484  -1.19512  -1.08997  -1.08837
 Alpha  occ. eigenvalues --   -1.04920  -1.04023  -0.96452  -0.95724  -0.87461
 Alpha  occ. eigenvalues --   -0.86310  -0.82557  -0.80099  -0.78721  -0.77584
 Alpha  occ. eigenvalues --   -0.72130  -0.71254  -0.70640  -0.65704  -0.65159
 Alpha  occ. eigenvalues --   -0.64834  -0.62244  -0.61448  -0.59844  -0.58056
 Alpha  occ. eigenvalues --   -0.55814  -0.55376  -0.53345  -0.53095  -0.53007
 Alpha  occ. eigenvalues --   -0.52835  -0.50402  -0.48894  -0.48882  -0.48398
 Alpha  occ. eigenvalues --   -0.47165  -0.46248  -0.46169  -0.44877  -0.44250
 Alpha  occ. eigenvalues --   -0.37393  -0.36432
 Alpha virt. eigenvalues --    0.04877   0.11033   0.16229   0.19496   0.23130
 Alpha virt. eigenvalues --    0.23467   0.25661   0.26463   0.27526   0.27852
 Alpha virt. eigenvalues --    0.29135   0.30954   0.31060   0.31331   0.31788

 Mulliken charges:
               1
     1  C   -0.170023
     2  C   -0.219556
     3  C   -0.170582
     4  C    0.159703
     5  C   -0.172051
     6  C   -0.218345
     7  H    0.228002
     8  H    0.224526
     9  H    0.276282
    10  H    0.276602
    11  H    0.226271
    12  N    0.488114
    13  O   -0.460130
    14  O   -0.459788
    15  C   -0.307591
    16  C   -0.299733
    17  C   -0.476241
    18  H    0.151627
    19  H    0.157390
    20  H    0.152901
    21  H    0.146707
    22  H    0.156952
    23  H    0.157368
    24  H    0.162024
    25  C   -0.297496
    26  C   -0.306328
    27  C   -0.476285
    28  H    0.152619
    29  H    0.142247
    30  H    0.155657
    31  H    0.149227
    32  H    0.151526
    33  H    0.159678
    34  H    0.158724
 Sum of Mulliken charges =  -0.00000

 Dipole moment (field-independent basis, Debye):
    X=              3.8142    Y=             -3.2942    Z=              0.7861  Tot=              5.1008
 Quadrupole moment (field-independent basis, Debye-Ang):
   XX=           -113.9401   YY=            -91.1051   ZZ=            -92.2117
   XY=              8.9320   XZ=             -1.1143   YZ=              1.6987

 Normal termination of Gaussian 16 at Thu May  6 06:05:30 2021.
