 Gaussian 16, Revision A.03,
 Gaussian 16:  EM64L-G16RevA.03 25-Dec-2016

 -------------
 #p 6-31g* mp2
 -------------

 ------------------------------------------------------
 Input file generated by CHIRIPA (05-May-2021 14:53:12)
 ------------------------------------------------------
 Symbolic Z-matrix:
 Charge =  0 Multiplicity = 1

                         Standard orientation:
 ---------------------------------------------------------------------
 Center     Atomic      Atomic             Coordinates (Angstroms)
 Number     Number       Type             X           Y           Z
 ---------------------------------------------------------------------
      1          6           0        2.507817    0.898134   -0.683073
      2          6           0        1.673303    2.038017   -0.098063
      3          6           0        0.962888    2.862183   -1.172239
      4          1           0        3.249708    1.314633   -1.378107
      5          1           0        1.855730    0.243268   -1.277487
      6          1           0        2.326513    2.689766    0.496207
      7          1           0        0.933439    1.618774    0.595805
      8          1           0        0.288530    2.230392   -1.759337
      9          1           0        1.689520    3.307470   -1.859500
     10          1           0        0.372131    3.671539   -0.732003
     11          6           0        3.224120    0.065129    0.378407
     12          6           0        4.058635   -1.074754   -0.206603
     13          6           0        4.769050   -1.898919    0.867573
     14          1           0        3.876207    0.719995    0.972821
     15          1           0        2.482230   -0.351370    1.073441
     16          1           0        4.798499   -0.655510   -0.900471
     17          1           0        3.405425   -1.726502   -0.800873
     18          1           0        4.042418   -2.344206    1.554834
     19          1           0        5.443408   -1.267129    1.454671
     20          1           0        5.359806   -2.708276    0.427337
     21          6           0       -2.312202    1.899006    1.206975
     22          6           0       -2.361293    1.787489   -0.186466
     23          6           0       -2.321442    0.531940   -0.800107
     24          6           0       -2.231965   -0.596240    0.013830
     25          6           0       -2.181287   -0.517829    1.404719
     26          6           0       -2.222514    0.748020    1.996727
     27          1           0       -2.343694    2.878348    1.675263
     28          1           0       -2.430957    2.679641   -0.802303
     29          1           0       -2.357887    0.416757   -1.876593
     30          1           0       -2.111958   -1.425273    1.992219
     31          1           0       -2.184225    0.831603    3.079129
     32          7           0       -2.189048   -1.930886   -0.624354
     33          8           0       -2.110121   -2.909531    0.115012
     34          8           0       -2.235150   -1.973065   -1.851845
 ---------------------------------------------------------------------

 SCF Done:  E(RHF) =  -669.535317103     A.U. after   15 cycles
 E2 =    -0.2093363227D+01 EUMP2 =    -0.67162868032967D+03

 The electronic state is 1-A.
 Alpha  occ. eigenvalues --  -20.60855 -20.60850 -15.85908 -11.31294 -11.27840
 Alpha  occ. eigenvalues --  -11.27829 -11.27579 -11.26886 -11.26843 -11.21788
 Alpha  occ. eigenvalues --  -11.21495 -11.21488 -11.21450 -11.21371 -11.20954
 Alpha  occ. eigenvalues --   -1.59931  -1.39483  -1.19462  -1.08855  -1.08481
 Alpha  occ. eigenvalues --   -1.04865  -1.03609  -0.96086  -0.95683  -0.87116
 Alpha  occ. eigenvalues --   -0.86247  -0.82512  -0.79684  -0.78281  -0.77556
 Alpha  occ. eigenvalues --   -0.72124  -0.71256  -0.70556  -0.65136  -0.65099
 Alpha  occ. eigenvalues --   -0.64854  -0.62215  -0.61025  -0.59481  -0.57690
 Alpha  occ. eigenvalues --   -0.55443  -0.55338  -0.53132  -0.52991  -0.52722
 Alpha  occ. eigenvalues --   -0.52511  -0.50024  -0.48884  -0.48879  -0.47995
 Alpha  occ. eigenvalues --   -0.46698  -0.45824  -0.45732  -0.44884  -0.43871
 Alpha  occ. eigenvalues --   -0.37413  -0.36407
 Alpha virt. eigenvalues --    0.04945   0.11147   0.16399   0.20810   0.22861
 Alpha virt. eigenvalues --    0.24225   0.26299   0.26625   0.27205   0.28064
 Alpha virt. eigenvalues --    0.28748   0.30595   0.31058   0.31514   0.32062

 Mulliken charges:
               1
     1  C   -0.299121
     2  C   -0.302831
     3  C   -0.473048
     4  H    0.149641
     5  H    0.152700
     6  H    0.150136
     7  H    0.155713
     8  H    0.152915
     9  H    0.156404
    10  H    0.150066
    11  C   -0.298200
    12  C   -0.300551
    13  C   -0.475821
    14  H    0.147919
    15  H    0.149260
    16  H    0.151445
    17  H    0.156450
    18  H    0.155980
    19  H    0.153471
    20  H    0.161493
    21  C   -0.172267
    22  C   -0.211886
    23  C   -0.173256
    24  C    0.158565
    25  C   -0.172070
    26  C   -0.218550
    27  H    0.226302
    28  H    0.225775
    29  H    0.275780
    30  H    0.275826
    31  H    0.224199
    32  N    0.487916
    33  O   -0.460166
    34  O   -0.460184
 Sum of Mulliken charges =  -0.00000

 Dipole moment (field-independent basis, Debye):
    X=             -0.2051    Y=              4.6229    Z=              2.2598  Tot=              5.1497
 Quadrupole moment (field-independent basis, Debye-Ang):
   XX=            -94.4785   YY=           -100.3464   ZZ=            -91.1810
   XY=            -10.0759   XZ=             -5.3364   YZ=             -2.9572

 Normal termination of Gaussian 16 at Thu May  6 07:18:52 2021.
