 Gaussian 16, Revision A.03,
 Gaussian 16:  EM64L-G16RevA.03 25-Dec-2016

 -------------
 #p 6-31g* mp2
 -------------

 ------------------------------------------------------
 Input file generated by CHIRIPA (05-May-2021 14:51:13)
 ------------------------------------------------------
 Symbolic Z-matrix:
 Charge =  0 Multiplicity = 1

                         Standard orientation:
 ---------------------------------------------------------------------
 Center     Atomic      Atomic             Coordinates (Angstroms)
 Number     Number       Type             X           Y           Z
 ---------------------------------------------------------------------
      1          6           0        4.144178   -0.169023   -0.040575
      2          6           0        5.221921   -0.187972   -1.125055
      3          6           0        6.103940   -1.435221   -1.060209
      4          1           0        4.624341   -0.229423    0.945701
      5          1           0        3.518740   -1.067069   -0.139250
      6          1           0        5.844284    0.710535   -1.025225
      7          1           0        4.739146   -0.127327   -2.108857
      8          1           0        5.500521   -2.340540   -1.182213
      9          1           0        6.611938   -1.497918   -0.092424
     10          1           0        6.867468   -1.428194   -1.844323
     11          6           0        3.254362    1.071650   -0.092385
     12          6           0        2.176619    1.090599    0.992095
     13          6           0        1.294600    2.337849    0.927249
     14          1           0        3.879799    1.969696    0.006290
     15          1           0        2.774199    1.132050   -1.078661
     16          1           0        2.659394    1.029954    1.975898
     17          1           0        1.554256    0.192093    0.892266
     18          1           0        0.786602    2.400545   -0.040536
     19          1           0        1.898018    3.243167    1.049253
     20          1           0        0.531072    2.330821    1.711364
     21          6           0       -4.456790   -0.464677   -0.030563
     22          6           0       -4.944492    0.483180   -1.126782
     23          6           0       -6.462099    0.445160   -1.309041
     24          1           0       -4.772912   -1.488592   -0.272660
     25          1           0       -4.947496   -0.201804    0.916801
     26          1           0       -4.451966    0.219475   -2.071501
     27          1           0       -4.627007    1.504929   -0.882144
     28          1           0       -6.968788    0.729268   -0.381059
     29          1           0       -6.792752   -0.563490   -1.577174
     30          1           0       -6.789042    1.130182   -2.097528
     31          6           0       -2.941750   -0.437950    0.163523
     32          6           0       -2.454048   -1.385808    1.259742
     33          6           0       -0.936440   -1.347787    1.442000
     34          1           0       -2.451043   -0.700824   -0.783841
     35          1           0       -2.625628    0.585965    0.405620
     36          1           0       -2.771533   -2.407557    1.015104
     37          1           0       -2.946573   -1.122103    2.204461
     38          1           0       -0.605787   -0.339138    1.710133
     39          1           0       -0.429751   -1.631895    0.514019
     40          1           0       -0.609498   -2.032810    2.230488
 ---------------------------------------------------------------------

 SCF Done:  E(RHF) =  -470.732808419     A.U. after   11 cycles
 E2 =    -0.1583059488D+01 EUMP2 =    -0.47231586790667D+03

 The electronic state is 1-A.
 Alpha  occ. eigenvalues --  -11.21621 -11.21610 -11.21565 -11.21443 -11.21419
 Alpha  occ. eigenvalues --  -11.21360 -11.21343 -11.21280 -11.21089 -11.21077
 Alpha  occ. eigenvalues --  -11.21049 -11.21044  -1.08449  -1.08365  -1.03569
 Alpha  occ. eigenvalues --   -1.03459  -0.96023  -0.95920  -0.87033  -0.86946
 Alpha  occ. eigenvalues --   -0.79695  -0.79472  -0.78282  -0.78151  -0.65087
 Alpha  occ. eigenvalues --   -0.64998  -0.61011  -0.60845  -0.59388  -0.59299
 Alpha  occ. eigenvalues --   -0.57716  -0.57452  -0.55324  -0.55183  -0.52703
 Alpha  occ. eigenvalues --   -0.52645  -0.52432  -0.52360  -0.49948  -0.49864
 Alpha  occ. eigenvalues --   -0.48097  -0.47749  -0.46667  -0.46500  -0.45891
 Alpha  occ. eigenvalues --   -0.45726  -0.45699  -0.45462  -0.43802  -0.43729
 Alpha virt. eigenvalues --    0.21639   0.23026   0.23501   0.25022   0.25772
 Alpha virt. eigenvalues --    0.26395   0.27074   0.27377   0.28014   0.29197
 Alpha virt. eigenvalues --    0.30573   0.31156   0.31666   0.31779   0.32337

 Mulliken charges:
               1
     1  C   -0.298211
     2  C   -0.299581
     3  C   -0.475653
     4  H    0.149594
     5  H    0.149442
     6  H    0.151863
     7  H    0.151735
     8  H    0.155073
     9  H    0.155149
    10  H    0.160089
    11  C   -0.297664
    12  C   -0.308146
    13  C   -0.476723
    14  H    0.148897
    15  H    0.149116
    16  H    0.151035
    17  H    0.163285
    18  H    0.155504
    19  H    0.155322
    20  H    0.158818
    21  C   -0.298258
    22  C   -0.299684
    23  C   -0.475716
    24  H    0.149642
    25  H    0.149597
    26  H    0.151805
    27  H    0.152148
    28  H    0.155231
    29  H    0.155155
    30  H    0.160297
    31  C   -0.298600
    32  C   -0.299958
    33  C   -0.480479
    34  H    0.149074
    35  H    0.150312
    36  H    0.151851
    37  H    0.151997
    38  H    0.161773
    39  H    0.154136
    40  H    0.160733
 Sum of Mulliken charges =  -0.00000

 Dipole moment (field-independent basis, Debye):
    X=             -0.0298    Y=             -0.0196    Z=              0.0140  Tot=              0.0383
 Quadrupole moment (field-independent basis, Debye-Ang):
   XX=            -86.2056   YY=            -84.7829   ZZ=            -83.9763
   XY=              0.8820   XZ=              0.1336   YZ=              0.7606

 Normal termination of Gaussian 16 at Wed May  5 19:59:56 2021.
