 Gaussian 16, Revision A.03,
 Gaussian 16:  EM64L-G16RevA.03 25-Dec-2016

 -------------
 #p 6-31g* mp2
 -------------

 ------------------------------------------------------
 Input file generated by CHIRIPA (05-May-2021 14:53:15)
 ------------------------------------------------------
 Symbolic Z-matrix:
 Charge =  0 Multiplicity = 1

                         Standard orientation:
 ---------------------------------------------------------------------
 Center     Atomic      Atomic             Coordinates (Angstroms)
 Number     Number       Type             X           Y           Z
 ---------------------------------------------------------------------
      1          6           0       -4.345191   -0.279187   -0.145333
      2          6           0       -3.488308   -1.139527    0.783942
      3          6           0       -2.025336   -1.207451    0.344745
      4          1           0       -4.285540   -0.681644   -1.165830
      5          1           0       -3.925665    0.735632   -0.184534
      6          1           0       -3.910127   -2.152049    0.822461
      7          1           0       -3.550158   -0.735088    1.802382
      8          1           0       -1.582435   -0.206444    0.324114
      9          1           0       -1.944449   -1.631456   -0.661375
     10          1           0       -1.430923   -1.827523    1.023011
     11          6           0       -5.810211   -0.201571    0.280603
     12          6           0       -6.667094    0.658768   -0.648672
     13          6           0       -8.130066    0.726693   -0.209475
     14          1           0       -6.229736   -1.216390    0.319803
     15          1           0       -5.869861    0.200885    1.301100
     16          1           0       -6.605244    0.254330   -1.667112
     17          1           0       -6.245275    1.671291   -0.687191
     18          1           0       -8.210952    1.150697    0.796645
     19          1           0       -8.572966   -0.274314   -0.188844
     20          1           0       -8.724478    1.346764   -0.887741
     21          6           0        1.512759    0.771192   -0.002861
     22          6           0        1.916015   -0.534044   -0.303303
     23          6           0        3.273097   -0.868625   -0.333835
     24          6           0        4.204216    0.131396   -0.057672
     25          6           0        3.833864    1.440793    0.244995
     26          6           0        2.471281    1.752714    0.269848
     27          1           0        0.456408    1.022301    0.018650
     28          1           0        1.173823   -1.298351   -0.515505
     29          1           0        3.613011   -1.871189   -0.563489
     30          1           0        4.596991    2.181149    0.452186
     31          1           0        2.161012    2.767206    0.503483
     32          7           0        5.643810   -0.210816   -0.086988
     33          8           0        6.444479    0.688391    0.159979
     34          8           0        5.944237   -1.371768   -0.356378
 ---------------------------------------------------------------------

 SCF Done:  E(RHF) =  -669.535433690     A.U. after   15 cycles
 E2 =    -0.2091170440D+01 EUMP2 =    -0.67162660412934D+03

 The electronic state is 1-A.
 Alpha  occ. eigenvalues --  -20.60695 -20.60690 -15.85748 -11.31093 -11.27664
 Alpha  occ. eigenvalues --  -11.27650 -11.27367 -11.26674 -11.26626 -11.22597
 Alpha  occ. eigenvalues --  -11.22440 -11.22230 -11.22169 -11.22034 -11.21539
 Alpha  occ. eigenvalues --   -1.59771  -1.39325  -1.19260  -1.09220  -1.08656
 Alpha  occ. eigenvalues --   -1.04661  -1.04356  -0.96838  -0.95497  -0.87868
 Alpha  occ. eigenvalues --   -0.86051  -0.82333  -0.80439  -0.78991  -0.77380
 Alpha  occ. eigenvalues --   -0.71966  -0.71094  -0.70391  -0.65847  -0.64910
 Alpha  occ. eigenvalues --   -0.64661  -0.62012  -0.61757  -0.60212  -0.58420
 Alpha  occ. eigenvalues --   -0.56208  -0.55126  -0.53552  -0.53241  -0.52989
 Alpha  occ. eigenvalues --   -0.52724  -0.50768  -0.48745  -0.48722  -0.48717
 Alpha  occ. eigenvalues --   -0.47443  -0.46544  -0.46438  -0.44736  -0.44588
 Alpha  occ. eigenvalues --   -0.37234  -0.36267
 Alpha virt. eigenvalues --    0.05148   0.11374   0.16639   0.19880   0.22263
 Alpha virt. eigenvalues --    0.23750   0.25142   0.25641   0.26642   0.27239
 Alpha virt. eigenvalues --    0.28879   0.29631   0.30745   0.31537   0.32123

 Mulliken charges:
               1
     1  C   -0.298752
     2  C   -0.300229
     3  C   -0.482505
     4  H    0.150984
     5  H    0.147256
     6  H    0.156350
     7  H    0.154928
     8  H    0.147665
     9  H    0.156477
    10  H    0.164009
    11  C   -0.298970
    12  C   -0.300106
    13  C   -0.476126
    14  H    0.151329
    15  H    0.150703
    16  H    0.152748
    17  H    0.151737
    18  H    0.155806
    19  H    0.156191
    20  H    0.161753
    21  C   -0.174060
    22  C   -0.223133
    23  C   -0.171425
    24  C    0.158470
    25  C   -0.171098
    26  C   -0.219166
    27  H    0.230088
    28  H    0.228981
    29  H    0.275299
    30  H    0.275135
    31  H    0.223066
    32  N    0.488039
    33  O   -0.460740
    34  O   -0.460703
 Sum of Mulliken charges =  -0.00000

 Dipole moment (field-independent basis, Debye):
    X=             -5.3614    Y=              1.1432    Z=              0.1271  Tot=              5.4834
 Quadrupole moment (field-independent basis, Debye-Ang):
   XX=           -138.0461   YY=            -89.2927   ZZ=            -95.0251
   XY=              6.1470   XZ=              1.2859   YZ=              1.6722

 Normal termination of Gaussian 16 at Thu May  6 17:10:50 2021.
