 Gaussian 16, Revision A.03,
 Gaussian 16:  EM64L-G16RevA.03 25-Dec-2016

 -------------
 #p 6-31g* mp2
 -------------

 ------------------------------------------------------
 Input file generated by CHIRIPA (05-May-2021 14:57:25)
 ------------------------------------------------------
 Symbolic Z-matrix:
 Charge =  0 Multiplicity = 1

                         Standard orientation:
 ---------------------------------------------------------------------
 Center     Atomic      Atomic             Coordinates (Angstroms)
 Number     Number       Type             X           Y           Z
 ---------------------------------------------------------------------
      1          6           0       -1.349010   -0.039551    0.189935
      2          6           0       -2.143485    1.009596    0.663875
      3          6           0       -3.536857    0.943030    0.570973
      4          6           0       -4.104942   -0.192640   -0.004200
      5          6           0       -3.340379   -1.254282   -0.485498
      6          6           0       -1.948934   -1.166156   -0.382230
      7          1           0       -0.267353    0.020533    0.266130
      8          1           0       -1.680317    1.885754    1.108699
      9          1           0       -4.175731    1.740817    0.929852
     10          1           0       -3.830969   -2.114810   -0.923940
     11          1           0       -1.334431   -1.982450   -0.751140
     12          7           0       -5.579022   -0.274523   -0.108038
     13          8           0       -6.055122   -1.285914   -0.618972
     14          8           0       -6.230395    0.674239    0.323473
     15          6           0        5.293691   -1.866608    0.349127
     16          6           0        5.297680   -1.219988   -0.891191
     17          6           0        4.508376   -0.085684   -1.103088
     18          6           0        3.723585    0.376920   -0.047914
     19          6           0        3.698029   -0.245347    1.199251
     20          6           0        4.495284   -1.378085    1.388556
     21          1           0        5.909930   -2.747154    0.504958
     22          1           0        5.916745   -1.597151   -1.700236
     23          1           0        4.492423    0.434298   -2.053236
     24          1           0        3.070505    0.154136    1.986680
     25          1           0        4.490190   -1.878225    2.352859
     26          7           0        2.883774    1.576928   -0.260281
     27          8           0        2.201161    1.964634    0.685424
     28          8           0        2.924047    2.107065   -1.368420
 ---------------------------------------------------------------------

 SCF Done:  E(RHF) =  -868.339532494     A.U. after   16 cycles
 E2 =    -0.2598738095D+01 EUMP2 =    -0.87093827058903D+03

 The electronic state is 1-A.
 Alpha  occ. eigenvalues --  -20.61988 -20.61929 -20.60312 -20.60303 -15.86977
 Alpha  occ. eigenvalues --  -15.85359 -11.32152 -11.30607 -11.28704 -11.28656
 Alpha  occ. eigenvalues --  -11.28354 -11.27642 -11.27617 -11.27201 -11.27116
 Alpha  occ. eigenvalues --  -11.26792 -11.26191 -11.26011  -1.61023  -1.59388
 Alpha  occ. eigenvalues --   -1.40581  -1.38945  -1.20296  -1.18755  -1.09722
 Alpha  occ. eigenvalues --   -1.08154  -1.05658  -1.04141  -0.96587  -0.95015
 Alpha  occ. eigenvalues --   -0.87063  -0.85528  -0.83419  -0.81855  -0.78500
 Alpha  occ. eigenvalues --   -0.76933  -0.73191  -0.72355  -0.71579  -0.71378
 Alpha  occ. eigenvalues --   -0.70710  -0.69813  -0.65939  -0.65641  -0.64396
 Alpha  occ. eigenvalues --   -0.64118  -0.63002  -0.61488  -0.56143  -0.54590
 Alpha  occ. eigenvalues --   -0.54010  -0.53733  -0.52480  -0.52214  -0.49970
 Alpha  occ. eigenvalues --   -0.49928  -0.48342  -0.48325  -0.46005  -0.44377
 Alpha  occ. eigenvalues --   -0.38261  -0.37258  -0.36708  -0.35752
 Alpha virt. eigenvalues --    0.03992   0.05594   0.10369   0.11911   0.15506
 Alpha virt. eigenvalues --    0.17129   0.20572   0.22043   0.26492   0.27276
 Alpha virt. eigenvalues --    0.28016   0.28484   0.30365   0.31246   0.32235

 Mulliken charges:
               1
     1  C   -0.171686
     2  C   -0.219524
     3  C   -0.172101
     4  C    0.157961
     5  C   -0.171912
     6  C   -0.219159
     7  H    0.228477
     8  H    0.233263
     9  H    0.274666
    10  H    0.272808
    11  H    0.218981
    12  N    0.488184
    13  O   -0.462729
    14  O   -0.461179
    15  C   -0.170145
    16  C   -0.218459
    17  C   -0.170882
    18  C    0.155451
    19  C   -0.174701
    20  C   -0.218324
    21  H    0.228961
    22  H    0.226721
    23  H    0.277672
    24  H    0.274752
    25  H    0.226328
    26  N    0.486963
    27  O   -0.466976
    28  O   -0.453412
 Sum of Mulliken charges =  -0.00000

 Dipole moment (field-independent basis, Debye):
    X=              8.6089    Y=             -3.8678    Z=              1.0914  Tot=              9.5007
 Quadrupole moment (field-independent basis, Debye-Ang):
   XX=           -125.6609   YY=           -104.7071   ZZ=           -100.1482
   XY=            -18.0377   XZ=             -1.1888   YZ=              2.1694

 Normal termination of Gaussian 16 at Thu May  6 08:16:05 2021.
