 Gaussian 16, Revision A.03,
 Gaussian 16:  EM64L-G16RevA.03 25-Dec-2016

 -------------
 #p 6-31g* mp2
 -------------

 ------------------------------------------------------
 Input file generated by CHIRIPA (05-May-2021 14:53:12)
 ------------------------------------------------------
 Symbolic Z-matrix:
 Charge =  0 Multiplicity = 1

                         Standard orientation:
 ---------------------------------------------------------------------
 Center     Atomic      Atomic             Coordinates (Angstroms)
 Number     Number       Type             X           Y           Z
 ---------------------------------------------------------------------
      1          6           0       -4.514132   -0.141520    0.456786
      2          6           0       -4.921584   -1.435807   -0.248045
      3          6           0       -5.826238   -2.318132    0.612709
      4          1           0       -4.001103   -0.388928    1.396220
      5          1           0       -5.418699    0.418014    0.732602
      6          1           0       -4.016482   -1.992073   -0.523681
      7          1           0       -5.433533   -1.185291   -1.186004
      8          1           0       -6.745590   -1.785515    0.876740
      9          1           0       -5.320489   -2.596880    1.542826
     10          1           0       -6.105414   -3.238009    0.089501
     11          6           0       -3.609643    0.751133   -0.391033
     12          6           0       -3.202190    2.045421    0.313798
     13          6           0       -2.297536    2.927746   -0.546956
     14          1           0       -2.705075    0.191600   -0.666849
     15          1           0       -4.122671    0.998542   -1.330467
     16          1           0       -2.690242    1.794905    1.251757
     17          1           0       -4.107292    2.601686    0.589434
     18          1           0       -2.803286    3.206494   -1.477073
     19          1           0       -1.378184    2.395129   -0.810987
     20          1           0       -2.018360    3.847623   -0.023748
     21          6           0        5.666222   -0.215730    0.362911
     22          6           0        4.905119    0.925931    0.634673
     23          6           0        3.523167    0.924893    0.423120
     24          6           0        2.932348   -0.240296   -0.063253
     25          6           0        3.663511   -1.393606   -0.343551
     26          6           0        5.044086   -1.369819   -0.124475
     27          1           0        6.739221   -0.206088    0.530172
     28          1           0        5.385593    1.823630    1.013255
     29          1           0        2.909995    1.794746    0.625096
     30          1           0        3.156258   -2.273527   -0.720182
     31          1           0        5.632658   -2.257913   -0.336410
     32          7           0        1.470066   -0.253436   -0.291197
     33          8           0        0.973440   -1.292591   -0.720332
     34          8           0        0.848243    0.775669   -0.036409
 ---------------------------------------------------------------------

 SCF Done:  E(RHF) =  -669.536623078     A.U. after   15 cycles
 E2 =    -0.2091009467D+01 EUMP2 =    -0.67162763254528D+03

 The electronic state is 1-A.
 Alpha  occ. eigenvalues --  -20.61073 -20.61065 -15.86093 -11.31364 -11.27920
 Alpha  occ. eigenvalues --  -11.27915 -11.27650 -11.26916 -11.26906 -11.20550
 Alpha  occ. eigenvalues --  -11.20232 -11.20201 -11.20163 -11.19876 -11.19443
 Alpha  occ. eigenvalues --   -1.60125  -1.39682  -1.19527  -1.08941  -1.07137
 Alpha  occ. eigenvalues --   -1.04915  -1.02267  -0.95792  -0.94722  -0.86318
 Alpha  occ. eigenvalues --   -0.85745  -0.82626  -0.78366  -0.77684  -0.76925
 Alpha  occ. eigenvalues --   -0.72320  -0.71432  -0.70635  -0.65184  -0.64918
 Alpha  occ. eigenvalues --   -0.63751  -0.62262  -0.59642  -0.58133  -0.56340
 Alpha  occ. eigenvalues --   -0.55422  -0.53984  -0.53250  -0.53005  -0.51464
 Alpha  occ. eigenvalues --   -0.51154  -0.49119  -0.49070  -0.48595  -0.46674
 Alpha  occ. eigenvalues --   -0.45398  -0.45081  -0.44495  -0.44305  -0.42526
 Alpha  occ. eigenvalues --   -0.37504  -0.36514
 Alpha virt. eigenvalues --    0.04834   0.11142   0.16337   0.21272   0.24134
 Alpha virt. eigenvalues --    0.25572   0.27206   0.27886   0.28199   0.28838
 Alpha virt. eigenvalues --    0.29256   0.30858   0.32321   0.32708   0.32875

 Mulliken charges:
               1
     1  C   -0.297113
     2  C   -0.299966
     3  C   -0.474934
     4  H    0.149173
     5  H    0.144540
     6  H    0.156844
     7  H    0.149285
     8  H    0.152580
     9  H    0.154078
    10  H    0.157369
    11  C   -0.303171
    12  C   -0.294990
    13  C   -0.485641
    14  H    0.167738
    15  H    0.143787
    16  H    0.153011
    17  H    0.143626
    18  H    0.146818
    19  H    0.181507
    20  H    0.150927
    21  C   -0.170413
    22  C   -0.218579
    23  C   -0.170714
    24  C    0.157471
    25  C   -0.170391
    26  C   -0.218630
    27  H    0.226267
    28  H    0.224147
    29  H    0.276205
    30  H    0.275937
    31  H    0.224045
    32  N    0.492129
    33  O   -0.459304
    34  O   -0.463639
 Sum of Mulliken charges =  -0.00000

 Dipole moment (field-independent basis, Debye):
    X=              5.6127    Y=             -0.0865    Z=              0.7677  Tot=              5.6656
 Quadrupole moment (field-independent basis, Debye-Ang):
   XX=            -66.4440   YY=            -91.4927   ZZ=            -95.4185
   XY=             -1.8963   XZ=              2.7714   YZ=              1.8511

 Normal termination of Gaussian 16 at Thu May  6 17:00:38 2021.
