 Gaussian 16, Revision A.03,
 Gaussian 16:  EM64L-G16RevA.03 25-Dec-2016

 -------------
 #p 6-31g* mp2
 -------------

 ------------------------------------------------------
 Input file generated by CHIRIPA (05-May-2021 14:57:23)
 ------------------------------------------------------
 Symbolic Z-matrix:
 Charge =  0 Multiplicity = 1

                         Standard orientation:
 ---------------------------------------------------------------------
 Center     Atomic      Atomic             Coordinates (Angstroms)
 Number     Number       Type             X           Y           Z
 ---------------------------------------------------------------------
      1          6           0       -4.775419    2.082394    0.396638
      2          6           0       -3.383832    2.150957    0.272922
      3          6           0       -2.641976    1.008850   -0.042971
      4          6           0       -3.327203   -0.190752   -0.229274
      5          6           0       -4.712724   -0.291160   -0.112913
      6          6           0       -5.434262    0.863703    0.203666
      7          1           0       -5.343819    2.974565    0.642298
      8          1           0       -2.869501    3.096057    0.422236
      9          1           0       -1.563816    1.033607   -0.144837
     10          1           0       -5.197361   -1.247522   -0.267564
     11          1           0       -6.514899    0.807487    0.299107
     12          7           0       -2.552588   -1.406602   -0.564058
     13          8           0       -3.179975   -2.451432   -0.723288
     14          8           0       -1.332725   -1.291734   -0.660894
     15          6           0        2.302194   -1.038967    2.168523
     16          6           0        2.028268   -1.511470    0.880802
     17          6           0        2.661065   -0.948644   -0.231557
     18          6           0        3.566306    0.089878   -0.018716
     19          6           0        3.860277    0.582540    1.251777
     20          6           0        3.215713    0.004690    2.349582
     21          1           0        1.806051   -1.482020    3.026977
     22          1           0        1.319272   -2.321868    0.737188
     23          1           0        2.467577   -1.295121   -1.239493
     24          1           0        4.571836    1.391651    1.363315
     25          1           0        3.430395    0.373667    3.348487
     26          7           0        4.242447    0.693669   -1.188618
     27          8           0        5.035916    1.607539   -0.974408
     28          8           0        3.966136    0.241618   -2.297644
 ---------------------------------------------------------------------

 SCF Done:  E(RHF) =  -868.339752127     A.U. after   16 cycles
 E2 =    -0.2598724473D+01 EUMP2 =    -0.87093847659947D+03

 The electronic state is 1-A.
 Alpha  occ. eigenvalues --  -20.61437 -20.61406 -20.60269 -20.60251 -15.86458
 Alpha  occ. eigenvalues --  -15.85306 -11.31611 -11.30527 -11.28159 -11.28139
 Alpha  occ. eigenvalues --  -11.27861 -11.27127 -11.27125 -11.27107 -11.26931
 Alpha  occ. eigenvalues --  -11.26771 -11.26159 -11.25857  -1.60493  -1.59343
 Alpha  occ. eigenvalues --   -1.40051  -1.38898  -1.19765  -1.18673  -1.09202
 Alpha  occ. eigenvalues --   -1.08105  -1.05133  -1.04015  -0.96071  -0.94963
 Alpha  occ. eigenvalues --   -0.86541  -0.85431  -0.82911  -0.81770  -0.77978
 Alpha  occ. eigenvalues --   -0.76834  -0.72695  -0.71801  -0.71526  -0.70867
 Alpha  occ. eigenvalues --   -0.70667  -0.69788  -0.65421  -0.65131  -0.64308
 Alpha  occ. eigenvalues --   -0.63985  -0.62478  -0.61337  -0.55643  -0.54562
 Alpha  occ. eigenvalues --   -0.53480  -0.53219  -0.52404  -0.52076  -0.49451
 Alpha  occ. eigenvalues --   -0.49424  -0.48290  -0.48270  -0.45499  -0.44334
 Alpha  occ. eigenvalues --   -0.37738  -0.36729  -0.36687  -0.35601
 Alpha virt. eigenvalues --    0.04523   0.05644   0.10928   0.12029   0.16054
 Alpha virt. eigenvalues --    0.17178   0.21100   0.22219   0.27032   0.27899
 Alpha virt. eigenvalues --    0.28320   0.28990   0.30685   0.31774   0.32209

 Mulliken charges:
               1
     1  C   -0.170113
     2  C   -0.218800
     3  C   -0.171225
     4  C    0.157229
     5  C   -0.170804
     6  C   -0.218701
     7  H    0.227213
     8  H    0.225648
     9  H    0.277381
    10  H    0.275844
    11  H    0.224646
    12  N    0.489558
    13  O   -0.458556
    14  O   -0.468145
    15  C   -0.174988
    16  C   -0.214609
    17  C   -0.171681
    18  C    0.155989
    19  C   -0.174468
    20  C   -0.219753
    21  H    0.223402
    22  H    0.239205
    23  H    0.280372
    24  H    0.271995
    25  H    0.219343
    26  N    0.487779
    27  O   -0.464124
    28  O   -0.459636
 Sum of Mulliken charges =  -0.00000

 Dipole moment (field-independent basis, Debye):
    X=             -5.4820    Y=              2.0378    Z=              5.2099  Tot=              7.8325
 Quadrupole moment (field-independent basis, Debye-Ang):
   XX=           -100.1416   YY=           -104.0244   ZZ=           -105.2736
   XY=            -18.0772   XZ=             12.9479   YZ=              1.4961

 Normal termination of Gaussian 16 at Thu May  6 06:37:30 2021.
