 Gaussian 16, Revision A.03,
 Gaussian 16:  EM64L-G16RevA.03 25-Dec-2016

 -------------
 #p 6-31g* mp2
 -------------

 ------------------------------------------------------
 Input file generated by CHIRIPA (05-May-2021 14:53:13)
 ------------------------------------------------------
 Symbolic Z-matrix:
 Charge =  0 Multiplicity = 1

                         Standard orientation:
 ---------------------------------------------------------------------
 Center     Atomic      Atomic             Coordinates (Angstroms)
 Number     Number       Type             X           Y           Z
 ---------------------------------------------------------------------
      1          6           0       -2.715822    1.535766   -0.009320
      2          6           0       -1.326586    2.037388   -0.404774
      3          6           0       -1.100351    3.503795   -0.035638
      4          1           0       -3.476756    2.159873   -0.497599
      5          1           0       -2.851158    1.667434    1.073150
      6          1           0       -1.193388    1.903535   -1.485957
      7          1           0       -0.568871    1.411895    0.084351
      8          1           0       -1.206297    3.649996    1.044178
      9          1           0       -1.834362    4.144429   -0.535053
     10          1           0       -0.101023    3.841637   -0.327300
     11          6           0       -2.957072    0.071484   -0.371820
     12          6           0       -4.346308   -0.430137    0.023634
     13          6           0       -4.572543   -1.896544   -0.345503
     14          1           0       -2.821735   -0.060183   -1.454290
     15          1           0       -2.196138   -0.552622    0.116459
     16          1           0       -5.104022    0.195356   -0.465491
     17          1           0       -4.479506   -0.296284    1.104817
     18          1           0       -3.838531   -2.537179    0.153913
     19          1           0       -4.466596   -2.042745   -1.425318
     20          1           0       -5.571870   -2.234386   -0.053840
     21          6           0        4.219567    0.802685   -0.403525
     22          6           0        3.428403    1.105940    0.709406
     23          6           0        2.315910    0.320249    1.024997
     24          6           0        2.022274   -0.766129    0.202287
     25          6           0        2.791153   -1.093897   -0.913365
     26          6           0        3.898983   -0.294331   -1.209938
     27          1           0        5.081968    1.418419   -0.641297
     28          1           0        3.674989    1.957286    1.337457
     29          1           0        1.686318    0.532404    1.880579
     30          1           0        2.520228   -1.949001   -1.520669
     31          1           0        4.511620   -0.532212   -2.074885
     32          7           0        0.846996   -1.605250    0.526322
     33          8           0        0.609506   -2.556915   -0.214333
     34          8           0        0.185557   -1.295399    1.514820
 ---------------------------------------------------------------------

 SCF Done:  E(RHF) =  -669.536614829     A.U. after   15 cycles
 E2 =    -0.2093142539D+01 EUMP2 =    -0.67162975736811D+03

 The electronic state is 1-A.
 Alpha  occ. eigenvalues --  -20.61061 -20.61055 -15.86056 -11.31335 -11.27892
 Alpha  occ. eigenvalues --  -11.27882 -11.27616 -11.26886 -11.26876 -11.21171
 Alpha  occ. eigenvalues --  -11.20894 -11.20667 -11.20617 -11.20230 -11.19995
 Alpha  occ. eigenvalues --   -1.60100  -1.39659  -1.19497  -1.08909  -1.07631
 Alpha  occ. eigenvalues --   -1.04885  -1.02817  -0.95759  -0.95257  -0.86304
 Alpha  occ. eigenvalues --   -0.86265  -0.82596  -0.78925  -0.77660  -0.77390
 Alpha  occ. eigenvalues --   -0.72282  -0.71408  -0.70606  -0.65155  -0.64887
 Alpha  occ. eigenvalues --   -0.64238  -0.62235  -0.60215  -0.58686  -0.56864
 Alpha  occ. eigenvalues --   -0.55392  -0.54537  -0.53211  -0.52975  -0.52019
 Alpha  occ. eigenvalues --   -0.51680  -0.49279  -0.49046  -0.48971  -0.47232
 Alpha  occ. eigenvalues --   -0.45987  -0.45360  -0.44931  -0.44427  -0.43029
 Alpha  occ. eigenvalues --   -0.37455  -0.36466
 Alpha virt. eigenvalues --    0.04821   0.11083   0.16315   0.21218   0.23560
 Alpha virt. eigenvalues --    0.24973   0.26976   0.27414   0.27891   0.28561
 Alpha virt. eigenvalues --    0.28677   0.30940   0.31770   0.32171   0.32393

 Mulliken charges:
               1
     1  C   -0.295563
     2  C   -0.302781
     3  C   -0.475328
     4  H    0.145689
     5  H    0.149900
     6  H    0.149771
     7  H    0.151232
     8  H    0.153593
     9  H    0.155526
    10  H    0.154293
    11  C   -0.310269
    12  C   -0.298187
    13  C   -0.477156
    14  H    0.144443
    15  H    0.174157
    16  H    0.146232
    17  H    0.151731
    18  H    0.166166
    19  H    0.152351
    20  H    0.155451
    21  C   -0.170392
    22  C   -0.218699
    23  C   -0.171069
    24  C    0.160786
    25  C   -0.170591
    26  C   -0.218438
    27  H    0.226247
    28  H    0.224347
    29  H    0.275834
    30  H    0.275995
    31  H    0.224021
    32  N    0.488659
    33  O   -0.457439
    34  O   -0.460510
 Sum of Mulliken charges =  -0.00000

 Dipole moment (field-independent basis, Debye):
    X=              4.3681    Y=              2.7209    Z=             -1.0665  Tot=              5.2555
 Quadrupole moment (field-independent basis, Debye-Ang):
   XX=            -78.9388   YY=            -99.4637   ZZ=            -91.6587
   XY=              2.1452   XZ=             -2.5040   YZ=              3.7166

 Normal termination of Gaussian 16 at Thu May  6 05:47:58 2021.
