 Gaussian 16, Revision A.03,
 Gaussian 16:  EM64L-G16RevA.03 25-Dec-2016

 -------------
 #p 6-31g* mp2
 -------------

 ------------------------------------------------------
 Input file generated by CHIRIPA (05-May-2021 14:53:12)
 ------------------------------------------------------
 Symbolic Z-matrix:
 Charge =  0 Multiplicity = 1

                         Standard orientation:
 ---------------------------------------------------------------------
 Center     Atomic      Atomic             Coordinates (Angstroms)
 Number     Number       Type             X           Y           Z
 ---------------------------------------------------------------------
      1          6           0        3.383348   -0.987328    0.165579
      2          6           0        2.007665   -0.868279    0.822320
      3          6           0        1.305106   -2.218056    0.971679
      4          1           0        3.271871   -1.455544   -0.821990
      5          1           0        4.009963   -1.663740    0.763254
      6          1           0        1.384285   -0.191205    0.224336
      7          1           0        2.122406   -0.400118    1.808360
      8          1           0        1.903783   -2.898034    1.586346
      9          1           0        1.161467   -2.687935   -0.006678
     10          1           0        0.323473   -2.109686    1.443392
     11          6           0        4.098166    0.353700    0.009353
     12          6           0        5.473849    0.234651   -0.647388
     13          6           0        6.176408    1.584428   -0.796747
     14          1           0        3.471551    1.030112   -0.588322
     15          1           0        4.209643    0.821916    0.996922
     16          1           0        5.359107   -0.233510   -1.633428
     17          1           0        6.097229   -0.442422   -0.049404
     18          1           0        6.320046    2.054308    0.181610
     19          1           0        5.577731    2.264407   -1.411414
     20          1           0        7.158041    1.476058   -1.268460
     21          6           0       -2.779514    2.703215    0.492920
     22          6           0       -3.883822    2.208682   -0.208836
     23          6           0       -3.973579    0.849863   -0.525229
     24          6           0       -2.936287    0.010102   -0.122593
     25          6           0       -1.823185    0.472613    0.577678
     26          6           0       -1.754527    1.835133    0.883249
     27          1           0       -2.717983    3.760215    0.734499
     28          1           0       -4.681327    2.880521   -0.513241
     29          1           0       -4.817157    0.440359   -1.067540
     30          1           0       -1.043858   -0.221602    0.867733
     31          1           0       -0.895719    2.216401    1.428344
     32          7           0       -3.020141   -1.430377   -0.451815
     33          8           0       -2.093059   -2.149529   -0.085786
     34          8           0       -4.011358   -1.812997   -1.069655
 ---------------------------------------------------------------------

 SCF Done:  E(RHF) =  -669.535077708     A.U. after   15 cycles
 E2 =    -0.2092600342D+01 EUMP2 =    -0.67162767804986D+03

 The electronic state is 1-A.
 Alpha  occ. eigenvalues --  -20.60799 -20.60786 -15.85837 -11.31175 -11.27755
 Alpha  occ. eigenvalues --  -11.27695 -11.27492 -11.26769 -11.26744 -11.21743
 Alpha  occ. eigenvalues --  -11.21697 -11.21524 -11.21423 -11.21196 -11.20626
 Alpha  occ. eigenvalues --   -1.59870  -1.39424  -1.19353  -1.08755  -1.08514
 Alpha  occ. eigenvalues --   -1.04753  -1.03564  -0.95974  -0.95578  -0.86953
 Alpha  occ. eigenvalues --   -0.86152  -0.82429  -0.79634  -0.78362  -0.77481
 Alpha  occ. eigenvalues --   -0.72071  -0.71188  -0.70473  -0.65161  -0.65006
 Alpha  occ. eigenvalues --   -0.64759  -0.62191  -0.60919  -0.59306  -0.57594
 Alpha  occ. eigenvalues --   -0.55283  -0.55174  -0.53085  -0.52919  -0.52571
 Alpha  occ. eigenvalues --   -0.52304  -0.49873  -0.48819  -0.48814  -0.47926
 Alpha  occ. eigenvalues --   -0.46670  -0.45878  -0.45811  -0.44828  -0.43786
 Alpha  occ. eigenvalues --   -0.37338  -0.36347
 Alpha virt. eigenvalues --    0.05016   0.11269   0.16510   0.20669   0.22909
 Alpha virt. eigenvalues --    0.24059   0.26322   0.26663   0.27180   0.27989
 Alpha virt. eigenvalues --    0.29474   0.30913   0.31421   0.31708   0.31980

 Mulliken charges:
               1
     1  C   -0.297240
     2  C   -0.307937
     3  C   -0.479461
     4  H    0.153254
     5  H    0.151273
     6  H    0.144510
     7  H    0.146652
     8  H    0.153773
     9  H    0.167071
    10  H    0.169057
    11  C   -0.298274
    12  C   -0.299795
    13  C   -0.475702
    14  H    0.147605
    15  H    0.147428
    16  H    0.153391
    17  H    0.152763
    18  H    0.154306
    19  H    0.154394
    20  H    0.161037
    21  C   -0.170293
    22  C   -0.219158
    23  C   -0.169786
    24  C    0.154989
    25  C   -0.176843
    26  C   -0.224177
    27  H    0.225638
    28  H    0.223396
    29  H    0.275516
    30  H    0.292636
    31  H    0.224971
    32  N    0.489321
    33  O   -0.464223
    34  O   -0.460096
 Sum of Mulliken charges =  -0.00000

 Dipole moment (field-independent basis, Debye):
    X=              0.2739    Y=              4.9222    Z=              1.1006  Tot=              5.0512
 Quadrupole moment (field-independent basis, Debye-Ang):
   XX=            -93.0393   YY=            -95.5334   ZZ=            -94.0023
   XY=            -16.7130   XZ=             -0.8300   YZ=             -0.8947

 Normal termination of Gaussian 16 at Thu May  6 00:55:56 2021.
