 Gaussian 16, Revision A.03,
 Gaussian 16:  EM64L-G16RevA.03 25-Dec-2016

 -------------
 #p 6-31g* mp2
 -------------

 ------------------------------------------------------
 Input file generated by CHIRIPA (05-May-2021 14:51:13)
 ------------------------------------------------------
 Symbolic Z-matrix:
 Charge =  0 Multiplicity = 1

                         Standard orientation:
 ---------------------------------------------------------------------
 Center     Atomic      Atomic             Coordinates (Angstroms)
 Number     Number       Type             X           Y           Z
 ---------------------------------------------------------------------
      1          6           0        2.946056    0.830242    0.037234
      2          6           0        3.245130    2.318897   -0.142891
      3          6           0        2.005852    3.196587    0.034999
      4          1           0        2.174308    0.527932   -0.683848
      5          1           0        2.520606    0.667220    1.037140
      6          1           0        3.671174    2.478866   -1.141647
      7          1           0        4.016394    2.617655    0.578575
      8          1           0        1.582046    3.066399    1.036018
      9          1           0        1.234865    2.926822   -0.693977
     10          1           0        2.242373    4.256883   -0.098013
     11          6           0        4.175082   -0.060075   -0.137579
     12          6           0        3.876007   -1.548730    0.042546
     13          6           0        5.115285   -2.426420   -0.135344
     14          1           0        4.600531    0.102948   -1.137485
     15          1           0        4.946829    0.242235    0.583503
     16          1           0        3.104744   -1.847487   -0.678920
     17          1           0        3.449963   -1.708698    1.041302
     18          1           0        5.886272   -2.156654    0.593632
     19          1           0        5.539091   -2.296231   -1.136363
     20          1           0        4.878764   -3.486715   -0.002332
     21          6           0       -4.262392   -0.606091   -0.154843
     22          6           0       -5.334118    0.450334    0.115992
     23          6           0       -6.732853   -0.006526   -0.299471
     24          1           0       -4.265289   -0.856314   -1.224575
     25          1           0       -4.522578   -1.528492    0.382628
     26          1           0       -5.071266    1.370913   -0.420719
     27          1           0       -5.328541    0.698211    1.185171
     28          1           0       -7.020110   -0.911707    0.245260
     29          1           0       -6.761374   -0.235182   -1.369753
     30          1           0       -7.483458    0.763842   -0.097019
     31          6           0       -2.858745   -0.164076    0.255189
     32          6           0       -1.787020   -1.220503   -0.015648
     33          6           0       -0.388284   -0.763642    0.399816
     34          1           0       -2.598559    0.758324   -0.282283
     35          1           0       -2.855850    0.086147    1.324920
     36          1           0       -1.792597   -1.468379   -1.084826
     37          1           0       -2.049871   -2.141081    0.521064
     38          1           0       -0.359763   -0.534985    1.470099
     39          1           0       -0.101028    0.141539   -0.144915
     40          1           0        0.362321   -1.534009    0.197363
 ---------------------------------------------------------------------

 SCF Done:  E(RHF) =  -470.732359361     A.U. after   11 cycles
 E2 =    -0.1583602170D+01 EUMP2 =    -0.47231596153199D+03

 The electronic state is 1-A.
 Alpha  occ. eigenvalues --  -11.21579 -11.21574 -11.21545 -11.21527 -11.21371
 Alpha  occ. eigenvalues --  -11.21327 -11.21310 -11.21218 -11.21060 -11.21055
 Alpha  occ. eigenvalues --  -11.21052 -11.20930  -1.08409  -1.08357  -1.03506
 Alpha  occ. eigenvalues --   -1.03474  -0.95985  -0.95890  -0.87012  -0.86907
 Alpha  occ. eigenvalues --   -0.79638  -0.79518  -0.78285  -0.78061  -0.65076
 Alpha  occ. eigenvalues --   -0.64963  -0.60944  -0.60844  -0.59387  -0.59240
 Alpha  occ. eigenvalues --   -0.57578  -0.57515  -0.55323  -0.55145  -0.52769
 Alpha  occ. eigenvalues --   -0.52563  -0.52471  -0.52219  -0.49989  -0.49812
 Alpha  occ. eigenvalues --   -0.48064  -0.47683  -0.46713  -0.46543  -0.45894
 Alpha  occ. eigenvalues --   -0.45733  -0.45596  -0.45366  -0.43765  -0.43647
 Alpha virt. eigenvalues --    0.21724   0.23088   0.23560   0.24284   0.25946
 Alpha virt. eigenvalues --    0.26125   0.27038   0.27304   0.27953   0.29633
 Alpha virt. eigenvalues --    0.30073   0.30937   0.31762   0.31904   0.32381

 Mulliken charges:
               1
     1  C   -0.301162
     2  C   -0.299568
     3  C   -0.476165
     4  H    0.154238
     5  H    0.151945
     6  H    0.151248
     7  H    0.151487
     8  H    0.155807
     9  H    0.154186
    10  H    0.160233
    11  C   -0.297965
    12  C   -0.301152
    13  C   -0.475599
    14  H    0.148839
    15  H    0.149131
    16  H    0.152603
    17  H    0.152560
    18  H    0.155198
    19  H    0.155076
    20  H    0.160023
    21  C   -0.298129
    22  C   -0.299592
    23  C   -0.475674
    24  H    0.149434
    25  H    0.149451
    26  H    0.151907
    27  H    0.151902
    28  H    0.155131
    29  H    0.155099
    30  H    0.160189
    31  C   -0.298260
    32  C   -0.300869
    33  C   -0.478625
    34  H    0.149405
    35  H    0.149502
    36  H    0.151016
    37  H    0.151331
    38  H    0.153699
    39  H    0.158969
    40  H    0.163150
 Sum of Mulliken charges =  -0.00000

 Dipole moment (field-independent basis, Debye):
    X=              0.0199    Y=              0.0046    Z=              0.0106  Tot=              0.0230
 Quadrupole moment (field-independent basis, Debye-Ang):
   XX=            -86.7513   YY=            -85.3589   ZZ=            -82.9500
   XY=              0.4470   XZ=             -0.0977   YZ=             -0.4003

 Normal termination of Gaussian 16 at Wed May  5 15:20:36 2021.
