 Gaussian 16, Revision A.03,
 Gaussian 16:  EM64L-G16RevA.03 25-Dec-2016

 -------------
 #p 6-31g* mp2
 -------------

 ------------------------------------------------------
 Input file generated by CHIRIPA (05-May-2021 14:55:21)
 ------------------------------------------------------
 Symbolic Z-matrix:
 Charge =  0 Multiplicity = 1

                         Standard orientation:
 ---------------------------------------------------------------------
 Center     Atomic      Atomic             Coordinates (Angstroms)
 Number     Number       Type             X           Y           Z
 ---------------------------------------------------------------------
      1          6           0        3.172098    2.100311    0.989258
      2          6           0        4.152404    1.236485    0.489931
      3          6           0        3.796989    0.000957   -0.059340
      4          6           0        2.445812   -0.340284   -0.093469
      5          6           0        1.445835    0.498640    0.395962
      6          6           0        1.824319    1.729285    0.940765
      7          1           0        3.457153    3.058202    1.414210
      8          1           0        5.199879    1.522000    0.526279
      9          1           0        4.535372   -0.686959   -0.453016
     10          1           0        0.409798    0.186327    0.345904
     11          1           0        1.060848    2.398134    1.327804
     12          7           0        2.057340   -1.645697   -0.672592
     13          8           0        0.860080   -1.922946   -0.690988
     14          8           0        2.957471   -2.366914   -1.097148
     15          6           0       -3.506570   -0.368610    0.463725
     16          6           0       -2.938744   -1.768516    0.227459
     17          6           0       -3.536601   -2.815418    1.167863
     18          1           0       -3.321040   -0.075728    1.506195
     19          1           0       -4.597621   -0.396765    0.336411
     20          1           0       -1.848936   -1.737437    0.353823
     21          1           0       -3.125479   -2.058023   -0.814622
     22          1           0       -4.621888   -2.875769    1.037059
     23          1           0       -3.338092   -2.553363    2.212143
     24          1           0       -3.116680   -3.808822    0.981653
     25          6           0       -2.918613    0.688958   -0.468790
     26          6           0       -3.486439    2.088863   -0.232523
     27          6           0       -2.888582    3.135765   -1.172926
     28          1           0       -1.827561    0.717112   -0.341476
     29          1           0       -3.104144    0.396075   -1.511259
     30          1           0       -3.299704    2.378370    0.809559
     31          1           0       -4.576247    2.057784   -0.358886
     32          1           0       -3.087091    2.873710   -2.217207
     33          1           0       -1.803295    3.196115   -1.042123
     34          1           0       -3.308503    4.129170   -0.986718
 ---------------------------------------------------------------------

 SCF Done:  E(RHF) =  -669.535499112     A.U. after   15 cycles
 E2 =    -0.2092522011D+01 EUMP2 =    -0.67162802112278D+03

 The electronic state is 1-A.
 Alpha  occ. eigenvalues --  -20.60869 -20.60863 -15.85910 -11.31249 -11.27817
 Alpha  occ. eigenvalues --  -11.27809 -11.27558 -11.26833 -11.26823 -11.21822
 Alpha  occ. eigenvalues --  -11.21512 -11.21364 -11.21210 -11.20919 -11.20528
 Alpha  occ. eigenvalues --   -1.59936  -1.39491  -1.19423  -1.08822  -1.08362
 Alpha  occ. eigenvalues --   -1.04826  -1.03370  -0.95873  -0.95663  -0.86889
 Alpha  occ. eigenvalues --   -0.86225  -0.82499  -0.79470  -0.78135  -0.77506
 Alpha  occ. eigenvalues --   -0.72134  -0.71252  -0.70543  -0.65106  -0.65078
 Alpha  occ. eigenvalues --   -0.64768  -0.62170  -0.60775  -0.59257  -0.57432
 Alpha  occ. eigenvalues --   -0.55361  -0.55167  -0.53152  -0.52932  -0.52537
 Alpha  occ. eigenvalues --   -0.52268  -0.49850  -0.48910  -0.48886  -0.47752
 Alpha  occ. eigenvalues --   -0.46540  -0.45617  -0.45501  -0.44888  -0.43653
 Alpha  occ. eigenvalues --   -0.37401  -0.36423
 Alpha virt. eigenvalues --    0.04965   0.11209   0.16453   0.19470   0.23095
 Alpha virt. eigenvalues --    0.24064   0.25064   0.27105   0.27529   0.28118
 Alpha virt. eigenvalues --    0.29638   0.31107   0.31723   0.32026   0.32320

 Mulliken charges:
               1
     1  C   -0.170299
     2  C   -0.218902
     3  C   -0.169914
     4  C    0.157758
     5  C   -0.179946
     6  C   -0.222923
     7  H    0.225997
     8  H    0.223768
     9  H    0.275795
    10  H    0.290334
    11  H    0.223967
    12  N    0.491348
    13  O   -0.465325
    14  O   -0.459505
    15  C   -0.298911
    16  C   -0.308797
    17  C   -0.475807
    18  H    0.144414
    19  H    0.149432
    20  H    0.171609
    21  H    0.154946
    22  H    0.151857
    23  H    0.151123
    24  H    0.165241
    25  C   -0.300240
    26  C   -0.299529
    27  C   -0.474727
    28  H    0.141303
    29  H    0.155659
    30  H    0.147553
    31  H    0.154741
    32  H    0.158730
    33  H    0.149158
    34  H    0.160088
 Sum of Mulliken charges =  -0.00000

 Dipole moment (field-independent basis, Debye):
    X=              1.4260    Y=              4.4628    Z=              1.9332  Tot=              5.0683
 Quadrupole moment (field-independent basis, Debye-Ang):
   XX=            -82.9345   YY=            -98.9767   ZZ=            -95.7359
   XY=              9.8124   XZ=              5.0462   YZ=             -0.1031

 Normal termination of Gaussian 16 at Thu May  6 03:00:30 2021.
