 Gaussian 16, Revision A.03,
 Gaussian 16:  EM64L-G16RevA.03 25-Dec-2016

 -------------
 #p 6-31g* mp2
 -------------

 ------------------------------------------------------
 Input file generated by CHIRIPA (05-May-2021 14:51:12)
 ------------------------------------------------------
 Symbolic Z-matrix:
 Charge =  0 Multiplicity = 1

                         Standard orientation:
 ---------------------------------------------------------------------
 Center     Atomic      Atomic             Coordinates (Angstroms)
 Number     Number       Type             X           Y           Z
 ---------------------------------------------------------------------
      1          6           0       -2.502526   -0.686385    0.951715
      2          6           0       -1.342496    0.094128    1.570678
      3          6           0       -0.587378   -0.709807    2.629582
      4          1           0       -3.196677   -0.991152    1.746835
      5          1           0       -2.114923   -1.611747    0.503536
      6          1           0       -1.731977    1.018413    2.016344
      7          1           0       -0.651125    0.397237    0.773968
      8          1           0       -0.171694   -1.624599    2.194883
      9          1           0       -1.258688   -0.999894    3.444318
     10          1           0        0.237671   -0.132897    3.058916
     11          6           0       -3.267095    0.104041   -0.108657
     12          6           0       -4.427124   -0.676472   -0.727621
     13          6           0       -5.182242    0.127463   -1.786525
     14          1           0       -3.654698    1.029403    0.339521
     15          1           0       -2.572944    0.408808   -0.903778
     16          1           0       -5.118496   -0.979581    0.069089
     17          1           0       -4.037643   -1.600757   -1.173287
     18          1           0       -4.510933    0.417550   -2.601260
     19          1           0       -5.597927    1.042255   -1.351826
     20          1           0       -6.007292   -0.449447   -2.215859
     21          6           0        3.354121   -0.280192   -0.229897
     22          6           0        3.086695   -1.570568   -1.005396
     23          6           0        4.033606   -2.704384   -0.610912
     24          1           0        4.393583    0.032807   -0.398699
     25          1           0        3.258974   -0.480951    0.846225
     26          1           0        3.180961   -1.367115   -2.079797
     27          1           0        2.047693   -1.880428   -0.834881
     28          1           0        3.934469   -2.935991    0.454513
     29          1           0        5.074175   -2.419761   -0.797476
     30          1           0        3.824791   -3.617260   -1.177404
     31          6           0        2.415499    0.862536   -0.613161
     32          6           0        2.682925    2.152912    0.162338
     33          6           0        1.736015    3.286728   -0.232145
     34          1           0        2.510646    1.063294   -1.689282
     35          1           0        1.376037    0.549536   -0.444358
     36          1           0        3.721928    2.462772   -0.008176
     37          1           0        2.588660    1.949459    1.236740
     38          1           0        0.695446    3.002105   -0.045582
     39          1           0        1.835152    3.518335   -1.297570
     40          1           0        1.944830    4.199604    0.334347
 ---------------------------------------------------------------------

 SCF Done:  E(RHF) =  -470.733380706     A.U. after   11 cycles
 E2 =    -0.1583395113D+01 EUMP2 =    -0.47231677581914D+03

 The electronic state is 1-A.
 Alpha  occ. eigenvalues --  -11.21674 -11.21626 -11.21625 -11.21602 -11.21454
 Alpha  occ. eigenvalues --  -11.21408 -11.21392 -11.21348 -11.21165 -11.21084
 Alpha  occ. eigenvalues --  -11.21084 -11.21054  -1.08491  -1.08430  -1.03589
 Alpha  occ. eigenvalues --   -1.03530  -0.96031  -0.95980  -0.87047  -0.86998
 Alpha  occ. eigenvalues --   -0.79673  -0.79580  -0.78346  -0.78205  -0.65271
 Alpha  occ. eigenvalues --   -0.64939  -0.61044  -0.60876  -0.59403  -0.59340
 Alpha  occ. eigenvalues --   -0.57639  -0.57592  -0.55357  -0.55225  -0.52725
 Alpha  occ. eigenvalues --   -0.52677  -0.52455  -0.52408  -0.50025  -0.49883
 Alpha  occ. eigenvalues --   -0.48046  -0.47883  -0.46856  -0.46563  -0.46049
 Alpha  occ. eigenvalues --   -0.45789  -0.45756  -0.45324  -0.43832  -0.43790
 Alpha virt. eigenvalues --    0.19675   0.23244   0.23576   0.24811   0.25539
 Alpha virt. eigenvalues --    0.26511   0.26943   0.27895   0.28518   0.29392
 Alpha virt. eigenvalues --    0.30425   0.31353   0.31656   0.31891   0.32311

 Mulliken charges:
               1
     1  C   -0.297687
     2  C   -0.309500
     3  C   -0.475824
     4  H    0.150018
     5  H    0.149369
     6  H    0.152579
     7  H    0.159832
     8  H    0.154981
     9  H    0.155963
    10  H    0.160107
    11  C   -0.298574
    12  C   -0.299693
    13  C   -0.475786
    14  H    0.149721
    15  H    0.149713
    16  H    0.152005
    17  H    0.152033
    18  H    0.155407
    19  H    0.155254
    20  H    0.160337
    21  C   -0.298062
    22  C   -0.299602
    23  C   -0.475787
    24  H    0.149706
    25  H    0.150291
    26  H    0.151918
    27  H    0.151070
    28  H    0.155459
    29  H    0.155311
    30  H    0.160169
    31  C   -0.305996
    32  C   -0.299202
    33  C   -0.477524
    34  H    0.149507
    35  H    0.156295
    36  H    0.152035
    37  H    0.151965
    38  H    0.156984
    39  H    0.154963
    40  H    0.160245
 Sum of Mulliken charges =  -0.00000

 Dipole moment (field-independent basis, Debye):
    X=             -0.0168    Y=             -0.0009    Z=              0.0075  Tot=              0.0184
 Quadrupole moment (field-independent basis, Debye-Ang):
   XX=            -84.6727   YY=            -85.6347   ZZ=            -84.3650
   XY=              0.8087   XZ=             -1.5567   YZ=              0.5577

 Normal termination of Gaussian 16 at Thu May  6 02:18:11 2021.
