 Gaussian 16, Revision A.03,
 Gaussian 16:  EM64L-G16RevA.03 25-Dec-2016

 -------------
 #p 6-31g* mp2
 -------------

 ------------------------------------------------------
 Input file generated by CHIRIPA (05-May-2021 14:51:09)
 ------------------------------------------------------
 Symbolic Z-matrix:
 Charge =  0 Multiplicity = 1

                         Standard orientation:
 ---------------------------------------------------------------------
 Center     Atomic      Atomic             Coordinates (Angstroms)
 Number     Number       Type             X           Y           Z
 ---------------------------------------------------------------------
      1          6           0       -3.446347   -0.234517   -0.280753
      2          6           0       -4.808966   -0.373282    0.398953
      3          6           0       -5.848758    0.600154   -0.156968
      4          1           0       -3.086830    0.796568   -0.160107
      5          1           0       -3.564483   -0.400015   -1.360590
      6          1           0       -4.688063   -0.208938    1.477373
      7          1           0       -5.165194   -1.404207    0.276841
      8          1           0       -5.998691    0.433139   -1.228522
      9          1           0       -5.518849    1.635200   -0.021168
     10          1           0       -6.815358    0.483797    0.343037
     11          6           0       -2.396286   -1.201025    0.264189
     12          6           0       -1.033667   -1.062260   -0.415516
     13          6           0        0.006125   -2.035696    0.140405
     14          1           0       -2.278151   -1.035528    1.344027
     15          1           0       -2.755803   -2.232110    0.143544
     16          1           0       -0.677440   -0.031335   -0.293404
     17          1           0       -1.154570   -1.226604   -1.493936
     18          1           0       -0.323784   -3.070742    0.004605
     19          1           0        0.156058   -1.868681    1.211959
     20          1           0        0.972725   -1.919339   -0.359600
     21          6           0        2.425239    1.177655   -0.346467
     22          6           0        1.826252    2.245329    0.569651
     23          6           0        0.835704    3.157580   -0.154507
     24          1           0        2.926923    1.668353   -1.191732
     25          1           0        1.613035    0.573040   -0.773270
     26          1           0        2.639433    2.846869    0.995682
     27          1           0        1.326100    1.752037    1.412935
     28          1           0        0.004876    2.574934   -0.565418
     29          1           0        1.325670    3.675986   -0.985042
     30          1           0        0.419659    3.913336    0.518991
     31          6           0        3.417395    0.257888    0.363030
     32          6           0        4.016381   -0.809785   -0.553088
     33          6           0        5.006929   -1.722038    0.171069
     34          1           0        4.229598    0.862502    0.789833
     35          1           0        2.915709   -0.232811    1.208295
     36          1           0        4.516533   -0.316495   -1.396372
     37          1           0        3.203200   -1.411327   -0.979119
     38          1           0        4.516963   -2.240444    1.001605
     39          1           0        5.837758   -1.139392    0.581981
     40          1           0        5.422975   -2.477793   -0.502428
 ---------------------------------------------------------------------

 SCF Done:  E(RHF) =  -470.732253786     A.U. after   11 cycles
 E2 =    -0.1585059588D+01 EUMP2 =    -0.47231731337406D+03

 The electronic state is 1-A.
 Alpha  occ. eigenvalues --  -11.21682 -11.21630 -11.21608 -11.21592 -11.21459
 Alpha  occ. eigenvalues --  -11.21397 -11.21354 -11.21286 -11.21148 -11.21098
 Alpha  occ. eigenvalues --  -11.21087 -11.21051  -1.08517  -1.08391  -1.03597
 Alpha  occ. eigenvalues --   -1.03529  -0.96064  -0.95949  -0.87069  -0.86979
 Alpha  occ. eigenvalues --   -0.79702  -0.79560  -0.78362  -0.78174  -0.65368
 Alpha  occ. eigenvalues --   -0.64916  -0.61129  -0.60800  -0.59398  -0.59332
 Alpha  occ. eigenvalues --   -0.57697  -0.57545  -0.55414  -0.55155  -0.52794
 Alpha  occ. eigenvalues --   -0.52639  -0.52457  -0.52394  -0.50009  -0.49891
 Alpha  occ. eigenvalues --   -0.48108  -0.47818  -0.46819  -0.46583  -0.45970
 Alpha  occ. eigenvalues --   -0.45810  -0.45720  -0.45353  -0.43818  -0.43762
 Alpha virt. eigenvalues --    0.19803   0.22299   0.23516   0.24978   0.25657
 Alpha virt. eigenvalues --    0.26251   0.26571   0.27454   0.28755   0.29905
 Alpha virt. eigenvalues --    0.30234   0.31395   0.31731   0.31845   0.32548

 Mulliken charges:
               1
     1  C   -0.298855
     2  C   -0.299673
     3  C   -0.475794
     4  H    0.149917
     5  H    0.149700
     6  H    0.152024
     7  H    0.152045
     8  H    0.155245
     9  H    0.155441
    10  H    0.160349
    11  C   -0.297939
    12  C   -0.307153
    13  C   -0.483933
    14  H    0.149554
    15  H    0.149982
    16  H    0.158617
    17  H    0.152259
    18  H    0.156070
    19  H    0.155102
    20  H    0.167691
    21  C   -0.305497
    22  C   -0.299686
    23  C   -0.478893
    24  H    0.149352
    25  H    0.157751
    26  H    0.152297
    27  H    0.151313
    28  H    0.156815
    29  H    0.155767
    30  H    0.160168
    31  C   -0.299089
    32  C   -0.304320
    33  C   -0.475630
    34  H    0.149593
    35  H    0.151333
    36  H    0.152228
    37  H    0.154788
    38  H    0.155754
    39  H    0.155188
    40  H    0.160122
 Sum of Mulliken charges =  -0.00000

 Dipole moment (field-independent basis, Debye):
    X=             -0.0181    Y=             -0.0167    Z=             -0.0068  Tot=              0.0255
 Quadrupole moment (field-independent basis, Debye-Ang):
   XX=            -85.4166   YY=            -84.8662   ZZ=            -84.4737
   XY=              1.7590   XZ=             -0.5132   YZ=              0.8065

 Normal termination of Gaussian 16 at Thu May  6 06:55:45 2021.
