 Gaussian 16, Revision A.03,
 Gaussian 16:  EM64L-G16RevA.03 25-Dec-2016

 -------------
 #p 6-31g* mp2
 -------------

 ------------------------------------------------------
 Input file generated by CHIRIPA (05-May-2021 14:53:15)
 ------------------------------------------------------
 Symbolic Z-matrix:
 Charge =  0 Multiplicity = 1

                         Standard orientation:
 ---------------------------------------------------------------------
 Center     Atomic      Atomic             Coordinates (Angstroms)
 Number     Number       Type             X           Y           Z
 ---------------------------------------------------------------------
      1          6           0        3.256269   -0.560575   -0.179103
      2          6           0        4.035209    0.749430   -0.302080
      3          6           0        5.035649    0.736021   -1.458252
      4          1           0        3.964407   -1.389490   -0.043515
      5          1           0        2.725919   -0.753600   -1.121899
      6          1           0        4.562824    0.940630    0.641149
      7          1           0        3.325124    1.575347   -0.437199
      8          1           0        4.521671    0.569904   -2.410530
      9          1           0        5.766403   -0.068419   -1.326055
     10          1           0        5.581464    1.682119   -1.527849
     11          6           0        2.252171   -0.562559    0.972206
     12          6           0        1.473231   -1.872564    1.095183
     13          6           0        0.472791   -1.859155    2.251355
     14          1           0        2.782521   -0.369534    1.915003
     15          1           0        1.544033    0.266356    0.836618
     16          1           0        2.183316   -2.698481    1.230302
     17          1           0        0.945616   -2.063764    0.151954
     18          1           0       -0.257963   -1.054715    2.119158
     19          1           0        0.986769   -1.693038    3.203633
     20          1           0       -0.073023   -2.805253    2.320952
     21          6           0       -3.062656   -1.654049   -1.385187
     22          6           0       -1.784134   -1.195168   -1.718849
     23          6           0       -1.269241   -0.036799   -1.129259
     24          6           0       -2.063670    0.641046   -0.205842
     25          6           0       -3.341165    0.209083    0.147295
     26          6           0       -3.835728   -0.951698   -0.454820
     27          1           0       -3.454741   -2.554835   -1.848059
     28          1           0       -1.181518   -1.738596   -2.441057
     29          1           0       -0.282693    0.340716   -1.369302
     30          1           0       -3.918299    0.772167    0.870669
     31          1           0       -4.828985   -1.305737   -0.193779
     32          7           0       -1.529337    1.868636    0.424961
     33          8           0       -2.249140    2.447778    1.235587
     34          8           0       -0.400842    2.228433    0.096813
 ---------------------------------------------------------------------

 SCF Done:  E(RHF) =  -669.536160688     A.U. after   15 cycles
 E2 =    -0.2094118682D+01 EUMP2 =    -0.67163027937088D+03

 The electronic state is 1-A.
 Alpha  occ. eigenvalues --  -20.61033 -20.61024 -15.86047 -11.31347 -11.27914
 Alpha  occ. eigenvalues --  -11.27905 -11.27630 -11.26904 -11.26889 -11.21463
 Alpha  occ. eigenvalues --  -11.21227 -11.21165 -11.20933 -11.20912 -11.20812
 Alpha  occ. eigenvalues --   -1.60082  -1.39640  -1.19516  -1.08920  -1.08161
 Alpha  occ. eigenvalues --   -1.04905  -1.03287  -0.95771  -0.95736  -0.86761
 Alpha  occ. eigenvalues --   -0.86305  -0.82602  -0.79342  -0.77962  -0.77652
 Alpha  occ. eigenvalues --   -0.72272  -0.71398  -0.70619  -0.65172  -0.64991
 Alpha  occ. eigenvalues --   -0.64728  -0.62241  -0.60704  -0.59109  -0.57344
 Alpha  occ. eigenvalues --   -0.55406  -0.55066  -0.53193  -0.52988  -0.52446
 Alpha  occ. eigenvalues --   -0.52155  -0.49707  -0.49044  -0.49022  -0.47662
 Alpha  occ. eigenvalues --   -0.46391  -0.45633  -0.45517  -0.44737  -0.43527
 Alpha  occ. eigenvalues --   -0.37472  -0.36466
 Alpha virt. eigenvalues --    0.04808   0.11101   0.16232   0.20118   0.22885
 Alpha virt. eigenvalues --    0.24336   0.25860   0.27079   0.27667   0.28046
 Alpha virt. eigenvalues --    0.29652   0.30991   0.31280   0.31984   0.32129

 Mulliken charges:
               1
     1  C   -0.295851
     2  C   -0.302616
     3  C   -0.475177
     4  H    0.148002
     5  H    0.138156
     6  H    0.152958
     7  H    0.163117
     8  H    0.151663
     9  H    0.153235
    10  H    0.161410
    11  C   -0.312518
    12  C   -0.299438
    13  C   -0.473875
    14  H    0.151012
    15  H    0.168965
    16  H    0.150121
    17  H    0.143189
    18  H    0.154109
    19  H    0.157184
    20  H    0.156532
    21  C   -0.170202
    22  C   -0.218735
    23  C   -0.170231
    24  C    0.158293
    25  C   -0.170994
    26  C   -0.218127
    27  H    0.226472
    28  H    0.224537
    29  H    0.277971
    30  H    0.276212
    31  H    0.224191
    32  N    0.488169
    33  O   -0.457722
    34  O   -0.460012
 Sum of Mulliken charges =  -0.00000

 Dipole moment (field-independent basis, Debye):
    X=             -2.0543    Y=             -4.1252    Z=             -2.1701  Tot=              5.0938
 Quadrupole moment (field-independent basis, Debye-Ang):
   XX=            -83.5565   YY=           -100.9618   ZZ=            -93.3216
   XY=              7.4257   XZ=              3.8632   YZ=             -0.1243

 Normal termination of Gaussian 16 at Thu May  6 20:24:57 2021.
