 Gaussian 16, Revision A.03,
 Gaussian 16:  EM64L-G16RevA.03 25-Dec-2016

 -------------
 #p 6-31g* mp2
 -------------

 ------------------------------------------------------
 Input file generated by CHIRIPA (05-May-2021 14:57:23)
 ------------------------------------------------------
 Symbolic Z-matrix:
 Charge =  0 Multiplicity = 1

                         Standard orientation:
 ---------------------------------------------------------------------
 Center     Atomic      Atomic             Coordinates (Angstroms)
 Number     Number       Type             X           Y           Z
 ---------------------------------------------------------------------
      1          6           0       -2.036605    0.022780    2.411533
      2          6           0       -3.061652    0.883310    2.004978
      3          6           0       -3.635954    0.754199    0.736887
      4          6           0       -3.158759   -0.251000   -0.102846
      5          6           0       -2.138940   -1.123811    0.273265
      6          6           0       -1.579326   -0.976273    1.545906
      7          1           0       -1.596179    0.130233    3.398384
      8          1           0       -3.418778    1.660095    2.675135
      9          1           0       -4.430800    1.406765    0.396601
     10          1           0       -1.803987   -1.888580   -0.416917
     11          1           0       -0.783396   -1.646000    1.858964
     12          7           0       -3.758972   -0.397438   -1.447725
     13          8           0       -3.320793   -1.291097   -2.168842
     14          8           0       -4.656233    0.384216   -1.755260
     15          6           0        1.931580    2.476760   -0.294673
     16          6           0        1.287649    1.419793    0.357014
     17          6           0        1.903317    0.168872    0.460433
     18          6           0        3.168913    0.009353   -0.101804
     19          6           0        3.836189    1.042966   -0.757304
     20          6           0        3.201555    2.285311   -0.848774
     21          1           0        1.445948    3.445175   -0.370369
     22          1           0        0.301342    1.565588    0.788278
     23          1           0        1.427494   -0.666577    0.959468
     24          1           0        4.819108    0.867197   -1.177296
     25          1           0        3.704019    3.104364   -1.355457
     26          7           0        3.830732   -1.310402    0.001356
     27          8           0        4.945959   -1.425243   -0.502345
     28          8           0        3.221706   -2.204994    0.583960
 ---------------------------------------------------------------------

 SCF Done:  E(RHF) =  -868.337872186     A.U. after   16 cycles
 E2 =    -0.2601469716D+01 EUMP2 =    -0.87093934190266D+03

 The electronic state is 1-A.
 Alpha  occ. eigenvalues --  -20.61313 -20.61298 -20.61119 -20.61090 -15.86369
 Alpha  occ. eigenvalues --  -15.86156 -11.31930 -11.31461 -11.28547 -11.28505
 Alpha  occ. eigenvalues --  -11.28342 -11.28043 -11.27977 -11.27697 -11.27599
 Alpha  occ. eigenvalues --  -11.27573 -11.26989 -11.26942  -1.60381  -1.60178
 Alpha  occ. eigenvalues --   -1.39927  -1.39737  -1.20158  -1.19607  -1.09515
 Alpha  occ. eigenvalues --   -1.09008  -1.05579  -1.04993  -0.96296  -0.95865
 Alpha  occ. eigenvalues --   -0.86954  -0.86403  -0.83114  -0.82694  -0.78135
 Alpha  occ. eigenvalues --   -0.77757  -0.72579  -0.72378  -0.71711  -0.71496
 Alpha  occ. eigenvalues --   -0.71216  -0.70739  -0.65786  -0.65590  -0.65255
 Alpha  occ. eigenvalues --   -0.64974  -0.62920  -0.62335  -0.56049  -0.55515
 Alpha  occ. eigenvalues --   -0.53937  -0.53646  -0.53322  -0.52999  -0.49357
 Alpha  occ. eigenvalues --   -0.49322  -0.49145  -0.49116  -0.45288  -0.45156
 Alpha  occ. eigenvalues --   -0.38171  -0.37574  -0.37248  -0.36534
 Alpha virt. eigenvalues --    0.04342   0.04815   0.10348   0.11046   0.15710
 Alpha virt. eigenvalues --    0.16331   0.19725   0.21761   0.25103   0.27349
 Alpha virt. eigenvalues --    0.27749   0.28765   0.29631   0.31239   0.31676

 Mulliken charges:
               1
     1  C   -0.178174
     2  C   -0.221540
     3  C   -0.171223
     4  C    0.158494
     5  C   -0.169377
     6  C   -0.230424
     7  H    0.229760
     8  H    0.225955
     9  H    0.277915
    10  H    0.282603
    11  H    0.231898
    12  N    0.487918
    13  O   -0.456218
    14  O   -0.459519
    15  C   -0.170839
    16  C   -0.222405
    17  C   -0.174054
    18  C    0.160257
    19  C   -0.170518
    20  C   -0.217782
    21  H    0.226476
    22  H    0.227999
    23  H    0.266158
    24  H    0.276421
    25  H    0.224734
    26  N    0.488445
    27  O   -0.457730
    28  O   -0.465226
 Sum of Mulliken charges =  -0.00000

 Dipole moment (field-independent basis, Debye):
    X=             -0.4050    Y=              5.1613    Z=              4.2603  Tot=              6.7047
 Quadrupole moment (field-independent basis, Debye-Ang):
   XX=           -127.9550   YY=           -102.0708   ZZ=           -105.3882
   XY=             11.8627   XZ=            -19.3382   YZ=             -1.9455

 Normal termination of Gaussian 16 at Thu May  6 14:38:21 2021.
