 Gaussian 16, Revision A.03,
 Gaussian 16:  EM64L-G16RevA.03 25-Dec-2016

 -------------
 #p 6-31g* mp2
 -------------

 ------------------------------------------------------
 Input file generated by CHIRIPA (05-May-2021 14:55:24)
 ------------------------------------------------------
 Symbolic Z-matrix:
 Charge =  0 Multiplicity = 1

                         Standard orientation:
 ---------------------------------------------------------------------
 Center     Atomic      Atomic             Coordinates (Angstroms)
 Number     Number       Type             X           Y           Z
 ---------------------------------------------------------------------
      1          6           0       -2.923107   -2.397499   -0.374719
      2          6           0       -4.114291   -1.936797    0.195679
      3          6           0       -4.356514   -0.565849    0.323662
      4          6           0       -3.381440    0.320406   -0.131389
      5          6           0       -2.184736   -0.107598   -0.704103
      6          6           0       -1.963823   -1.483041   -0.822002
      7          1           0       -2.743219   -3.464230   -0.470222
      8          1           0       -4.861071   -2.644679    0.543915
      9          1           0       -5.269956   -0.181831    0.761352
     10          1           0       -1.459134    0.622264   -1.042069
     11          1           0       -1.037818   -1.837961   -1.265389
     12          7           0       -3.626592    1.774147   -0.001237
     13          8           0       -2.751658    2.534501   -0.409882
     14          8           0       -4.689033    2.125709    0.506955
     15          6           0        3.558771    0.077770    0.383839
     16          6           0        2.623267   -1.130380    0.440290
     17          6           0        1.190889   -0.751766    0.818100
     18          1           0        3.556484    0.581203    1.360311
     19          1           0        3.166449    0.802882   -0.342586
     20          1           0        3.017974   -1.853615    1.165379
     21          1           0        2.627929   -1.631107   -0.536371
     22          1           0        0.773715   -0.048168    0.090421
     23          1           0        1.165976   -0.271940    1.801841
     24          1           0        0.539201   -1.630387    0.852586
     25          6           0        4.994283   -0.284650    0.007429
     26          6           0        5.929787    0.923500   -0.049022
     27          6           0        7.362164    0.544886   -0.426831
     28          1           0        5.386604   -1.009762    0.733854
     29          1           0        4.996570   -0.788083   -0.969042
     30          1           0        5.925125    1.424227    0.927639
     31          1           0        5.535079    1.646735   -0.774111
     32          1           0        7.387077    0.065060   -1.410572
     33          1           0        7.779338   -0.158713    0.300848
     34          1           0        8.013852    1.423507   -0.461318
 ---------------------------------------------------------------------

 SCF Done:  E(RHF) =  -669.534352293     A.U. after   15 cycles
 E2 =    -0.2092259055D+01 EUMP2 =    -0.67162661134824D+03

 The electronic state is 1-A.
 Alpha  occ. eigenvalues --  -20.60733 -20.60728 -15.85786 -11.31144 -11.27699
 Alpha  occ. eigenvalues --  -11.27694 -11.27447 -11.26731 -11.26694 -11.22095
 Alpha  occ. eigenvalues --  -11.21771 -11.21708 -11.21621 -11.21616 -11.21215
 Alpha  occ. eigenvalues --   -1.59808  -1.39362  -1.19316  -1.08754  -1.08710
 Alpha  occ. eigenvalues --   -1.04729  -1.03868  -0.96326  -0.95550  -0.87350
 Alpha  occ. eigenvalues --   -0.86118  -0.82386  -0.79942  -0.78540  -0.77426
 Alpha  occ. eigenvalues --   -0.72006  -0.71129  -0.70434  -0.65392  -0.64968
 Alpha  occ. eigenvalues --   -0.64744  -0.62147  -0.61227  -0.59702  -0.57927
 Alpha  occ. eigenvalues --   -0.55635  -0.55205  -0.53362  -0.52962  -0.52718
 Alpha  occ. eigenvalues --   -0.52568  -0.50256  -0.48763  -0.48760  -0.48245
 Alpha  occ. eigenvalues --   -0.46974  -0.46084  -0.46000  -0.44768  -0.44119
 Alpha  occ. eigenvalues --   -0.37296  -0.36241
 Alpha virt. eigenvalues --    0.05093   0.11245   0.16558   0.20340   0.22774
 Alpha virt. eigenvalues --    0.23991   0.25744   0.26630   0.27001   0.27955
 Alpha virt. eigenvalues --    0.29158   0.30331   0.31146   0.31459   0.31784

 Mulliken charges:
               1
     1  C   -0.173236
     2  C   -0.218160
     3  C   -0.171450
     4  C    0.157993
     5  C   -0.169561
     6  C   -0.214469
     7  H    0.225197
     8  H    0.223179
     9  H    0.275335
    10  H    0.274972
    11  H    0.225220
    12  N    0.488180
    13  O   -0.460626
    14  O   -0.460527
    15  C   -0.298708
    16  C   -0.300802
    17  C   -0.477392
    18  H    0.152516
    19  H    0.150640
    20  H    0.153431
    21  H    0.147067
    22  H    0.149733
    23  H    0.161750
    24  H    0.158042
    25  C   -0.298418
    26  C   -0.300087
    27  C   -0.475889
    28  H    0.149665
    29  H    0.148672
    30  H    0.153203
    31  H    0.153081
    32  H    0.154871
    33  H    0.155138
    34  H    0.161440
 Sum of Mulliken charges =  -0.00000

 Dipole moment (field-independent basis, Debye):
    X=              0.9461    Y=             -5.0884    Z=             -0.3969  Tot=              5.1908
 Quadrupole moment (field-independent basis, Debye-Ang):
   XX=            -97.7030   YY=            -98.5952   ZZ=            -93.4963
   XY=             18.9934   XZ=             -0.0936   YZ=             -0.0759

 Normal termination of Gaussian 16 at Thu May  6 12:41:28 2021.
