 Gaussian 16, Revision A.03,
 Gaussian 16:  EM64L-G16RevA.03 25-Dec-2016

 -------------
 #p 6-31g* mp2
 -------------

 ------------------------------------------------------
 Input file generated by CHIRIPA (05-May-2021 14:55:24)
 ------------------------------------------------------
 Symbolic Z-matrix:
 Charge =  0 Multiplicity = 1

                         Standard orientation:
 ---------------------------------------------------------------------
 Center     Atomic      Atomic             Coordinates (Angstroms)
 Number     Number       Type             X           Y           Z
 ---------------------------------------------------------------------
      1          6           0       -2.033258   -2.602776    0.886540
      2          6           0       -0.936977   -1.877910    0.407730
      3          6           0       -1.112590   -0.602997   -0.138442
      4          6           0       -2.404183   -0.081101   -0.190426
      5          6           0       -3.516413   -0.778576    0.278363
      6          6           0       -3.317213   -2.051767    0.820445
      7          1           0       -1.887676   -3.592490    1.309231
      8          1           0        0.061303   -2.303326    0.457777
      9          1           0       -0.281514   -0.020013   -0.516411
     10          1           0       -4.499505   -0.328102    0.214959
     11          1           0       -4.170447   -2.612420    1.191532
     12          7           0       -2.602582    1.267681   -0.766469
     13          8           0       -3.750643    1.705185   -0.800857
     14          8           0       -1.606269    1.861813   -1.172676
     15          6           0        3.106923    1.093678    0.406547
     16          6           0        1.767065    1.794803    0.632800
     17          6           0        1.926448    3.204950    1.201901
     18          1           0        3.654338    1.046965    1.357914
     19          1           0        3.718734    1.698845   -0.276720
     20          1           0        1.157420    1.187807    1.314346
     21          1           0        1.222694    1.839681   -0.319178
     22          1           0        2.512946    3.830911    0.521610
     23          1           0        2.447303    3.175333    2.164417
     24          1           0        0.956372    3.687776    1.355815
     25          6           0        2.964078   -0.316984   -0.162099
     26          6           0        4.303935   -1.018108   -0.388352
     27          6           0        4.144552   -2.428256   -0.957453
     28          1           0        2.352266   -0.922151    0.521168
     29          1           0        2.416663   -0.270271   -1.113466
     30          1           0        4.848307   -1.062986    0.563626
     31          1           0        4.913580   -0.411113   -1.069898
     32          1           0        3.623698   -2.398638   -1.919968
     33          1           0        3.558055   -3.054216   -0.277163
     34          1           0        5.114629   -2.911081   -1.111367
 ---------------------------------------------------------------------

 SCF Done:  E(RHF) =  -669.535251551     A.U. after   15 cycles
 E2 =    -0.2093823933D+01 EUMP2 =    -0.67162907548351D+03

 The electronic state is 1-A.
 Alpha  occ. eigenvalues --  -20.60778 -20.60773 -15.85817 -11.31094 -11.27693
 Alpha  occ. eigenvalues --  -11.27576 -11.27424 -11.26692 -11.26638 -11.22128
 Alpha  occ. eigenvalues --  -11.22048 -11.21654 -11.21607 -11.21497 -11.20805
 Alpha  occ. eigenvalues --   -1.59845  -1.39402  -1.19277  -1.08805  -1.08692
 Alpha  occ. eigenvalues --   -1.04667  -1.03754  -0.96232  -0.95537  -0.87248
 Alpha  occ. eigenvalues --   -0.86074  -0.82375  -0.79890  -0.78739  -0.77334
 Alpha  occ. eigenvalues --   -0.72042  -0.71160  -0.70390  -0.65454  -0.64925
 Alpha  occ. eigenvalues --   -0.64660  -0.62037  -0.61131  -0.59614  -0.57827
 Alpha  occ. eigenvalues --   -0.55535  -0.55194  -0.53030  -0.52934  -0.52771
 Alpha  occ. eigenvalues --   -0.52571  -0.50180  -0.48843  -0.48791  -0.48142
 Alpha  occ. eigenvalues --   -0.46917  -0.46101  -0.45983  -0.44798  -0.44041
 Alpha  occ. eigenvalues --   -0.37270  -0.36249
 Alpha virt. eigenvalues --    0.05072   0.11349   0.16520   0.20037   0.22899
 Alpha virt. eigenvalues --    0.23693   0.25085   0.25230   0.27537   0.28422
 Alpha virt. eigenvalues --    0.30196   0.30427   0.31474   0.31615   0.32344

 Mulliken charges:
               1
     1  C   -0.170272
     2  C   -0.227184
     3  C   -0.173189
     4  C    0.154697
     5  C   -0.170028
     6  C   -0.219293
     7  H    0.225328
     8  H    0.226929
     9  H    0.289325
    10  H    0.275121
    11  H    0.222987
    12  N    0.489276
    13  O   -0.460189
    14  O   -0.463897
    15  C   -0.296472
    16  C   -0.315652
    17  C   -0.474697
    18  H    0.149812
    19  H    0.153121
    20  H    0.147217
    21  H    0.171352
    22  H    0.156468
    23  H    0.151670
    24  H    0.168515
    25  C   -0.306629
    26  C   -0.299067
    27  C   -0.476350
    28  H    0.142208
    29  H    0.149463
    30  H    0.153906
    31  H    0.156366
    32  H    0.156544
    33  H    0.149046
    34  H    0.163568
 Sum of Mulliken charges =  -0.00000

 Dipole moment (field-independent basis, Debye):
    X=              0.7954    Y=             -4.5603    Z=              1.9560  Tot=              5.0254
 Quadrupole moment (field-independent basis, Debye-Ang):
   XX=            -92.8950   YY=            -95.1826   ZZ=            -95.5422
   XY=             12.0943   XZ=             -6.3092   YZ=             -0.1743

 Normal termination of Gaussian 16 at Wed May  5 16:05:17 2021.
