 Gaussian 16, Revision A.03,
 Gaussian 16:  EM64L-G16RevA.03 25-Dec-2016

 -------------
 #p 6-31g* mp2
 -------------

 ------------------------------------------------------
 Input file generated by CHIRIPA (05-May-2021 14:57:26)
 ------------------------------------------------------
 Symbolic Z-matrix:
 Charge =  0 Multiplicity = 1

                         Standard orientation:
 ---------------------------------------------------------------------
 Center     Atomic      Atomic             Coordinates (Angstroms)
 Number     Number       Type             X           Y           Z
 ---------------------------------------------------------------------
      1          6           0       -4.541798    1.507175   -0.734918
      2          6           0       -3.268272    1.508394   -1.313409
      3          6           0       -2.333693    0.525309   -0.974803
      4          6           0       -2.707905   -0.448329   -0.049987
      5          6           0       -3.968907   -0.476370    0.543627
      6          6           0       -4.887441    0.516543    0.190123
      7          1           0       -5.261569    2.274677   -1.003742
      8          1           0       -2.997081    2.276496   -2.032101
      9          1           0       -1.340851    0.502581   -1.407431
     10          1           0       -4.210164   -1.255067    1.256960
     11          1           0       -5.875753    0.513115    0.640982
     12          7           0       -1.727001   -1.494280    0.316366
     13          8           0       -2.081233   -2.341068    1.133743
     14          8           0       -0.622510   -1.447502   -0.220801
     15          6           0        2.333111    2.511907    1.148925
     16          6           0        1.897478    1.332652    1.762195
     17          6           0        2.188930    0.088199    1.195678
     18          6           0        2.921433    0.059779    0.009962
     19          6           0        3.369448    1.217101   -0.625001
     20          6           0        3.066414    2.450475   -0.040620
     21          1           0        2.102205    3.474325    1.595947
     22          1           0        1.327810    1.377327    2.686062
     23          1           0        1.864016   -0.840271    1.649322
     24          1           0        3.935474    1.140614   -1.545427
     25          1           0        3.406025    3.364674   -0.519109
     26          7           0        3.236112   -1.251803   -0.599241
     27          8           0        3.883006   -1.249867   -1.644305
     28          8           0        2.829903   -2.256925   -0.020134
 ---------------------------------------------------------------------

 SCF Done:  E(RHF) =  -868.337220379     A.U. after   16 cycles
 E2 =    -0.2600801267D+01 EUMP2 =    -0.87093802164654D+03

 The electronic state is 1-A.
 Alpha  occ. eigenvalues --  -20.60907 -20.60888 -20.59782 -20.59664 -15.85940
 Alpha  occ. eigenvalues --  -15.84782 -11.31356 -11.30372 -11.27935 -11.27922
 Alpha  occ. eigenvalues --  -11.27690 -11.27093 -11.26960 -11.26950 -11.26912
 Alpha  occ. eigenvalues --  -11.26905 -11.26162 -11.26065  -1.59970  -1.58787
 Alpha  occ. eigenvalues --   -1.39522  -1.38331  -1.19538  -1.18616  -1.08924
 Alpha  occ. eigenvalues --   -1.07980  -1.04945  -1.04061  -0.95747  -0.94764
 Alpha  occ. eigenvalues --   -0.86339  -0.85445  -0.82576  -0.81600  -0.77620
 Alpha  occ. eigenvalues --   -0.76577  -0.72163  -0.71315  -0.71011  -0.70642
 Alpha  occ. eigenvalues --   -0.70079  -0.69742  -0.65187  -0.64945  -0.64273
 Alpha  occ. eigenvalues --   -0.64084  -0.62286  -0.61386  -0.55444  -0.54607
 Alpha  occ. eigenvalues --   -0.53279  -0.53034  -0.52392  -0.52160  -0.48914
 Alpha  occ. eigenvalues --   -0.48900  -0.47804  -0.47725  -0.44918  -0.43670
 Alpha  occ. eigenvalues --   -0.37531  -0.36648  -0.36548  -0.35656
 Alpha virt. eigenvalues --    0.04871   0.05993   0.11099   0.11989   0.16395
 Alpha virt. eigenvalues --    0.17371   0.21242   0.22006   0.27149   0.27895
 Alpha virt. eigenvalues --    0.28136   0.28974   0.30778   0.31511   0.32356

 Mulliken charges:
               1
     1  C   -0.171109
     2  C   -0.219131
     3  C   -0.170781
     4  C    0.157255
     5  C   -0.171540
     6  C   -0.218810
     7  H    0.225604
     8  H    0.223218
     9  H    0.277015
    10  H    0.275946
    11  H    0.223695
    12  N    0.486664
    13  O   -0.459356
    14  O   -0.457264
    15  C   -0.172810
    16  C   -0.224254
    17  C   -0.158597
    18  C    0.158285
    19  C   -0.173464
    20  C   -0.221591
    21  H    0.220842
    22  H    0.220747
    23  H    0.285403
    24  H    0.273043
    25  H    0.218691
    26  N    0.488811
    27  O   -0.468543
    28  O   -0.447972
 Sum of Mulliken charges =  -0.00000

 Dipole moment (field-independent basis, Debye):
    X=             -4.7326    Y=              7.9301    Z=              0.8990  Tot=              9.2785
 Quadrupole moment (field-independent basis, Debye-Ang):
   XX=            -90.9034   YY=           -107.0675   ZZ=           -100.9917
   XY=              7.0397   XZ=              5.8176   YZ=             -3.1588

 Normal termination of Gaussian 16 at Thu May  6 00:23:24 2021.
