 Gaussian 16, Revision A.03,
 Gaussian 16:  EM64L-G16RevA.03 25-Dec-2016

 -------------
 #p 6-31g* mp2
 -------------

 ------------------------------------------------------
 Input file generated by CHIRIPA (05-May-2021 14:55:22)
 ------------------------------------------------------
 Symbolic Z-matrix:
 Charge =  0 Multiplicity = 1

                         Standard orientation:
 ---------------------------------------------------------------------
 Center     Atomic      Atomic             Coordinates (Angstroms)
 Number     Number       Type             X           Y           Z
 ---------------------------------------------------------------------
      1          6           0        4.471218    2.403749    0.020102
      2          6           0        3.300822    2.101088    0.723729
      3          6           0        2.778817    0.804229    0.709050
      4          6           0        3.455954   -0.169900   -0.022966
      5          6           0        4.624027    0.100474   -0.734156
      6          6           0        5.127927    1.404238   -0.705316
      7          1           0        4.869691    3.413863    0.037005
      8          1           0        2.788700    2.875314    1.287955
      9          1           0        1.874483    0.542412    1.244820
     10          1           0        5.112276   -0.692468   -1.287576
     11          1           0        6.037055    1.636405   -1.252701
     12          7           0        2.912914   -1.546482   -0.046002
     13          8           0        3.528265   -2.386831   -0.698531
     14          8           0        1.882211   -1.759033    0.588908
     15          6           0       -5.190709    0.241519    0.266941
     16          6           0       -6.187259    0.515185   -0.859993
     17          6           0       -7.487749    1.144313   -0.359275
     18          1           0       -5.658263   -0.420608    1.008511
     19          1           0       -4.967151    1.183775    0.786145
     20          1           0       -6.407810   -0.427075   -1.377797
     21          1           0       -5.717212    1.176583   -1.599063
     22          1           0       -7.287249    2.098065    0.139480
     23          1           0       -7.981771    0.485296    0.362002
     24          1           0       -8.185705    1.331463   -1.181280
     25          6           0       -3.885652   -0.387380   -0.217867
     26          6           0       -2.889100   -0.661045    0.909066
     27          6           0       -1.588611   -1.290173    0.408349
     28          1           0       -4.109209   -1.329635   -0.737072
     29          1           0       -3.418098    0.274747   -0.959438
     30          1           0       -3.359148   -1.322443    1.648135
     31          1           0       -2.668551    0.281214    1.426870
     32          1           0       -1.094590   -0.631157   -0.312929
     33          1           0       -1.789111   -2.243926   -0.090407
     34          1           0       -0.890655   -1.477324    1.230354
 ---------------------------------------------------------------------

 SCF Done:  E(RHF) =  -669.535625732     A.U. after   15 cycles
 E2 =    -0.2090986666D+01 EUMP2 =    -0.67162661239855D+03

 The electronic state is 1-A.
 Alpha  occ. eigenvalues --  -20.60822 -20.60810 -15.85859 -11.31223 -11.27792
 Alpha  occ. eigenvalues --  -11.27788 -11.27539 -11.26811 -11.26802 -11.21355
 Alpha  occ. eigenvalues --  -11.21067 -11.20991 -11.20910 -11.20887 -11.20009
 Alpha  occ. eigenvalues --   -1.59885  -1.39439  -1.19397  -1.08794  -1.08019
 Alpha  occ. eigenvalues --   -1.04800  -1.03045  -0.95642  -0.95446  -0.86462
 Alpha  occ. eigenvalues --   -0.86198  -0.82463  -0.79117  -0.77832  -0.77499
 Alpha  occ. eigenvalues --   -0.72087  -0.71201  -0.70506  -0.65054  -0.64804
 Alpha  occ. eigenvalues --   -0.64662  -0.62147  -0.60458  -0.58846  -0.57069
 Alpha  occ. eigenvalues --   -0.55303  -0.54764  -0.53131  -0.52892  -0.52088
 Alpha  occ. eigenvalues --   -0.51882  -0.49429  -0.48838  -0.48824  -0.47421
 Alpha  occ. eigenvalues --   -0.46189  -0.45368  -0.45307  -0.44822  -0.43245
 Alpha  occ. eigenvalues --   -0.37379  -0.36404
 Alpha virt. eigenvalues --    0.05013   0.11243   0.16497   0.21214   0.23190
 Alpha virt. eigenvalues --    0.24502   0.26938   0.27151   0.27720   0.27861
 Alpha virt. eigenvalues --    0.29028   0.30918   0.31812   0.32045   0.32234

 Mulliken charges:
               1
     1  C   -0.170744
     2  C   -0.218718
     3  C   -0.171194
     4  C    0.157990
     5  C   -0.170952
     6  C   -0.218578
     7  H    0.225694
     8  H    0.223577
     9  H    0.276570
    10  H    0.275710
    11  H    0.223561
    12  N    0.492302
    13  O   -0.460030
    14  O   -0.462902
    15  C   -0.297456
    16  C   -0.299218
    17  C   -0.475382
    18  H    0.149517
    19  H    0.147039
    20  H    0.152368
    21  H    0.150798
    22  H    0.153957
    23  H    0.155175
    24  H    0.159449
    25  C   -0.297375
    26  C   -0.301356
    27  C   -0.473113
    28  H    0.150416
    29  H    0.147246
    30  H    0.150856
    31  H    0.144462
    32  H    0.148665
    33  H    0.157118
    34  H    0.174547
 Sum of Mulliken charges =  -0.00000

 Dipole moment (field-independent basis, Debye):
    X=              2.1105    Y=              4.7361    Z=              0.0908  Tot=              5.1859
 Quadrupole moment (field-independent basis, Debye-Ang):
   XX=            -80.5901   YY=            -95.7339   ZZ=            -93.7123
   XY=             16.5179   XZ=             -2.2104   YZ=              0.6041

 Normal termination of Gaussian 16 at Wed May  5 19:01:10 2021.
