 Gaussian 16, Revision A.03,
 Gaussian 16:  EM64L-G16RevA.03 25-Dec-2016

 -------------
 #p 6-31g* mp2
 -------------

 ------------------------------------------------------
 Input file generated by CHIRIPA (05-May-2021 14:55:25)
 ------------------------------------------------------
 Symbolic Z-matrix:
 Charge =  0 Multiplicity = 1

                         Standard orientation:
 ---------------------------------------------------------------------
 Center     Atomic      Atomic             Coordinates (Angstroms)
 Number     Number       Type             X           Y           Z
 ---------------------------------------------------------------------
      1          6           0        3.142118   -2.326834   -0.203767
      2          6           0        2.066230   -1.453449   -0.393993
      3          6           0        2.253696   -0.069863   -0.322609
      4          6           0        3.536217    0.408077   -0.058027
      5          6           0        4.628168   -0.436466    0.136081
      6          6           0        4.417405   -1.816455    0.060197
      7          1           0        2.987441   -3.400239   -0.260968
      8          1           0        1.074723   -1.846989   -0.599138
      9          1           0        1.438443    0.628899   -0.465832
     10          1           0        5.604934   -0.014380    0.339033
     11          1           0        5.254805   -2.492366    0.208352
     12          7           0        3.747010    1.870913    0.019925
     13          8           0        4.886721    2.266831    0.254329
     14          8           0        2.768528    2.593866   -0.154855
     15          6           0       -3.945175   -0.681374   -0.186208
     16          6           0       -2.759499   -0.871527    0.760364
     17          6           0       -1.694134   -1.809686    0.192342
     18          1           0       -4.394293   -1.660409   -0.402376
     19          1           0       -3.580636   -0.286260   -1.144535
     20          1           0       -3.126338   -1.264862    1.717096
     21          1           0       -2.313269    0.108095    0.974457
     22          1           0       -1.300378   -1.418918   -0.751511
     23          1           0       -2.118065   -2.799674   -0.004652
     24          1           0       -0.855717   -1.931407    0.885236
     25          6           0       -5.018601    0.253896    0.367648
     26          6           0       -6.204277    0.444050   -0.578924
     27          6           0       -7.269643    1.382208   -0.010902
     28          1           0       -5.383141   -0.141217    1.325976
     29          1           0       -4.569483    1.232930    0.583816
     30          1           0       -6.650506   -0.535572   -0.793016
     31          1           0       -5.837439    0.837383   -1.535655
     32          1           0       -6.845711    2.372196    0.186091
     33          1           0       -7.663398    0.991439    0.932950
     34          1           0       -8.108058    1.503930   -0.703797
 ---------------------------------------------------------------------

 SCF Done:  E(RHF) =  -669.535072278     A.U. after   15 cycles
 E2 =    -0.2091438381D+01 EUMP2 =    -0.67162651065906D+03

 The electronic state is 1-A.
 Alpha  occ. eigenvalues --  -20.60714 -20.60709 -15.85765 -11.31108 -11.27673
 Alpha  occ. eigenvalues --  -11.27651 -11.27387 -11.26688 -11.26557 -11.22286
 Alpha  occ. eigenvalues --  -11.22145 -11.21880 -11.21846 -11.21693 -11.21236
 Alpha  occ. eigenvalues --   -1.59790  -1.39344  -1.19268  -1.08892  -1.08667
 Alpha  occ. eigenvalues --   -1.04669  -1.04048  -0.96539  -0.95510  -0.87586
 Alpha  occ. eigenvalues --   -0.86055  -0.82343  -0.80134  -0.78654  -0.77390
 Alpha  occ. eigenvalues --   -0.71984  -0.71112  -0.70382  -0.65532  -0.64915
 Alpha  occ. eigenvalues --   -0.64689  -0.62115  -0.61388  -0.59900  -0.58105
 Alpha  occ. eigenvalues --   -0.55844  -0.55159  -0.53431  -0.53036  -0.52905
 Alpha  occ. eigenvalues --   -0.52553  -0.50443  -0.48742  -0.48737  -0.48431
 Alpha  occ. eigenvalues --   -0.47123  -0.46209  -0.46099  -0.44755  -0.44273
 Alpha  occ. eigenvalues --   -0.37251  -0.36258
 Alpha virt. eigenvalues --    0.05127   0.11340   0.16580   0.20696   0.22565
 Alpha virt. eigenvalues --    0.23848   0.25831   0.26477   0.27161   0.28199
 Alpha virt. eigenvalues --    0.28959   0.30398   0.30823   0.31157   0.32104

 Mulliken charges:
               1
     1  C   -0.173177
     2  C   -0.225117
     3  C   -0.174524
     4  C    0.158842
     5  C   -0.171454
     6  C   -0.218349
     7  H    0.225682
     8  H    0.237010
     9  H    0.274651
    10  H    0.275202
    11  H    0.222916
    12  N    0.488137
    13  O   -0.460715
    14  O   -0.460881
    15  C   -0.299331
    16  C   -0.299423
    17  C   -0.486112
    18  H    0.149936
    19  H    0.150276
    20  H    0.155439
    21  H    0.155740
    22  H    0.149661
    23  H    0.159091
    24  H    0.161680
    25  C   -0.299212
    26  C   -0.300079
    27  C   -0.476116
    28  H    0.150278
    29  H    0.152267
    30  H    0.151706
    31  H    0.152760
    32  H    0.156693
    33  H    0.155410
    34  H    0.161113
 Sum of Mulliken charges =  -0.00000

 Dipole moment (field-independent basis, Debye):
    X=             -0.9743    Y=             -5.1496    Z=             -0.2296  Tot=              5.2460
 Quadrupole moment (field-independent basis, Debye-Ang):
   XX=            -95.2453   YY=            -99.2834   ZZ=            -95.3094
   XY=            -18.6931   XZ=              0.0363   YZ=             -0.5324

 Normal termination of Gaussian 16 at Thu May  6 01:37:23 2021.
