 Gaussian 16, Revision A.03,
 Gaussian 16:  EM64L-G16RevA.03 25-Dec-2016

 -------------
 #p 6-31g* mp2
 -------------

 ------------------------------------------------------
 Input file generated by CHIRIPA (05-May-2021 14:57:23)
 ------------------------------------------------------
 Symbolic Z-matrix:
 Charge =  0 Multiplicity = 1

                         Standard orientation:
 ---------------------------------------------------------------------
 Center     Atomic      Atomic             Coordinates (Angstroms)
 Number     Number       Type             X           Y           Z
 ---------------------------------------------------------------------
      1          6           0       -1.499200   -2.164385    0.920628
      2          6           0       -1.967038   -2.010818   -0.388595
      3          6           0       -2.588492   -0.823137   -0.785780
      4          6           0       -2.726129    0.195035    0.156383
      5          6           0       -2.270477    0.072295    1.468102
      6          6           0       -1.652143   -1.124172    1.843172
      7          1           0       -1.017651   -3.090417    1.220581
      8          1           0       -1.849624   -2.816976   -1.107183
      9          1           0       -2.959911   -0.677548   -1.792889
     10          1           0       -2.401890    0.893668    2.162001
     11          1           0       -1.289782   -1.240635    2.860608
     12          7           0       -3.382383    1.457031   -0.252392
     13          8           0       -3.491510    2.339052    0.596587
     14          8           0       -3.775201    1.540266   -1.414030
     15          6           0        3.720132    2.161400    0.507927
     16          6           0        3.676884    1.065758    1.376384
     17          6           0        3.068795   -0.129613    0.981588
     18          6           0        2.511418   -0.194746   -0.294491
     19          6           0        2.538520    0.879449   -1.182556
     20          6           0        3.151813    2.064919   -0.766525
     21          1           0        4.194530    3.086147    0.822862
     22          1           0        4.117429    1.137820    2.366725
     23          1           0        3.021211   -0.993193    1.633802
     24          1           0        2.090737    0.777409   -2.163625
     25          1           0        3.183920    2.914198   -1.443089
     26          7           0        1.864907   -1.454991   -0.723684
     27          8           0        1.381138   -1.486873   -1.853104
     28          8           0        1.854180   -2.387026    0.077461
 ---------------------------------------------------------------------

 SCF Done:  E(RHF) =  -868.340442647     A.U. after   16 cycles
 E2 =    -0.2600464112D+01 EUMP2 =    -0.87094090675826D+03

 The electronic state is 1-A.
 Alpha  occ. eigenvalues --  -20.61468 -20.61423 -20.60296 -20.60284 -15.86442
 Alpha  occ. eigenvalues --  -15.85338 -11.31559 -11.30445 -11.28134 -11.28062
 Alpha  occ. eigenvalues --  -11.27782 -11.27081 -11.27061 -11.27018 -11.26936
 Alpha  occ. eigenvalues --  -11.26536 -11.25978 -11.25767  -1.60486  -1.59377
 Alpha  occ. eigenvalues --   -1.40056  -1.38936  -1.19704  -1.18593  -1.09146
 Alpha  occ. eigenvalues --   -1.07995  -1.05073  -1.03951  -0.96031  -0.94874
 Alpha  occ. eigenvalues --   -0.86482  -0.85337  -0.82882  -0.81720  -0.77956
 Alpha  occ. eigenvalues --   -0.76833  -0.72717  -0.71788  -0.71559  -0.70814
 Alpha  occ. eigenvalues --   -0.70702  -0.69588  -0.65366  -0.65076  -0.64214
 Alpha  occ. eigenvalues --   -0.63918  -0.62429  -0.61307  -0.55580  -0.54337
 Alpha  occ. eigenvalues --   -0.53409  -0.53164  -0.52303  -0.52015  -0.49474
 Alpha  occ. eigenvalues --   -0.49435  -0.48330  -0.48291  -0.45527  -0.44401
 Alpha  occ. eigenvalues --   -0.37674  -0.36665  -0.36463  -0.35544
 Alpha virt. eigenvalues --    0.04554   0.05713   0.10991   0.12113   0.16105
 Alpha virt. eigenvalues --    0.17301   0.21142   0.22386   0.27064   0.28004
 Alpha virt. eigenvalues --    0.28200   0.29314   0.30742   0.31959   0.32220

 Mulliken charges:
               1
     1  C   -0.165583
     2  C   -0.213305
     3  C   -0.172012
     4  C    0.154859
     5  C   -0.173759
     6  C   -0.224173
     7  H    0.235196
     8  H    0.231685
     9  H    0.274227
    10  H    0.270671
    11  H    0.218597
    12  N    0.488128
    13  O   -0.464792
    14  O   -0.462216
    15  C   -0.169615
    16  C   -0.218681
    17  C   -0.171332
    18  C    0.160128
    19  C   -0.169722
    20  C   -0.217773
    21  H    0.227766
    22  H    0.223564
    23  H    0.271868
    24  H    0.277056
    25  H    0.226772
    26  N    0.491238
    27  O   -0.459826
    28  O   -0.468966
 Sum of Mulliken charges =  -0.00000

 Dipole moment (field-independent basis, Debye):
    X=              4.8446    Y=             -0.1572    Z=              2.7665  Tot=              5.5810
 Quadrupole moment (field-independent basis, Debye-Ang):
   XX=           -107.6735   YY=           -107.2705   ZZ=            -97.4764
   XY=             24.3109   XZ=              1.6049   YZ=             -2.1718

 Normal termination of Gaussian 16 at Thu May  6 00:12:21 2021.
