 Gaussian 16, Revision A.03,
 Gaussian 16:  EM64L-G16RevA.03 25-Dec-2016

 -------------
 #p 6-31g* mp2
 -------------

 ------------------------------------------------------
 Input file generated by CHIRIPA (05-May-2021 14:51:14)
 ------------------------------------------------------
 Symbolic Z-matrix:
 Charge =  0 Multiplicity = 1

                         Standard orientation:
 ---------------------------------------------------------------------
 Center     Atomic      Atomic             Coordinates (Angstroms)
 Number     Number       Type             X           Y           Z
 ---------------------------------------------------------------------
      1          6           0        2.576749    1.589975    0.206371
      2          6           0        1.127206    1.968032   -0.100033
      3          6           0        0.783703    3.393403    0.333691
      4          1           0        2.757798    1.700447    1.284315
      5          1           0        3.247738    2.299337   -0.297587
      6          1           0        0.459175    1.257341    0.403225
      7          1           0        0.949533    1.856463   -1.177345
      8          1           0        1.426192    4.117206   -0.178089
      9          1           0        0.933047    3.514680    1.411461
     10          1           0       -0.257221    3.642708    0.105253
     11          6           0        2.935333    0.167951   -0.221406
     12          6           0        4.384876   -0.210107    0.084998
     13          6           0        4.728378   -1.635478   -0.348726
     14          1           0        2.264344   -0.541412    0.282552
     15          1           0        2.754284    0.057478   -1.299349
     16          1           0        4.562548   -0.098538    1.162310
     17          1           0        5.052907    0.500584   -0.418260
     18          1           0        4.579035   -1.756755   -1.426496
     19          1           0        4.085890   -2.359281    0.163054
     20          1           0        5.769303   -1.884783   -0.120288
     21          6           0       -3.071645   -0.252725   -0.295225
     22          6           0       -4.481936    0.027554    0.224875
     23          6           0       -5.100019    1.283596   -0.390045
     24          1           0       -2.430749    0.614188   -0.083898
     25          1           0       -3.105598   -0.357216   -1.388534
     26          1           0       -4.445553    0.130111    1.317017
     27          1           0       -5.119502   -0.840204    0.012456
     28          1           0       -5.165455    1.187397   -1.478651
     29          1           0       -4.487678    2.163225   -0.166678
     30          1           0       -6.108043    1.465114   -0.004301
     31          6           0       -2.440437   -1.505200    0.310260
     32          6           0       -1.030145   -1.785480   -0.209841
     33          6           0       -0.412063   -3.041522    0.405079
     34          1           0       -2.406483   -1.400710    1.403569
     35          1           0       -3.081333   -2.372113    0.098933
     36          1           0       -0.392581   -0.917721    0.002579
     37          1           0       -1.066529   -1.888037   -1.301983
     38          1           0       -1.024404   -3.921150    0.181713
     39          1           0       -0.346627   -2.945321    1.493686
     40          1           0        0.595962   -3.223039    0.019336
 ---------------------------------------------------------------------

 SCF Done:  E(RHF) =  -470.733065043     A.U. after   11 cycles
 E2 =    -0.1583895849D+01 EUMP2 =    -0.47231696089173D+03

 The electronic state is 1-A.
 Alpha  occ. eigenvalues --  -11.21643 -11.21618 -11.21591 -11.21522 -11.21432
 Alpha  occ. eigenvalues --  -11.21383 -11.21369 -11.21324 -11.21121 -11.21087
 Alpha  occ. eigenvalues --  -11.21066 -11.21063  -1.08479  -1.08397  -1.03566
 Alpha  occ. eigenvalues --   -1.03509  -0.96015  -0.95961  -0.87031  -0.86978
 Alpha  occ. eigenvalues --   -0.79671  -0.79549  -0.78398  -0.78097  -0.65227
 Alpha  occ. eigenvalues --   -0.64932  -0.61003  -0.60878  -0.59382  -0.59332
 Alpha  occ. eigenvalues --   -0.57667  -0.57531  -0.55323  -0.55229  -0.52720
 Alpha  occ. eigenvalues --   -0.52650  -0.52454  -0.52370  -0.49968  -0.49902
 Alpha  occ. eigenvalues --   -0.48085  -0.47823  -0.46869  -0.46574  -0.46108
 Alpha  occ. eigenvalues --   -0.45782  -0.45712  -0.45100  -0.43814  -0.43760
 Alpha virt. eigenvalues --    0.20671   0.22350   0.23677   0.24107   0.25855
 Alpha virt. eigenvalues --    0.26763   0.26979   0.27140   0.27442   0.29552
 Alpha virt. eigenvalues --    0.30756   0.31399   0.31736   0.31841   0.32681

 Mulliken charges:
               1
     1  C   -0.298318
     2  C   -0.305864
     3  C   -0.475510
     4  H    0.149300
     5  H    0.149808
     6  H    0.157161
     7  H    0.152892
     8  H    0.155633
     9  H    0.155051
    10  H    0.160105
    11  C   -0.302588
    12  C   -0.299535
    13  C   -0.476117
    14  H    0.154161
    15  H    0.149951
    16  H    0.151917
    17  H    0.152056
    18  H    0.155217
    19  H    0.155395
    20  H    0.160434
    21  C   -0.300431
    22  C   -0.299576
    23  C   -0.475606
    24  H    0.151553
    25  H    0.149581
    26  H    0.151792
    27  H    0.151995
    28  H    0.155179
    29  H    0.154962
    30  H    0.160237
    31  C   -0.297585
    32  C   -0.309754
    33  C   -0.476431
    34  H    0.148652
    35  H    0.149556
    36  H    0.162383
    37  H    0.151895
    38  H    0.155327
    39  H    0.154140
    40  H    0.160983
 Sum of Mulliken charges =  -0.00000

 Dipole moment (field-independent basis, Debye):
    X=              0.0276    Y=              0.0191    Z=             -0.0163  Tot=              0.0373
 Quadrupole moment (field-independent basis, Debye-Ang):
   XX=            -85.0802   YY=            -86.1995   ZZ=            -83.5381
   XY=              1.2412   XZ=             -0.0564   YZ=              0.1745

 Normal termination of Gaussian 16 at Wed May  5 16:53:57 2021.
