 Gaussian 16, Revision A.03,
 Gaussian 16:  EM64L-G16RevA.03 25-Dec-2016

 -------------
 #p 6-31g* mp2
 -------------

 ------------------------------------------------------
 Input file generated by CHIRIPA (05-May-2021 14:57:21)
 ------------------------------------------------------
 Symbolic Z-matrix:
 Charge =  0 Multiplicity = 1

                         Standard orientation:
 ---------------------------------------------------------------------
 Center     Atomic      Atomic             Coordinates (Angstroms)
 Number     Number       Type             X           Y           Z
 ---------------------------------------------------------------------
      1          6           0        2.242323   -2.350472    0.281225
      2          6           0        2.951226   -1.710280    1.303053
      3          6           0        3.334295   -0.372242    1.170910
      4          6           0        2.990322    0.298435   -0.001764
      5          6           0        2.284649   -0.311784   -1.037597
      6          6           0        1.911879   -1.650414   -0.883785
      7          1           0        1.948746   -3.390122    0.392294
      8          1           0        3.209217   -2.251474    2.208920
      9          1           0        3.883656    0.147744    1.946303
     10          1           0        2.041840    0.253831   -1.928968
     11          1           0        1.361393   -2.145041   -1.678992
     12          7           0        3.390408    1.715269   -0.153128
     13          8           0        3.075235    2.284079   -1.196085
     14          8           0        4.011592    2.230146    0.774055
     15          6           0       -4.053307    2.103353    0.601344
     16          6           0       -3.881463    1.101516    1.562236
     17          6           0       -3.257344   -0.103860    1.227434
     18          6           0       -2.815242   -0.274544   -0.083559
     19          6           0       -2.971814    0.704619   -1.063364
     20          6           0       -3.598735    1.902061   -0.706084
     21          1           0       -4.539226    3.036636    0.870156
     22          1           0       -4.233491    1.255078    2.578376
     23          1           0       -3.111390   -0.896207    1.951521
     24          1           0       -2.610372    0.522432   -2.068144
     25          1           0       -3.730838    2.678345   -1.454401
     26          7           0       -2.153033   -1.546422   -0.449897
     27          8           0       -1.772426   -1.672220   -1.611771
     28          8           0       -2.027138   -2.393439    0.431777
 ---------------------------------------------------------------------

 SCF Done:  E(RHF) =  -868.340622490     A.U. after   16 cycles
 E2 =    -0.2598873579D+01 EUMP2 =    -0.87093949606961D+03

 The electronic state is 1-A.
 Alpha  occ. eigenvalues --  -20.61453 -20.61433 -20.60335 -20.60329 -15.86465
 Alpha  occ. eigenvalues --  -15.85377 -11.31522 -11.30496 -11.28060 -11.28050
 Alpha  occ. eigenvalues --  -11.27730 -11.27056 -11.27005 -11.26980 -11.26964
 Alpha  occ. eigenvalues --  -11.26594 -11.26007 -11.25767  -1.60504  -1.59416
 Alpha  occ. eigenvalues --   -1.40069  -1.38977  -1.19663  -1.18617  -1.09114
 Alpha  occ. eigenvalues --   -1.08032  -1.05022  -1.03967  -0.96005  -0.94920
 Alpha  occ. eigenvalues --   -0.86435  -0.85357  -0.82853  -0.81756  -0.77933
 Alpha  occ. eigenvalues --   -0.76857  -0.72712  -0.71797  -0.71600  -0.70771
 Alpha  occ. eigenvalues --   -0.70738  -0.69673  -0.65323  -0.65024  -0.64244
 Alpha  occ. eigenvalues --   -0.63912  -0.62379  -0.61307  -0.55531  -0.54404
 Alpha  occ. eigenvalues --   -0.53362  -0.53113  -0.52330  -0.52019  -0.49472
 Alpha  occ. eigenvalues --   -0.49438  -0.48371  -0.48329  -0.45539  -0.44438
 Alpha  occ. eigenvalues --   -0.37619  -0.36607  -0.36543  -0.35576
 Alpha virt. eigenvalues --    0.04570   0.05644   0.11051   0.12084   0.16127
 Alpha virt. eigenvalues --    0.17232   0.21206   0.22403   0.27130   0.27963
 Alpha virt. eigenvalues --    0.28419   0.29196   0.30814   0.31986   0.32299

 Mulliken charges:
               1
     1  C   -0.168162
     2  C   -0.219626
     3  C   -0.173720
     4  C    0.157287
     5  C   -0.176096
     6  C   -0.219566
     7  H    0.231274
     8  H    0.220875
     9  H    0.271863
    10  H    0.272709
    11  H    0.240077
    12  N    0.488171
    13  O   -0.463669
    14  O   -0.463260
    15  C   -0.169283
    16  C   -0.218248
    17  C   -0.170321
    18  C    0.158646
    19  C   -0.170032
    20  C   -0.217495
    21  H    0.227971
    22  H    0.224617
    23  H    0.274554
    24  H    0.274574
    25  H    0.226207
    26  N    0.490384
    27  O   -0.467722
    28  O   -0.462008
 Sum of Mulliken charges =  -0.00000

 Dipole moment (field-independent basis, Debye):
    X=             -4.0640    Y=             -0.6217    Z=              1.7909  Tot=              4.4844
 Quadrupole moment (field-independent basis, Debye-Ang):
   XX=           -100.9485   YY=           -110.4917   ZZ=            -96.8148
   XY=            -28.4034   XZ=             -0.6178   YZ=             -2.3637

 Normal termination of Gaussian 16 at Wed May  5 22:31:11 2021.
