 Gaussian 16, Revision A.03,
 Gaussian 16:  EM64L-G16RevA.03 25-Dec-2016

 -------------
 #p 6-31g* mp2
 -------------

 ------------------------------------------------------
 Input file generated by CHIRIPA (05-May-2021 14:55:22)
 ------------------------------------------------------
 Symbolic Z-matrix:
 Charge =  0 Multiplicity = 1

                         Standard orientation:
 ---------------------------------------------------------------------
 Center     Atomic      Atomic             Coordinates (Angstroms)
 Number     Number       Type             X           Y           Z
 ---------------------------------------------------------------------
      1          6           0       -3.260511   -2.196944    0.261263
      2          6           0       -2.609863   -1.706849   -0.875832
      3          6           0       -2.421871   -0.332392   -1.049256
      4          6           0       -2.899397    0.527362   -0.061288
      5          6           0       -3.551541    0.069761    1.082652
      6          6           0       -3.728448   -1.308641    1.235159
      7          1           0       -3.402242   -3.266188    0.387859
      8          1           0       -2.245411   -2.394378   -1.633804
      9          1           0       -1.921592    0.074107   -1.919829
     10          1           0       -3.903825    0.779766    1.821034
     11          1           0       -4.234109   -1.686417    2.119262
     12          7           0       -2.706246    1.984527   -0.233812
     13          8           0       -3.136250    2.721168    0.651113
     14          8           0       -2.128507    2.362419   -1.250696
     15          6           0        3.290089   -0.852761   -0.325006
     16          6           0        1.905194   -0.971064    0.312217
     17          6           0        0.992645   -1.945270   -0.433418
     18          1           0        3.179923   -0.528353   -1.368830
     19          1           0        3.758668   -1.846227   -0.354244
     20          1           0        1.439928    0.022558    0.341503
     21          1           0        2.018680   -1.295044    1.354702
     22          1           0        1.431902   -2.947940   -0.450928
     23          1           0        0.849861   -1.622852   -1.469883
     24          1           0        0.007848   -2.014513    0.039064
     25          6           0        4.213861    0.117519    0.409112
     26          6           0        5.598755    0.235822   -0.228112
     27          6           0        6.511305    1.210028    0.517523
     28          1           0        3.745282    1.110985    0.438350
     29          1           0        4.324027   -0.206890    1.452936
     30          1           0        5.485269    0.559801   -1.270597
     31          1           0        6.064022   -0.757801   -0.257398
     32          1           0        6.654088    0.887609    1.553988
     33          1           0        6.072048    2.212698    0.535033
     34          1           0        7.496102    1.279272    0.045041
 ---------------------------------------------------------------------

 SCF Done:  E(RHF) =  -669.534550990     A.U. after   15 cycles
 E2 =    -0.2092553606D+01 EUMP2 =    -0.67162710459535D+03

 The electronic state is 1-A.
 Alpha  occ. eigenvalues --  -20.60809 -20.60802 -15.85860 -11.31234 -11.27773
 Alpha  occ. eigenvalues --  -11.27763 -11.27518 -11.26818 -11.26773 -11.21693
 Alpha  occ. eigenvalues --  -11.21537 -11.21415 -11.21306 -11.21279 -11.20975
 Alpha  occ. eigenvalues --   -1.59883  -1.39436  -1.19404  -1.08800  -1.08436
 Alpha  occ. eigenvalues --   -1.04809  -1.03564  -0.96033  -0.95628  -0.87068
 Alpha  occ. eigenvalues --   -0.86192  -0.82458  -0.79640  -0.78239  -0.77502
 Alpha  occ. eigenvalues --   -0.72078  -0.71206  -0.70497  -0.65078  -0.65036
 Alpha  occ. eigenvalues --   -0.64800  -0.62150  -0.60965  -0.59448  -0.57658
 Alpha  occ. eigenvalues --   -0.55354  -0.55280  -0.53473  -0.52897  -0.52536
 Alpha  occ. eigenvalues --   -0.52272  -0.49977  -0.48837  -0.48832  -0.47950
 Alpha  occ. eigenvalues --   -0.46663  -0.45789  -0.45695  -0.44839  -0.43831
 Alpha  occ. eigenvalues --   -0.37372  -0.36295
 Alpha virt. eigenvalues --    0.05017   0.11182   0.16495   0.21068   0.22870
 Alpha virt. eigenvalues --    0.24236   0.26216   0.26870   0.27574   0.28113
 Alpha virt. eigenvalues --    0.28650   0.30769   0.31370   0.31703   0.32099

 Mulliken charges:
               1
     1  C   -0.172393
     2  C   -0.218382
     3  C   -0.168076
     4  C    0.158525
     5  C   -0.171602
     6  C   -0.217966
     7  H    0.226129
     8  H    0.226101
     9  H    0.275549
    10  H    0.275659
    11  H    0.223707
    12  N    0.488009
    13  O   -0.460142
    14  O   -0.460574
    15  C   -0.298281
    16  C   -0.299342
    17  C   -0.482631
    18  H    0.150229
    19  H    0.148002
    20  H    0.156104
    21  H    0.151494
    22  H    0.152049
    23  H    0.148222
    24  H    0.167293
    25  C   -0.299022
    26  C   -0.299714
    27  C   -0.475913
    28  H    0.152975
    29  H    0.148996
    30  H    0.152586
    31  H    0.150749
    32  H    0.154717
    33  H    0.156892
    34  H    0.160051
 Sum of Mulliken charges =  -0.00000

 Dipole moment (field-independent basis, Debye):
    X=             -0.7314    Y=             -5.0828    Z=              0.6299  Tot=              5.1736
 Quadrupole moment (field-independent basis, Debye-Ang):
   XX=            -90.8509   YY=           -100.6879   ZZ=            -91.1055
   XY=             13.8064   XZ=             -4.1588   YZ=              0.6821

 Normal termination of Gaussian 16 at Thu May  6 17:36:30 2021.
