 Gaussian 16, Revision A.03,
 Gaussian 16:  EM64L-G16RevA.03 25-Dec-2016

 -------------
 #p 6-31g* mp2
 -------------

 ------------------------------------------------------
 Input file generated by CHIRIPA (05-May-2021 14:53:12)
 ------------------------------------------------------
 Symbolic Z-matrix:
 Charge =  0 Multiplicity = 1

                         Standard orientation:
 ---------------------------------------------------------------------
 Center     Atomic      Atomic             Coordinates (Angstroms)
 Number     Number       Type             X           Y           Z
 ---------------------------------------------------------------------
      1          6           0        2.053594    0.845392   -0.636534
      2          6           0        2.405036    2.332582   -0.584180
      3          6           0        1.253618    3.228570   -1.041602
      4          1           0        1.765294    0.579174   -1.662670
      5          1           0        1.172227    0.661647   -0.006593
      6          1           0        3.286313    2.513230   -1.212936
      7          1           0        2.692718    2.595248    0.441911
      8          1           0        0.373133    3.077574   -0.408714
      9          1           0        0.970101    2.995090   -2.072963
     10          1           0        1.526492    4.287503   -0.996205
     11          6           0        3.194627   -0.063106   -0.182217
     12          6           0        2.843185   -1.550295   -0.234571
     13          6           0        3.994603   -2.446283    0.222851
     14          1           0        4.075994    0.120639   -0.812158
     15          1           0        3.482927    0.203112    0.843919
     16          1           0        2.555504   -1.812962   -1.260662
     17          1           0        1.961908   -1.730944    0.394185
     18          1           0        4.278121   -2.212804    1.254212
     19          1           0        4.875088   -2.295288   -0.410037
     20          1           0        3.721729   -3.505216    0.177454
     21          6           0       -3.204953   -0.999192   -1.813508
     22          6           0       -2.108360   -1.728457   -1.342151
     23          6           0       -1.460774   -1.353269   -0.161297
     24          6           0       -1.938438   -0.238525    0.526067
     25          6           0       -3.028534    0.508395    0.082116
     26          6           0       -3.660737    0.114941   -1.101126
     27          1           0       -3.702039   -1.297741   -2.731751
     28          1           0       -1.752214   -2.594143   -1.893325
     29          1           0       -0.609650   -1.899898    0.226264
     30          1           0       -3.360601    1.366767    0.653383
     31          1           0       -4.512138    0.683178   -1.464813
     32          7           0       -1.261010    0.168338    1.777448
     33          8           0       -1.701215    1.154301    2.364588
     34          8           0       -0.302665   -0.506431    2.147446
 ---------------------------------------------------------------------

 SCF Done:  E(RHF) =  -669.536096058     A.U. after   15 cycles
 E2 =    -0.2093807453D+01 EUMP2 =    -0.67162990351129D+03

 The electronic state is 1-A.
 Alpha  occ. eigenvalues --  -20.61014 -20.61008 -15.86011 -11.31252 -11.27823
 Alpha  occ. eigenvalues --  -11.27796 -11.27548 -11.26810 -11.26794 -11.21318
 Alpha  occ. eigenvalues --  -11.21162 -11.20954 -11.20892 -11.20798 -11.20735
 Alpha  occ. eigenvalues --   -1.60063  -1.39622  -1.19423  -1.08847  -1.08021
 Alpha  occ. eigenvalues --   -1.04806  -1.03176  -0.95701  -0.95617  -0.86643
 Alpha  occ. eigenvalues --   -0.86217  -0.82536  -0.79261  -0.77933  -0.77540
 Alpha  occ. eigenvalues --   -0.72248  -0.71387  -0.70539  -0.65093  -0.64841
 Alpha  occ. eigenvalues --   -0.64576  -0.62164  -0.60550  -0.59004  -0.57250
 Alpha  occ. eigenvalues --   -0.55325  -0.54890  -0.53146  -0.52913  -0.52336
 Alpha  occ. eigenvalues --   -0.52063  -0.49556  -0.49033  -0.48994  -0.47579
 Alpha  occ. eigenvalues --   -0.46258  -0.45668  -0.45363  -0.44633  -0.43410
 Alpha  occ. eigenvalues --   -0.37389  -0.36386
 Alpha virt. eigenvalues --    0.04898   0.11184   0.16389   0.20937   0.23321
 Alpha virt. eigenvalues --    0.24350   0.25704   0.27109   0.27735   0.28325
 Alpha virt. eigenvalues --    0.28912   0.30556   0.31373   0.31959   0.32227

 Mulliken charges:
               1
     1  C   -0.303155
     2  C   -0.299694
     3  C   -0.475922
     4  H    0.143099
     5  H    0.155159
     6  H    0.149332
     7  H    0.157462
     8  H    0.156496
     9  H    0.150981
    10  H    0.159892
    11  C   -0.295269
    12  C   -0.309883
    13  C   -0.474814
    14  H    0.146469
    15  H    0.156912
    16  H    0.143468
    17  H    0.163443
    18  H    0.159964
    19  H    0.153692
    20  H    0.156406
    21  C   -0.170083
    22  C   -0.220417
    23  C   -0.170804
    24  C    0.155226
    25  C   -0.170353
    26  C   -0.218691
    27  H    0.225893
    28  H    0.224217
    29  H    0.281225
    30  H    0.275586
    31  H    0.223718
    32  N    0.488844
    33  O   -0.457748
    34  O   -0.460654
 Sum of Mulliken charges =  -0.00000

 Dipole moment (field-independent basis, Debye):
    X=             -2.4803    Y=             -1.4066    Z=             -4.2226  Tot=              5.0951
 Quadrupole moment (field-independent basis, Debye-Ang):
   XX=            -84.2192   YY=            -92.3434   ZZ=            -99.2975
   XY=              1.2713   XZ=              7.0847   YZ=              1.1955

 Normal termination of Gaussian 16 at Thu May  6 17:02:16 2021.
