 Gaussian 16, Revision A.03,
 Gaussian 16:  EM64L-G16RevA.03 25-Dec-2016

 -------------
 #p 6-31g* mp2
 -------------

 ------------------------------------------------------
 Input file generated by CHIRIPA (05-May-2021 14:57:22)
 ------------------------------------------------------
 Symbolic Z-matrix:
 Charge =  0 Multiplicity = 1

                         Standard orientation:
 ---------------------------------------------------------------------
 Center     Atomic      Atomic             Coordinates (Angstroms)
 Number     Number       Type             X           Y           Z
 ---------------------------------------------------------------------
      1          6           0        2.617021    2.535681   -0.424861
      2          6           0        1.815694    1.433999   -0.742182
      3          6           0        2.305540    0.133145   -0.592590
      4          6           0        3.607182   -0.030166   -0.121051
      5          6           0        4.430024    1.047255    0.203580
      6          6           0        3.919333    2.339139    0.046176
      7          1           0        2.228400    3.542732   -0.544101
      8          1           0        0.803921    1.583629   -1.108202
      9          1           0        1.706763   -0.737576   -0.830770
     10          1           0        5.434599    0.866414    0.566270
     11          1           0        4.543916    3.192851    0.293396
     12          7           0        4.136794   -1.402574    0.041450
     13          8           0        5.286928   -1.519703    0.458715
     14          8           0        3.391742   -2.335152   -0.251524
     15          6           0       -5.907156    0.511767   -0.259528
     16          6           0       -5.002895    1.403643    0.326468
     17          6           0       -3.677752    1.022251    0.556868
     18          6           0       -3.289104   -0.264450    0.187215
     19          6           0       -4.166430   -1.175806   -0.398462
     20          6           0       -5.486777   -0.772846   -0.619489
     21          1           0       -6.934696    0.816420   -0.434867
     22          1           0       -5.326575    2.401921    0.607037
     23          1           0       -2.956871    1.692631    1.008907
     24          1           0       -3.814354   -2.164304   -0.667413
     25          1           0       -6.186855   -1.467594   -1.074750
     26          7           0       -1.888772   -0.679630    0.426167
     27          8           0       -1.571207   -1.818817    0.091440
     28          8           0       -1.135273    0.142000    0.943659
 ---------------------------------------------------------------------

 SCF Done:  E(RHF) =  -868.338699147     A.U. after   16 cycles
 E2 =    -0.2599543863D+01 EUMP2 =    -0.87093824300951D+03

 The electronic state is 1-A.
 Alpha  occ. eigenvalues --  -20.61505 -20.61460 -20.59648 -20.59610 -15.86494
 Alpha  occ. eigenvalues --  -15.84680 -11.31732 -11.29948 -11.28307 -11.28251
 Alpha  occ. eigenvalues --  -11.27986 -11.27273 -11.27234 -11.26607 -11.26389
 Alpha  occ. eigenvalues --  -11.26353 -11.25652 -11.25475  -1.60552  -1.58710
 Alpha  occ. eigenvalues --   -1.40103  -1.38263  -1.19890  -1.18138  -1.09308
 Alpha  occ. eigenvalues --   -1.07580  -1.05268  -1.03512  -0.96162  -0.94417
 Alpha  occ. eigenvalues --   -0.86672  -0.84942  -0.82993  -0.81239  -0.78065
 Alpha  occ. eigenvalues --   -0.76278  -0.72696  -0.71874  -0.70988  -0.70907
 Alpha  occ. eigenvalues --   -0.70029  -0.69294  -0.65539  -0.65263  -0.63802
 Alpha  occ. eigenvalues --   -0.63550  -0.62615  -0.60857  -0.55766  -0.54113
 Alpha  occ. eigenvalues --   -0.53609  -0.53353  -0.51872  -0.51629  -0.49482
 Alpha  occ. eigenvalues --   -0.49448  -0.47674  -0.47647  -0.45524  -0.43688
 Alpha  occ. eigenvalues --   -0.37862  -0.36867  -0.36172  -0.35061
 Alpha virt. eigenvalues --    0.04421   0.06252   0.10788   0.12549   0.15938
 Alpha virt. eigenvalues --    0.17738   0.20951   0.22518   0.26871   0.27724
 Alpha virt. eigenvalues --    0.28476   0.29401   0.30603   0.31760   0.32292

 Mulliken charges:
               1
     1  C   -0.172927
     2  C   -0.209200
     3  C   -0.163076
     4  C    0.155303
     5  C   -0.172532
     6  C   -0.219484
     7  H    0.218930
     8  H    0.220333
     9  H    0.285034
    10  H    0.271563
    11  H    0.217926
    12  N    0.487904
    13  O   -0.466178
    14  O   -0.456925
    15  C   -0.170186
    16  C   -0.218426
    17  C   -0.172362
    18  C    0.157293
    19  C   -0.170541
    20  C   -0.218452
    21  H    0.227438
    22  H    0.224232
    23  H    0.273766
    24  H    0.278106
    25  H    0.225800
    26  N    0.486244
    27  O   -0.454988
    28  O   -0.464598
 Sum of Mulliken charges =  -0.00000

 Dipole moment (field-independent basis, Debye):
    X=             -7.3200    Y=              6.0517    Z=             -1.4239  Tot=              9.6038
 Quadrupole moment (field-independent basis, Debye-Ang):
   XX=            -83.2869   YY=           -102.1612   ZZ=           -105.2887
   XY=             16.5813   XZ=              2.2236   YZ=              2.7916

 Normal termination of Gaussian 16 at Thu May  6 01:46:00 2021.
