 Gaussian 16, Revision A.03,
 Gaussian 16:  EM64L-G16RevA.03 25-Dec-2016

 -------------
 #p 6-31g* mp2
 -------------

 ------------------------------------------------------
 Input file generated by CHIRIPA (05-May-2021 14:53:17)
 ------------------------------------------------------
 Symbolic Z-matrix:
 Charge =  0 Multiplicity = 1

                         Standard orientation:
 ---------------------------------------------------------------------
 Center     Atomic      Atomic             Coordinates (Angstroms)
 Number     Number       Type             X           Y           Z
 ---------------------------------------------------------------------
      1          6           0       -3.452556    0.878522   -0.568133
      2          6           0       -1.940277    0.799474   -0.779671
      3          6           0       -1.326096    2.145637   -1.164925
      4          1           0       -3.926074    1.249559   -1.487403
      5          1           0       -3.668034    1.618489    0.215074
      6          1           0       -1.727634    0.058873   -1.561277
      7          1           0       -1.470323    0.428400    0.140146
      8          1           0       -1.509067    2.890301   -0.383516
      9          1           0       -1.767839    2.518673   -2.094606
     10          1           0       -0.244368    2.066210   -1.311267
     11          6           0       -4.081077   -0.459380   -0.182505
     12          6           0       -5.593356   -0.380332    0.029032
     13          6           0       -6.207538   -1.726495    0.414286
     14          1           0       -3.865599   -1.199347   -0.965712
     15          1           0       -3.607560   -0.830417    0.736765
     16          1           0       -6.063310   -0.009258   -0.890785
     17          1           0       -5.806000    0.360269    0.810638
     18          1           0       -5.765795   -2.099531    1.343968
     19          1           0       -6.024567   -2.471158   -0.367122
     20          1           0       -7.289266   -1.647068    0.560628
     21          6           0        0.984335    0.873420    1.499270
     22          6           0        2.095436    1.655342    1.166745
     23          6           0        3.186233    1.091275    0.498511
     24          6           0        3.132166   -0.263995    0.176622
     25          6           0        2.039501   -1.069260    0.494307
     26          6           0        0.959956   -0.483992    1.162583
     27          1           0        0.141349    1.319836    2.018387
     28          1           0        2.117123    2.709791    1.426967
     29          1           0        4.059076    1.673479    0.229066
     30          1           0        2.046905   -2.117612    0.221690
     31          1           0        0.098388   -1.093668    1.419568
     32          7           0        4.280987   -0.872371   -0.530831
     33          8           0        4.208852   -2.068705   -0.803258
     34          8           0        5.231815   -0.141361   -0.799508
 ---------------------------------------------------------------------

 SCF Done:  E(RHF) =  -669.533845895     A.U. after   15 cycles
 E2 =    -0.2093837061D+01 EUMP2 =    -0.67162768295651D+03

 The electronic state is 1-A.
 Alpha  occ. eigenvalues --  -20.60782 -20.60776 -15.85837 -11.31213 -11.27790
 Alpha  occ. eigenvalues --  -11.27773 -11.27534 -11.26808 -11.26786 -11.22203
 Alpha  occ. eigenvalues --  -11.22138 -11.22042 -11.21974 -11.21631 -11.21540
 Alpha  occ. eigenvalues --   -1.59857  -1.39410  -1.19401  -1.09066  -1.08785
 Alpha  occ. eigenvalues --   -1.04806  -1.04101  -0.96552  -0.95622  -0.87565
 Alpha  occ. eigenvalues --   -0.86213  -0.82452  -0.80180  -0.78878  -0.77490
 Alpha  occ. eigenvalues --   -0.72056  -0.71182  -0.70531  -0.65735  -0.65049
 Alpha  occ. eigenvalues --   -0.64801  -0.62165  -0.61507  -0.59926  -0.58180
 Alpha  occ. eigenvalues --   -0.55888  -0.55285  -0.53377  -0.53060  -0.52889
 Alpha  occ. eigenvalues --   -0.52818  -0.50507  -0.48820  -0.48809  -0.48481
 Alpha  occ. eigenvalues --   -0.47233  -0.46415  -0.46340  -0.44814  -0.44361
 Alpha  occ. eigenvalues --   -0.37286  -0.36364
 Alpha virt. eigenvalues --    0.05021   0.11154   0.16463   0.20040   0.22776
 Alpha virt. eigenvalues --    0.23906   0.25259   0.26204   0.27286   0.28266
 Alpha virt. eigenvalues --    0.28691   0.30603   0.31043   0.31434   0.31885

 Mulliken charges:
               1
     1  C   -0.297948
     2  C   -0.300587
     3  C   -0.478330
     4  H    0.152593
     5  H    0.146873
     6  H    0.155177
     7  H    0.144390
     8  H    0.148031
     9  H    0.158313
    10  H    0.166697
    11  C   -0.297477
    12  C   -0.299818
    13  C   -0.475996
    14  H    0.151672
    15  H    0.142831
    16  H    0.154093
    17  H    0.151674
    18  H    0.154077
    19  H    0.156457
    20  H    0.162060
    21  C   -0.166281
    22  C   -0.219867
    23  C   -0.171713
    24  C    0.158174
    25  C   -0.172599
    26  C   -0.215922
    27  H    0.226160
    28  H    0.224045
    29  H    0.275831
    30  H    0.275845
    31  H    0.224152
    32  N    0.488105
    33  O   -0.460320
    34  O   -0.460391
 Sum of Mulliken charges =  -0.00000

 Dipole moment (field-independent basis, Debye):
    X=             -4.0655    Y=              2.1345    Z=              2.4241  Tot=              5.1923
 Quadrupole moment (field-independent basis, Debye-Ang):
   XX=           -119.7113   YY=            -92.9603   ZZ=            -93.6550
   XY=              9.8802   XZ=              7.6915   YZ=              0.2148

 Normal termination of Gaussian 16 at Thu May  6 04:23:09 2021.
