 Gaussian 16, Revision A.03,
 Gaussian 16:  EM64L-G16RevA.03 25-Dec-2016

 -------------
 #p 6-31g* mp2
 -------------

 ------------------------------------------------------
 Input file generated by CHIRIPA (05-May-2021 14:55:24)
 ------------------------------------------------------
 Symbolic Z-matrix:
 Charge =  0 Multiplicity = 1

                         Standard orientation:
 ---------------------------------------------------------------------
 Center     Atomic      Atomic             Coordinates (Angstroms)
 Number     Number       Type             X           Y           Z
 ---------------------------------------------------------------------
      1          6           0       -3.230064    1.421316    1.101760
      2          6           0       -3.808906    0.674046    0.070717
      3          6           0       -3.156086   -0.449741   -0.444528
      4          6           0       -1.920114   -0.799309    0.097197
      5          6           0       -1.317577   -0.075080    1.124685
      6          6           0       -1.988436    1.045031    1.624532
      7          1           0       -3.744197    2.292873    1.496034
      8          1           0       -4.773070    0.963930   -0.337205
      9          1           0       -3.581421   -1.046159   -1.242521
     10          1           0       -0.355385   -0.388740    1.510978
     11          1           0       -1.536511    1.623494    2.425276
     12          7           0       -1.219454   -1.987066   -0.440119
     13          8           0       -0.131461   -2.274191    0.054317
     14          8           0       -1.771538   -2.608415   -1.345529
     15          6           0        3.343003    0.575731   -0.208294
     16          6           0        3.604616   -0.670572    0.638035
     17          6           0        5.084515   -1.051704    0.687346
     18          1           0        3.712749    0.402792   -1.228258
     19          1           0        3.925337    1.414680    0.197228
     20          1           0        3.020892   -1.506579    0.231867
     21          1           0        3.234032   -0.494715    1.656052
     22          1           0        5.678361   -0.236262    1.112789
     23          1           0        5.464009   -1.253875   -0.319487
     24          1           0        5.248837   -1.945255    1.297611
     25          6           0        1.868110    0.969362   -0.267234
     26          6           0        1.606498    2.215665   -1.113564
     27          6           0        0.126600    2.596797   -1.162873
     28          1           0        1.285778    0.130414   -0.672757
     29          1           0        1.498366    1.142302    0.752729
     30          1           0        1.977082    2.039809   -2.131580
     31          1           0        2.190223    3.051673   -0.707396
     32          1           0       -0.252894    2.798969   -0.156042
     33          1           0       -0.467247    1.781355   -1.588318
     34          1           0       -0.037723    3.490349   -1.773139
 ---------------------------------------------------------------------

 SCF Done:  E(RHF) =  -669.534460858     A.U. after   15 cycles
 E2 =    -0.2095834560D+01 EUMP2 =    -0.67163029541781D+03

 The electronic state is 1-A.
 Alpha  occ. eigenvalues --  -20.60952 -20.60936 -15.85958 -11.31204 -11.27810
 Alpha  occ. eigenvalues --  -11.27731 -11.27527 -11.26779 -11.26745 -11.21499
 Alpha  occ. eigenvalues --  -11.21182 -11.21051 -11.21023 -11.20990 -11.20605
 Alpha  occ. eigenvalues --   -1.60001  -1.39559  -1.19395  -1.08810  -1.08161
 Alpha  occ. eigenvalues --   -1.04787  -1.03240  -0.95733  -0.95652  -0.86757
 Alpha  occ. eigenvalues --   -0.86180  -0.82500  -0.79328  -0.78103  -0.77441
 Alpha  occ. eigenvalues --   -0.72185  -0.71315  -0.70506  -0.65084  -0.64798
 Alpha  occ. eigenvalues --   -0.64753  -0.62144  -0.60639  -0.59120  -0.57349
 Alpha  occ. eigenvalues --   -0.55298  -0.55032  -0.53244  -0.52907  -0.52405
 Alpha  occ. eigenvalues --   -0.52017  -0.49693  -0.48962  -0.48938  -0.47582
 Alpha  occ. eigenvalues --   -0.46371  -0.45677  -0.45504  -0.44606  -0.43503
 Alpha  occ. eigenvalues --   -0.37350  -0.36275
 Alpha virt. eigenvalues --    0.04954   0.11190   0.16324   0.20792   0.23225
 Alpha virt. eigenvalues --    0.24347   0.25434   0.27058   0.27599   0.28237
 Alpha virt. eigenvalues --    0.29528   0.30880   0.31676   0.31777   0.32304

 Mulliken charges:
               1
     1  C   -0.168945
     2  C   -0.218338
     3  C   -0.171494
     4  C    0.155592
     5  C   -0.164116
     6  C   -0.219752
     7  H    0.225861
     8  H    0.223562
     9  H    0.275478
    10  H    0.278962
    11  H    0.222973
    12  N    0.488776
    13  O   -0.460211
    14  O   -0.458979
    15  C   -0.297152
    16  C   -0.304863
    17  C   -0.475591
    18  H    0.151234
    19  H    0.145630
    20  H    0.172616
    21  H    0.143997
    22  H    0.151402
    23  H    0.155658
    24  H    0.160915
    25  C   -0.303080
    26  C   -0.299166
    27  C   -0.476056
    28  H    0.162386
    29  H    0.135057
    30  H    0.153890
    31  H    0.149369
    32  H    0.150725
    33  H    0.156320
    34  H    0.157340
 Sum of Mulliken charges =  -0.00000

 Dipole moment (field-independent basis, Debye):
    X=             -2.5746    Y=              3.9637    Z=              1.8321  Tot=              5.0691
 Quadrupole moment (field-independent basis, Debye-Ang):
   XX=            -83.9850   YY=           -102.1362   ZZ=            -92.2161
   XY=             -5.5042   XZ=             -1.4989   YZ=              0.1376

 Normal termination of Gaussian 16 at Thu May  6 00:00:42 2021.
