 Gaussian 16, Revision A.03,
 Gaussian 16:  EM64L-G16RevA.03 25-Dec-2016

 -------------
 #p 6-31g* mp2
 -------------

 ------------------------------------------------------
 Input file generated by CHIRIPA (05-May-2021 14:53:13)
 ------------------------------------------------------
 Symbolic Z-matrix:
 Charge =  0 Multiplicity = 1

                         Standard orientation:
 ---------------------------------------------------------------------
 Center     Atomic      Atomic             Coordinates (Angstroms)
 Number     Number       Type             X           Y           Z
 ---------------------------------------------------------------------
      1          6           0        2.980782    0.834765    0.091196
      2          6           0        4.116590    1.831823    0.323146
      3          6           0        3.615027    3.260778    0.533655
      4          1           0        2.395698    1.152019   -0.782858
      5          1           0        2.297396    0.861521    0.951232
      6          1           0        4.798381    1.802193   -0.536446
      7          1           0        4.699154    1.512054    1.196636
      8          1           0        2.951530    3.312027    1.402992
      9          1           0        3.051321    3.603815   -0.339937
     10          1           0        4.443453    3.956967    0.697637
     11          6           0        3.466329   -0.598064   -0.120877
     12          6           0        2.330521   -1.595122   -0.352827
     13          6           0        2.832085   -3.024077   -0.563336
     14          1           0        4.149716   -0.624820   -0.980913
     15          1           0        4.051413   -0.915317    0.753177
     16          1           0        1.747957   -1.275353   -1.226316
     17          1           0        1.648731   -1.565492    0.506765
     18          1           0        3.395791   -3.367114    0.310256
     19          1           0        3.495581   -3.075326   -1.432673
     20          1           0        2.003658   -3.720266   -0.727317
     21          6           0       -1.480158   -2.295658    0.670301
     22          6           0       -2.251727   -1.581733    1.593077
     23          6           0       -2.831794   -0.359957    1.239052
     24          6           0       -2.618776    0.120535   -0.052087
     25          6           0       -1.855174   -0.567337   -0.993911
     26          6           0       -1.284690   -1.787078   -0.617976
     27          1           0       -1.033270   -3.243973    0.953827
     28          1           0       -2.405220   -1.974278    2.594273
     29          1           0       -3.433641    0.213413    1.933634
     30          1           0       -1.719967   -0.150478   -1.984550
     31          1           0       -0.685954   -2.339355   -1.336692
     32          7           0       -3.227795    1.412898   -0.438476
     33          8           0       -3.025098    1.814640   -1.582221
     34          8           0       -3.896309    1.999638    0.409735
 ---------------------------------------------------------------------

 SCF Done:  E(RHF) =  -669.534880189     A.U. after   15 cycles
 E2 =    -0.2092673116D+01 EUMP2 =    -0.67162755330488D+03

 The electronic state is 1-A.
 Alpha  occ. eigenvalues --  -20.60760 -20.60755 -15.85813 -11.31185 -11.27734
 Alpha  occ. eigenvalues --  -11.27719 -11.27470 -11.26778 -11.26739 -11.22220
 Alpha  occ. eigenvalues --  -11.21914 -11.21811 -11.21756 -11.21617 -11.21095
 Alpha  occ. eigenvalues --   -1.59835  -1.39389  -1.19350  -1.08836  -1.08728
 Alpha  occ. eigenvalues --   -1.04757  -1.03940  -0.96389  -0.95580  -0.87398
 Alpha  occ. eigenvalues --   -0.86154  -0.82415  -0.80027  -0.78592  -0.77451
 Alpha  occ. eigenvalues --   -0.72032  -0.71157  -0.70456  -0.65453  -0.65000
 Alpha  occ. eigenvalues --   -0.64769  -0.62124  -0.61328  -0.59802  -0.57990
 Alpha  occ. eigenvalues --   -0.55661  -0.55248  -0.53186  -0.53049  -0.52839
 Alpha  occ. eigenvalues --   -0.52781  -0.50310  -0.48792  -0.48786  -0.48316
 Alpha  occ. eigenvalues --   -0.47047  -0.46130  -0.46031  -0.44793  -0.44183
 Alpha  occ. eigenvalues --   -0.37291  -0.36306
 Alpha virt. eigenvalues --    0.05039   0.11268   0.16454   0.19845   0.22772
 Alpha virt. eigenvalues --    0.24018   0.25837   0.26345   0.27009   0.27972
 Alpha virt. eigenvalues --    0.29001   0.30258   0.31060   0.31340   0.31893

 Mulliken charges:
               1
     1  C   -0.298596
     2  C   -0.300100
     3  C   -0.476176
     4  H    0.151125
     5  H    0.150658
     6  H    0.152057
     7  H    0.151343
     8  H    0.156081
     9  H    0.157868
    10  H    0.160756
    11  C   -0.298534
    12  C   -0.301929
    13  C   -0.476692
    14  H    0.150347
    15  H    0.149925
    16  H    0.147068
    17  H    0.154842
    18  H    0.158046
    19  H    0.159101
    20  H    0.149706
    21  C   -0.173061
    22  C   -0.219068
    23  C   -0.171525
    24  C    0.159075
    25  C   -0.172882
    26  C   -0.211734
    27  H    0.225873
    28  H    0.223326
    29  H    0.275423
    30  H    0.275063
    31  H    0.225471
    32  N    0.488068
    33  O   -0.460488
    34  O   -0.460435
 Sum of Mulliken charges =  -0.00000

 Dipole moment (field-independent basis, Debye):
    X=              2.2078    Y=             -4.4640    Z=              1.3869  Tot=              5.1696
 Quadrupole moment (field-independent basis, Debye-Ang):
   XX=           -105.8461   YY=            -97.7754   ZZ=            -89.8783
   XY=             12.4552   XZ=             -5.8290   YZ=              0.3884

 Normal termination of Gaussian 16 at Thu May  6 17:03:39 2021.
