 Gaussian 16, Revision A.03,
 Gaussian 16:  EM64L-G16RevA.03 25-Dec-2016

 -------------
 #p 6-31g* mp2
 -------------

 ------------------------------------------------------
 Input file generated by CHIRIPA (05-May-2021 14:53:12)
 ------------------------------------------------------
 Symbolic Z-matrix:
 Charge =  0 Multiplicity = 1

                         Standard orientation:
 ---------------------------------------------------------------------
 Center     Atomic      Atomic             Coordinates (Angstroms)
 Number     Number       Type             X           Y           Z
 ---------------------------------------------------------------------
      1          6           0        4.042829   -0.596129    0.577034
      2          6           0        2.643159   -1.064899    0.178080
      3          6           0        2.073871   -2.110155    1.137844
      4          1           0        4.715514   -1.463771    0.617510
      5          1           0        4.006912   -0.180773    1.593687
      6          1           0        2.681433   -1.477983   -0.838046
      7          1           0        1.973773   -0.196014    0.138363
      8          1           0        2.006797   -1.705207    2.152792
      9          1           0        2.718478   -2.994459    1.170835
     10          1           0        1.072706   -2.431270    0.833847
     11          6           0        4.625384    0.448912   -0.372833
     12          6           0        6.025054    0.917682    0.026121
     13          6           0        6.594342    1.962937   -0.933642
     14          1           0        4.661301    0.033555   -1.389486
     15          1           0        3.952700    1.316554   -0.413309
     16          1           0        6.694440    0.048797    0.065839
     17          1           0        5.986780    1.330765    1.042248
     18          1           0        5.949735    2.847242   -0.966634
     19          1           0        6.661416    1.557989   -1.948590
     20          1           0        7.595507    2.284052   -0.629646
     21          6           0       -4.668871    2.148540    0.509979
     22          6           0       -3.686975    1.661247    1.378856
     23          6           0       -2.969964    0.503556    1.062319
     24          6           0       -3.262000   -0.144647   -0.136781
     25          6           0       -4.234336    0.316035   -1.023135
     26          6           0       -4.938941    1.475565   -0.686135
     27          1           0       -5.221044    3.048576    0.763821
     28          1           0       -3.475111    2.181826    2.308456
     29          1           0       -2.204563    0.104409    1.716735
     30          1           0       -4.423159   -0.224635   -1.942613
     31          1           0       -5.700944    1.851708   -1.362828
     32          7           0       -2.509499   -1.371216   -0.482716
     33          8           0       -2.785672   -1.923936   -1.545197
     34          8           0       -1.657765   -1.756654    0.315170
 ---------------------------------------------------------------------

 SCF Done:  E(RHF) =  -669.536176847     A.U. after   15 cycles
 E2 =    -0.2090736303D+01 EUMP2 =    -0.67162691315093D+03

 The electronic state is 1-A.
 Alpha  occ. eigenvalues --  -20.60934 -20.60929 -15.85972 -11.31287 -11.27849
 Alpha  occ. eigenvalues --  -11.27845 -11.27588 -11.26857 -11.26848 -11.21238
 Alpha  occ. eigenvalues --  -11.20902 -11.20790 -11.20740 -11.20670 -11.19780
 Alpha  occ. eigenvalues --   -1.59996  -1.39552  -1.19455  -1.08861  -1.07832
 Alpha  occ. eigenvalues --   -1.04851  -1.02848  -0.95706  -0.95281  -0.86306
 Alpha  occ. eigenvalues --   -0.86249  -0.82538  -0.78945  -0.77623  -0.77589
 Alpha  occ. eigenvalues --   -0.72202  -0.71310  -0.70564  -0.65112  -0.64854
 Alpha  occ. eigenvalues --   -0.64478  -0.62198  -0.60265  -0.58672  -0.56853
 Alpha  occ. eigenvalues --   -0.55356  -0.54603  -0.53184  -0.52944  -0.51917
 Alpha  occ. eigenvalues --   -0.51708  -0.49272  -0.48952  -0.48937  -0.47231
 Alpha  occ. eigenvalues --   -0.46014  -0.45162  -0.45096  -0.44956  -0.43071
 Alpha  occ. eigenvalues --   -0.37434  -0.36452
 Alpha virt. eigenvalues --    0.04929   0.11202   0.16415   0.21309   0.23396
 Alpha virt. eigenvalues --    0.25003   0.27148   0.27286   0.27975   0.28155
 Alpha virt. eigenvalues --    0.28880   0.30910   0.31982   0.32300   0.32446

 Mulliken charges:
               1
     1  C   -0.297392
     2  C   -0.297014
     3  C   -0.486619
     4  H    0.148778
     5  H    0.146175
     6  H    0.152946
     7  H    0.148056
     8  H    0.146384
     9  H    0.149706
    10  H    0.190312
    11  C   -0.297408
    12  C   -0.299016
    13  C   -0.475260
    14  H    0.149723
    15  H    0.147192
    16  H    0.151842
    17  H    0.150395
    18  H    0.153771
    19  H    0.155206
    20  H    0.158899
    21  C   -0.170593
    22  C   -0.218575
    23  C   -0.170892
    24  C    0.157739
    25  C   -0.170543
    26  C   -0.218602
    27  H    0.225966
    28  H    0.223804
    29  H    0.276079
    30  H    0.275862
    31  H    0.223794
    32  N    0.492742
    33  O   -0.458999
    34  O   -0.464459
 Sum of Mulliken charges =  -0.00000

 Dipole moment (field-independent basis, Debye):
    X=             -2.9418    Y=              4.2454    Z=              1.1623  Tot=              5.2943
 Quadrupole moment (field-independent basis, Debye-Ang):
   XX=            -77.6701   YY=            -96.5967   ZZ=            -91.8676
   XY=            -14.6446   XZ=             -1.1643   YZ=              0.6853

 Normal termination of Gaussian 16 at Wed May  5 23:22:12 2021.
