 Gaussian 16, Revision A.03,
 Gaussian 16:  EM64L-G16RevA.03 25-Dec-2016

 -------------
 #p 6-31g* mp2
 -------------

 ------------------------------------------------------
 Input file generated by CHIRIPA (05-May-2021 14:51:10)
 ------------------------------------------------------
 Symbolic Z-matrix:
 Charge =  0 Multiplicity = 1

                         Standard orientation:
 ---------------------------------------------------------------------
 Center     Atomic      Atomic             Coordinates (Angstroms)
 Number     Number       Type             X           Y           Z
 ---------------------------------------------------------------------
      1          6           0        2.241310    0.106758    1.044324
      2          6           0        1.835622    1.569140    1.230980
      3          6           0        0.914012    1.778152    2.432954
      4          1           0        1.337019   -0.505721    0.925698
      5          1           0        2.741079   -0.247169    1.956662
      6          1           0        1.337999    1.920610    0.318042
      7          1           0        2.740992    2.178235    1.348984
      8          1           0        1.405371    1.454137    3.356091
      9          1           0       -0.005593    1.195049    2.319291
     10          1           0        0.636391    2.830580    2.547770
     11          6           0        3.162643   -0.118219   -0.153282
     12          6           0        3.568331   -1.580601   -0.339939
     13          6           0        4.489941   -1.789613   -1.541913
     14          1           0        2.662874    0.235709   -1.065621
     15          1           0        4.066934    0.494260   -0.034656
     16          1           0        2.662961   -2.189696   -0.457943
     17          1           0        4.065953   -1.932071    0.572999
     18          1           0        5.409545   -1.206509   -1.428249
     19          1           0        3.998581   -1.465598   -2.465049
     20          1           0        4.767562   -2.842041   -1.656729
     21          6           0       -3.102975   -0.642524   -0.494493
     22          6           0       -3.239738   -1.373332    0.841621
     23          6           0       -4.044522   -2.668352    0.727427
     24          1           0       -4.104404   -0.420108   -0.887705
     25          1           0       -2.622639   -1.310829   -1.222533
     26          1           0       -3.718419   -0.703368    1.567312
     27          1           0       -2.237865   -1.593864    1.231790
     28          1           0       -3.566712   -3.358109    0.024196
     29          1           0       -5.055678   -2.462552    0.361624
     30          1           0       -4.129908   -3.174521    1.694050
     31          6           0       -2.300978    0.653985   -0.396548
     32          6           0       -2.164215    1.384792   -1.732662
     33          6           0       -1.359431    2.679813   -1.618468
     34          1           0       -2.781314    1.322290    0.331491
     35          1           0       -1.299549    0.431569   -0.003337
     36          1           0       -3.166088    1.605325   -2.122832
     37          1           0       -1.685533    0.714829   -2.458354
     38          1           0       -0.348275    2.474014   -1.252666
     39          1           0       -1.837241    3.369570   -0.915237
     40          1           0       -1.274045    3.185983   -2.585092
 ---------------------------------------------------------------------

 SCF Done:  E(RHF) =  -470.733174518     A.U. after   11 cycles
 E2 =    -0.1583971566D+01 EUMP2 =    -0.47231714608419D+03

 The electronic state is 1-A.
 Alpha  occ. eigenvalues --  -11.21658 -11.21652 -11.21637 -11.21596 -11.21462
 Alpha  occ. eigenvalues --  -11.21446 -11.21402 -11.21387 -11.21105 -11.21105
 Alpha  occ. eigenvalues --  -11.21098 -11.21023  -1.08503  -1.08446  -1.03594
 Alpha  occ. eigenvalues --   -1.03528  -0.96028  -0.95989  -0.87052  -0.86998
 Alpha  occ. eigenvalues --   -0.79670  -0.79584  -0.78308  -0.78276  -0.65299
 Alpha  occ. eigenvalues --   -0.64937  -0.61128  -0.60807  -0.59404  -0.59346
 Alpha  occ. eigenvalues --   -0.57692  -0.57551  -0.55340  -0.55268  -0.52717
 Alpha  occ. eigenvalues --   -0.52681  -0.52463  -0.52414  -0.50054  -0.49874
 Alpha  occ. eigenvalues --   -0.48085  -0.47844  -0.46806  -0.46498  -0.46045
 Alpha  occ. eigenvalues --   -0.45787  -0.45691  -0.45517  -0.43834  -0.43801
 Alpha virt. eigenvalues --    0.19335   0.23177   0.23709   0.24090   0.25743
 Alpha virt. eigenvalues --    0.25952   0.26794   0.28062   0.28648   0.29539
 Alpha virt. eigenvalues --    0.30526   0.31502   0.31744   0.31853   0.32271

 Mulliken charges:
               1
     1  C   -0.299941
     2  C   -0.307738
     3  C   -0.477697
     4  H    0.149651
     5  H    0.150086
     6  H    0.158942
     7  H    0.152431
     8  H    0.154791
     9  H    0.158180
    10  H    0.160417
    11  C   -0.298226
    12  C   -0.299619
    13  C   -0.475738
    14  H    0.148857
    15  H    0.150112
    16  H    0.151585
    17  H    0.152159
    18  H    0.155347
    19  H    0.155181
    20  H    0.160349
    21  C   -0.298116
    22  C   -0.300112
    23  C   -0.475688
    24  H    0.150089
    25  H    0.149339
    26  H    0.152309
    27  H    0.151485
    28  H    0.155209
    29  H    0.155369
    30  H    0.160555
    31  C   -0.304341
    32  C   -0.299344
    33  C   -0.482405
    34  H    0.150322
    35  H    0.154863
    36  H    0.152392
    37  H    0.151497
    38  H    0.161081
    39  H    0.155747
    40  H    0.160620
 Sum of Mulliken charges =  -0.00000

 Dipole moment (field-independent basis, Debye):
    X=             -0.0179    Y=              0.0097    Z=              0.0020  Tot=              0.0205
 Quadrupole moment (field-independent basis, Debye-Ang):
   XX=            -84.0029   YY=            -85.4849   ZZ=            -85.1054
   XY=             -0.6690   XZ=              0.9149   YZ=              0.0051

 Normal termination of Gaussian 16 at Thu May  6 03:48:42 2021.
