 Gaussian 16, Revision A.03,
 Gaussian 16:  EM64L-G16RevA.03 25-Dec-2016

 -------------
 #p 6-31g* mp2
 -------------

 ------------------------------------------------------
 Input file generated by CHIRIPA (05-May-2021 14:53:15)
 ------------------------------------------------------
 Symbolic Z-matrix:
 Charge =  0 Multiplicity = 1

                         Standard orientation:
 ---------------------------------------------------------------------
 Center     Atomic      Atomic             Coordinates (Angstroms)
 Number     Number       Type             X           Y           Z
 ---------------------------------------------------------------------
      1          6           0        3.953246    0.738309    0.412928
      2          6           0        2.987220    1.508109   -0.488286
      3          6           0        1.926162    2.275207    0.301341
      4          1           0        3.382361    0.038463    1.038428
      5          1           0        4.443477    1.442546    1.099310
      6          1           0        2.499981    0.802823   -1.173695
      7          1           0        3.560490    2.206067   -1.111849
      8          1           0        2.395731    3.000703    0.973472
      9          1           0        1.329196    1.589486    0.911275
     10          1           0        1.246270    2.818295   -0.362483
     11          6           0        5.019819   -0.033611   -0.361855
     12          6           0        5.985846   -0.803410    0.539359
     13          6           0        7.046904   -1.570508   -0.250267
     14          1           0        4.529588   -0.737847   -1.048237
     15          1           0        5.590705    0.666235   -0.987355
     16          1           0        5.412576   -1.501369    1.162923
     17          1           0        6.473085   -0.098124    1.224769
     18          1           0        7.643870   -0.884787   -0.860201
     19          1           0        6.577335   -2.296005   -0.922399
     20          1           0        7.726796   -2.113597    0.413557
     21          6           0       -6.002716    0.076223    0.045691
     22          6           0       -5.143173    1.176022   -0.044593
     23          6           0       -3.757633    0.993127   -0.081678
     24          6           0       -3.263644   -0.309254   -0.026297
     25          6           0       -4.094150   -1.425235    0.063895
     26          6           0       -5.476389   -1.218613    0.099551
     27          1           0       -7.077754    0.227517    0.073944
     28          1           0       -5.549113    2.182747   -0.086581
     29          1           0       -3.069370    1.826708   -0.151361
     30          1           0       -3.659858   -2.416797    0.104076
     31          1           0       -6.141527   -2.074601    0.169690
     32          7           0       -1.798582   -0.515437   -0.064801
     33          8           0       -1.388393   -1.672961   -0.014596
     34          8           0       -1.088196    0.484385   -0.144456
 ---------------------------------------------------------------------

 SCF Done:  E(RHF) =  -669.535925443     A.U. after   15 cycles
 E2 =    -0.2090896791D+01 EUMP2 =    -0.67162682223454D+03

 The electronic state is 1-A.
 Alpha  occ. eigenvalues --  -20.60945 -20.60936 -15.85975 -11.31295 -11.27860
 Alpha  occ. eigenvalues --  -11.27855 -11.27597 -11.26867 -11.26857 -11.20780
 Alpha  occ. eigenvalues --  -11.20394 -11.20384 -11.20203 -11.20143 -11.19394
 Alpha  occ. eigenvalues --   -1.60010  -1.39565  -1.19465  -1.08871  -1.07324
 Alpha  occ. eigenvalues --   -1.04861  -1.02376  -0.95716  -0.94825  -0.86262
 Alpha  occ. eigenvalues --   -0.85854  -0.82544  -0.78488  -0.77597  -0.77110
 Alpha  occ. eigenvalues --   -0.72202  -0.71325  -0.70573  -0.65121  -0.64864
 Alpha  occ. eigenvalues --   -0.63945  -0.62207  -0.59749  -0.58256  -0.56439
 Alpha  occ. eigenvalues --   -0.55367  -0.54099  -0.53193  -0.52951  -0.51536
 Alpha  occ. eigenvalues --   -0.51270  -0.49095  -0.48957  -0.48606  -0.46794
 Alpha  occ. eigenvalues --   -0.45525  -0.44973  -0.44648  -0.44516  -0.42650
 Alpha  occ. eigenvalues --   -0.37444  -0.36462
 Alpha virt. eigenvalues --    0.04918   0.11193   0.16410   0.21318   0.23939
 Alpha virt. eigenvalues --    0.25475   0.27240   0.27737   0.28158   0.28569
 Alpha virt. eigenvalues --    0.29208   0.30911   0.32331   0.32646   0.32780

 Mulliken charges:
               1
     1  C   -0.298527
     2  C   -0.299282
     3  C   -0.473019
     4  H    0.153976
     5  H    0.144581
     6  H    0.159967
     7  H    0.143798
     8  H    0.142337
     9  H    0.172438
    10  H    0.156292
    11  C   -0.297862
    12  C   -0.299048
    13  C   -0.475175
    14  H    0.151169
    15  H    0.146400
    16  H    0.152604
    17  H    0.149668
    18  H    0.153465
    19  H    0.155137
    20  H    0.157725
    21  C   -0.170587
    22  C   -0.218562
    23  C   -0.170825
    24  C    0.157667
    25  C   -0.170633
    26  C   -0.218600
    27  H    0.225999
    28  H    0.223900
    29  H    0.276108
    30  H    0.275757
    31  H    0.223785
    32  N    0.491065
    33  O   -0.460025
    34  O   -0.461691
 Sum of Mulliken charges =  -0.00000

 Dipole moment (field-independent basis, Debye):
    X=             -5.5312    Y=              0.6109    Z=              0.1300  Tot=              5.5664
 Quadrupole moment (field-independent basis, Debye-Ang):
   XX=            -63.2808   YY=            -90.5681   ZZ=            -95.9540
   XY=              0.5626   XZ=             -0.0388   YZ=             -0.6855

 Normal termination of Gaussian 16 at Thu May  6 15:29:40 2021.
