 Gaussian 16, Revision A.03,
 Gaussian 16:  EM64L-G16RevA.03 25-Dec-2016

 -------------
 #p 6-31g* mp2
 -------------

 ------------------------------------------------------
 Input file generated by CHIRIPA (05-May-2021 14:53:15)
 ------------------------------------------------------
 Symbolic Z-matrix:
 Charge =  0 Multiplicity = 1

                         Standard orientation:
 ---------------------------------------------------------------------
 Center     Atomic      Atomic             Coordinates (Angstroms)
 Number     Number       Type             X           Y           Z
 ---------------------------------------------------------------------
      1          6           0        2.885297    1.311362   -0.434613
      2          6           0        2.162933    2.407717    0.349085
      3          6           0        2.046526    3.715534   -0.434407
      4          1           0        3.887991    1.666134   -0.709725
      5          1           0        2.348907    1.129300   -1.376172
      6          1           0        2.699745    2.586688    1.289520
      7          1           0        1.161913    2.050223    0.622529
      8          1           0        1.492101    3.558853   -1.365356
      9          1           0        3.038671    4.098365   -0.694575
     10          1           0        1.526883    4.485430    0.144463
     11          6           0        3.009518   -0.002148    0.335443
     12          6           0        3.731883   -1.098503   -0.448254
     13          6           0        3.848290   -2.406320    0.335238
     14          1           0        3.545909    0.179914    1.277003
     15          1           0        2.006824   -0.356920    0.610556
     16          1           0        4.732903   -0.741009   -0.721698
     17          1           0        3.195071   -1.277473   -1.388689
     18          1           0        2.856144   -2.789151    0.595406
     19          1           0        4.402714   -2.249639    1.266187
     20          1           0        4.367933   -3.176216   -0.243632
     21          6           0       -0.320561   -2.072281    0.008992
     22          6           0       -0.629817   -1.355595    1.169701
     23          6           0       -1.725685   -0.487931    1.197602
     24          6           0       -2.494284   -0.360513    0.041614
     25          6           0       -2.211767   -1.060830   -1.130149
     26          6           0       -1.111129   -1.922874   -1.135211
     27          1           0        0.532589   -2.744120   -0.003811
     28          1           0       -0.017615   -1.469644    2.059782
     29          1           0       -1.987690    0.079021    2.082666
     30          1           0       -2.840619   -0.926248   -2.001843
     31          1           0       -0.873325   -2.478191   -2.038050
     32          7           0       -3.656956    0.555070    0.059062
     33          8           0       -4.318408    0.649685   -0.972521
     34          8           0       -3.884790    1.160751    1.103992
 ---------------------------------------------------------------------

 SCF Done:  E(RHF) =  -669.534638642     A.U. after   15 cycles
 E2 =    -0.2093982529D+01 EUMP2 =    -0.67162862117073D+03

 The electronic state is 1-A.
 Alpha  occ. eigenvalues --  -20.60837 -20.60832 -15.85892 -11.31295 -11.27866
 Alpha  occ. eigenvalues --  -11.27861 -11.27584 -11.26878 -11.26868 -11.22396
 Alpha  occ. eigenvalues --  -11.22159 -11.21912 -11.21855 -11.21752 -11.21194
 Alpha  occ. eigenvalues --   -1.59912  -1.39465  -1.19475  -1.08997  -1.08828
 Alpha  occ. eigenvalues --   -1.04879  -1.04084  -0.96535  -0.95691  -0.87556
 Alpha  occ. eigenvalues --   -0.86277  -0.82518  -0.80162  -0.78742  -0.77554
 Alpha  occ. eigenvalues --   -0.72110  -0.71236  -0.70611  -0.65650  -0.65114
 Alpha  occ. eigenvalues --   -0.64842  -0.62219  -0.61493  -0.59932  -0.58137
 Alpha  occ. eigenvalues --   -0.56011  -0.55230  -0.53291  -0.53186  -0.52974
 Alpha  occ. eigenvalues --   -0.52913  -0.50497  -0.48869  -0.48863  -0.48467
 Alpha  occ. eigenvalues --   -0.47201  -0.46283  -0.46174  -0.44862  -0.44295
 Alpha  occ. eigenvalues --   -0.37380  -0.36446
 Alpha virt. eigenvalues --    0.04944   0.11041   0.16347   0.19486   0.22897
 Alpha virt. eigenvalues --    0.23889   0.25746   0.26408   0.26745   0.28025
 Alpha virt. eigenvalues --    0.28922   0.30184   0.31070   0.31468   0.32074

 Mulliken charges:
               1
     1  C   -0.297195
     2  C   -0.301193
     3  C   -0.476084
     4  H    0.150260
     5  H    0.150342
     6  H    0.151019
     7  H    0.153219
     8  H    0.156684
     9  H    0.154790
    10  H    0.163089
    11  C   -0.306703
    12  C   -0.300615
    13  C   -0.477278
    14  H    0.148826
    15  H    0.153737
    16  H    0.156464
    17  H    0.149729
    18  H    0.141457
    19  H    0.160019
    20  H    0.163826
    21  C   -0.173333
    22  C   -0.221045
    23  C   -0.172244
    24  C    0.158237
    25  C   -0.170546
    26  C   -0.220307
    27  H    0.234393
    28  H    0.225594
    29  H    0.276456
    30  H    0.276038
    31  H    0.224421
    32  N    0.488048
    33  O   -0.460098
    34  O   -0.460007
 Sum of Mulliken charges =  -0.00000

 Dipole moment (field-independent basis, Debye):
    X=              4.0855    Y=             -3.1524    Z=             -0.0909  Tot=              5.1611
 Quadrupole moment (field-independent basis, Debye-Ang):
   XX=           -114.7293   YY=            -93.7105   ZZ=            -90.3068
   XY=              7.3847   XZ=              1.6261   YZ=              1.7652

 Normal termination of Gaussian 16 at Thu May  6 02:41:21 2021.
