 Gaussian 16, Revision A.03,
 Gaussian 16:  EM64L-G16RevA.03 25-Dec-2016

 -------------
 #p 6-31g* mp2
 -------------

 ------------------------------------------------------
 Input file generated by CHIRIPA (05-May-2021 14:51:07)
 ------------------------------------------------------
 Symbolic Z-matrix:
 Charge =  0 Multiplicity = 1

                         Standard orientation:
 ---------------------------------------------------------------------
 Center     Atomic      Atomic             Coordinates (Angstroms)
 Number     Number       Type             X           Y           Z
 ---------------------------------------------------------------------
      1          6           0       -4.085469    0.261214   -0.291674
      2          6           0       -3.537284    1.590701    0.227886
      3          6           0       -2.113779    1.871992   -0.254093
      4          1           0       -3.420735   -0.552588    0.028950
      5          1           0       -4.063935    0.267940   -1.390258
      6          1           0       -3.561136    1.582008    1.325142
      7          1           0       -4.203504    2.401413   -0.093850
      8          1           0       -2.077319    1.907607   -1.347712
      9          1           0       -1.431301    1.083547    0.079342
     10          1           0       -1.741604    2.827264    0.129053
     11          6           0       -5.507627   -0.034092    0.181601
     12          6           0       -6.055812   -1.363579   -0.337958
     13          6           0       -7.479316   -1.644869    0.144020
     14          1           0       -5.529161   -0.040818    1.280185
     15          1           0       -6.172360    0.779711   -0.139022
     16          1           0       -5.389592   -2.174291   -0.016223
     17          1           0       -6.031960   -1.354886   -1.435215
     18          1           0       -8.161794   -0.856424   -0.189415
     19          1           0       -7.515776   -1.680485    1.237640
     20          1           0       -7.851492   -2.600142   -0.239125
     21          6           0        5.473251   -0.070536   -0.296607
     22          6           0        6.554480   -0.927888    0.362088
     23          6           0        7.902590   -0.831285   -0.352799
     24          1           0        5.357173   -0.379385   -1.344502
     25          1           0        5.805703    0.976629   -0.314372
     26          1           0        6.219492   -1.972915    0.379851
     27          1           0        6.667865   -0.617091    1.408590
     28          1           0        8.262527    0.202648   -0.358259
     29          1           0        7.811607   -1.160880   -1.392842
     30          1           0        8.660895   -1.451930    0.134675
     31          6           0        4.119844   -0.156586    0.406680
     32          6           0        3.038616    0.700765   -0.252015
     33          6           0        1.690507    0.604162    0.462871
     34          1           0        3.787392   -1.203751    0.424444
     35          1           0        4.235924    0.152263    1.454575
     36          1           0        2.925231    0.389969   -1.298517
     37          1           0        3.373604    1.745793   -0.269779
     38          1           0        1.781488    0.933758    1.502915
     39          1           0        1.330568   -0.429770    0.468332
     40          1           0        0.932200    1.224808   -0.024603
 ---------------------------------------------------------------------

 SCF Done:  E(RHF) =  -470.733060908     A.U. after   11 cycles
 E2 =    -0.1582238691D+01 EUMP2 =    -0.47231529959935D+03

 The electronic state is 1-A.
 Alpha  occ. eigenvalues --  -11.21589 -11.21586 -11.21568 -11.21559 -11.21384
 Alpha  occ. eigenvalues --  -11.21379 -11.21324 -11.21319 -11.21061 -11.21059
 Alpha  occ. eigenvalues --  -11.21005 -11.20984  -1.08410  -1.08399  -1.03524
 Alpha  occ. eigenvalues --   -1.03481  -0.96008  -0.95903  -0.87066  -0.86886
 Alpha  occ. eigenvalues --   -0.79643  -0.79498  -0.78228  -0.78208  -0.65041
 Alpha  occ. eigenvalues --   -0.65031  -0.60930  -0.60889  -0.59361  -0.59301
 Alpha  occ. eigenvalues --   -0.57636  -0.57499  -0.55277  -0.55218  -0.52886
 Alpha  occ. eigenvalues --   -0.52585  -0.52395  -0.52196  -0.49916  -0.49846
 Alpha  occ. eigenvalues --   -0.47944  -0.47815  -0.46620  -0.46576  -0.45765
 Alpha  occ. eigenvalues --   -0.45758  -0.45691  -0.45679  -0.43813  -0.43649
 Alpha virt. eigenvalues --    0.22725   0.22931   0.23795   0.24592   0.26461
 Alpha virt. eigenvalues --    0.26699   0.26895   0.27486   0.27626   0.28829
 Alpha virt. eigenvalues --    0.30678   0.30909   0.31502   0.31760   0.32161

 Mulliken charges:
               1
     1  C   -0.298452
     2  C   -0.299861
     3  C   -0.480812
     4  H    0.149860
     5  H    0.149368
     6  H    0.152034
     7  H    0.151597
     8  H    0.154518
     9  H    0.161892
    10  H    0.159805
    11  C   -0.298277
    12  C   -0.299626
    13  C   -0.475692
    14  H    0.149545
    15  H    0.149605
    16  H    0.151913
    17  H    0.151865
    18  H    0.155157
    19  H    0.155184
    20  H    0.160191
    21  C   -0.298215
    22  C   -0.299586
    23  C   -0.475680
    24  H    0.149603
    25  H    0.149482
    26  H    0.151858
    27  H    0.151881
    28  H    0.155163
    29  H    0.155157
    30  H    0.160181
    31  C   -0.298465
    32  C   -0.299501
    33  C   -0.481976
    34  H    0.149320
    35  H    0.149486
    36  H    0.151903
    37  H    0.151832
    38  H    0.154680
    39  H    0.153734
    40  H    0.169332
 Sum of Mulliken charges =  -0.00000

 Dipole moment (field-independent basis, Debye):
    X=             -0.0055    Y=              0.0072    Z=             -0.0011  Tot=              0.0091
 Quadrupole moment (field-independent basis, Debye-Ang):
   XX=            -86.9086   YY=            -84.0807   ZZ=            -83.9889
   XY=             -0.2374   XZ=              1.1338   YZ=              0.1683

 Normal termination of Gaussian 16 at Thu May  6 13:11:15 2021.
