 Gaussian 16, Revision A.03,
 Gaussian 16:  EM64L-G16RevA.03 25-Dec-2016

 -------------
 #p 6-31g* mp2
 -------------

 ------------------------------------------------------
 Input file generated by CHIRIPA (05-May-2021 14:53:15)
 ------------------------------------------------------
 Symbolic Z-matrix:
 Charge =  0 Multiplicity = 1

                         Standard orientation:
 ---------------------------------------------------------------------
 Center     Atomic      Atomic             Coordinates (Angstroms)
 Number     Number       Type             X           Y           Z
 ---------------------------------------------------------------------
      1          6           0       -2.024171    1.071435   -0.032599
      2          6           0       -2.308517    2.568773    0.090331
      3          6           0       -1.042033    3.394117    0.319718
      4          1           0       -1.518886    0.724574    0.879168
      5          1           0       -1.322111    0.905462   -0.861430
      6          1           0       -3.010907    2.731739    0.917800
      7          1           0       -2.813355    2.912070   -0.821756
      8          1           0       -0.339986    3.261032   -0.509752
      9          1           0       -0.538660    3.079677    1.239687
     10          1           0       -1.268371    4.461551    0.404669
     11          6           0       -3.280427    0.233076   -0.262174
     12          6           0       -2.996081   -1.264261   -0.385104
     13          6           0       -4.262565   -2.089606   -0.614491
     14          1           0       -3.982487    0.399049    0.566657
     15          1           0       -3.785712    0.579937   -1.173941
     16          1           0       -2.491242   -1.607559    0.526982
     17          1           0       -2.293691   -1.427228   -1.212573
     18          1           0       -4.765937   -1.775166   -1.534461
     19          1           0       -4.964611   -1.956521    0.214979
     20          1           0       -4.036227   -3.157040   -0.699442
     21          6           0        3.182486    1.660910   -0.534457
     22          6           0        2.172759    1.653447    0.433488
     23          6           0        1.550562    0.456707    0.801229
     24          6           0        1.964762   -0.719409    0.177947
     25          6           0        2.967799   -0.744507   -0.789822
     26          6           0        3.576089    0.464019   -1.141951
     27          1           0        3.660421    2.595144   -0.814062
     28          1           0        1.865042    2.581453    0.906943
     29          1           0        0.766237    0.422223    1.547596
     30          1           0        3.253063   -1.685549   -1.244225
     31          1           0        4.359980    0.466806   -1.893983
     32          7           0        1.313431   -1.992583    0.558994
     33          8           0        1.696476   -3.015268   -0.004945
     34          8           0        0.432205   -1.943704    1.414382
 ---------------------------------------------------------------------

 SCF Done:  E(RHF) =  -669.534251356     A.U. after   15 cycles
 E2 =    -0.2094894369D+01 EUMP2 =    -0.67162914572544D+03

 The electronic state is 1-A.
 Alpha  occ. eigenvalues --  -20.60838 -20.60824 -15.85859 -11.31153 -11.27718
 Alpha  occ. eigenvalues --  -11.27685 -11.27441 -11.26724 -11.26637 -11.21885
 Alpha  occ. eigenvalues --  -11.21741 -11.21390 -11.21086 -11.20853 -11.20452
 Alpha  occ. eigenvalues --   -1.59887  -1.39445  -1.19323  -1.08730  -1.08326
 Alpha  occ. eigenvalues --   -1.04722  -1.03410  -0.95938  -0.95578  -0.86997
 Alpha  occ. eigenvalues --   -0.86094  -0.82424  -0.79567  -0.78101  -0.77389
 Alpha  occ. eigenvalues --   -0.72086  -0.71191  -0.70444  -0.65004  -0.64977
 Alpha  occ. eigenvalues --   -0.64709  -0.62105  -0.60799  -0.59347  -0.57495
 Alpha  occ. eigenvalues --   -0.55278  -0.55212  -0.53093  -0.53035  -0.52579
 Alpha  occ. eigenvalues --   -0.52128  -0.49915  -0.48856  -0.48846  -0.47790
 Alpha  occ. eigenvalues --   -0.46560  -0.45705  -0.45464  -0.44654  -0.43647
 Alpha  occ. eigenvalues --   -0.37299  -0.36230
 Alpha virt. eigenvalues --    0.05020   0.11266   0.16449   0.20387   0.23060
 Alpha virt. eigenvalues --    0.24332   0.25474   0.26527   0.27197   0.28459
 Alpha virt. eigenvalues --    0.29729   0.30783   0.31217   0.31852   0.32232

 Mulliken charges:
               1
     1  C   -0.302856
     2  C   -0.298850
     3  C   -0.478806
     4  H    0.150835
     5  H    0.149970
     6  H    0.153808
     7  H    0.153823
     8  H    0.156744
     9  H    0.143644
    10  H    0.161831
    11  C   -0.297749
    12  C   -0.305990
    13  C   -0.476058
    14  H    0.148852
    15  H    0.147218
    16  H    0.172745
    17  H    0.148978
    18  H    0.150993
    19  H    0.153469
    20  H    0.164015
    21  C   -0.173021
    22  C   -0.218940
    23  C   -0.167155
    24  C    0.156561
    25  C   -0.171482
    26  C   -0.218672
    27  H    0.225555
    28  H    0.228431
    29  H    0.276288
    30  H    0.275148
    31  H    0.223042
    32  N    0.489205
    33  O   -0.459682
    34  O   -0.461893
 Sum of Mulliken charges =  -0.00000

 Dipole moment (field-independent basis, Debye):
    X=              2.2768    Y=              4.3602    Z=             -1.3177  Tot=              5.0922
 Quadrupole moment (field-independent basis, Debye-Ang):
   XX=            -85.4250   YY=           -101.0867   ZZ=            -92.7486
   XY=              5.2111   XZ=             -4.9183   YZ=              3.1756

 Normal termination of Gaussian 16 at Thu May  6 05:52:03 2021.
