 Gaussian 16, Revision A.03,
 Gaussian 16:  EM64L-G16RevA.03 25-Dec-2016

 -------------
 #p 6-31g* mp2
 -------------

 ------------------------------------------------------
 Input file generated by CHIRIPA (05-May-2021 14:53:17)
 ------------------------------------------------------
 Symbolic Z-matrix:
 Charge =  0 Multiplicity = 1

                         Standard orientation:
 ---------------------------------------------------------------------
 Center     Atomic      Atomic             Coordinates (Angstroms)
 Number     Number       Type             X           Y           Z
 ---------------------------------------------------------------------
      1          6           0        4.293261   -0.492493   -0.519062
      2          6           0        4.785060   -1.545196    0.474887
      3          6           0        5.498030   -2.713801   -0.206165
      4          1           0        3.614669   -0.967527   -1.240727
      5          1           0        5.148834   -0.115149   -1.096125
      6          1           0        3.929017   -1.919444    1.050860
      7          1           0        5.462411   -1.067561    1.194385
      8          1           0        6.369526   -2.359712   -0.766269
      9          1           0        4.827420   -3.216435   -0.910610
     10          1           0        5.841290   -3.454490    0.522814
     11          6           0        3.578426    0.682054    0.146654
     12          6           0        3.086627    1.734756   -0.847296
     13          6           0        2.373658    2.903361   -0.166243
     14          1           0        2.722853    0.304709    0.723717
     15          1           0        4.257019    1.157088    0.868319
     16          1           0        2.409276    1.257122   -1.566794
     17          1           0        3.942670    2.109004   -1.423268
     18          1           0        3.044268    3.405995    0.538202
     19          1           0        1.502161    2.549272    0.393861
     20          1           0        2.030397    3.644050   -0.895223
     21          6           0       -1.456083    1.716766    0.879239
     22          6           0       -1.350541    0.422314    1.398638
     23          6           0       -2.241995   -0.577853    0.999232
     24          6           0       -3.231377   -0.247177    0.074534
     25          6           0       -3.362304    1.033177   -0.461044
     26          6           0       -2.459858    2.017536   -0.047311
     27          1           0       -0.759310    2.487579    1.195073
     28          1           0       -0.571986    0.185864    2.118351
     29          1           0       -2.183030   -1.588218    1.385373
     30          1           0       -4.148838    1.238659   -1.176977
     31          1           0       -2.544206    3.021961   -0.452355
     32          7           0       -4.180938   -1.297640   -0.355883
     33          8           0       -5.043778   -0.980797   -1.171822
     34          8           0       -4.044385   -2.417946    0.130845
 ---------------------------------------------------------------------

 SCF Done:  E(RHF) =  -669.535447558     A.U. after   15 cycles
 E2 =    -0.2091308282D+01 EUMP2 =    -0.67162675583980D+03

 The electronic state is 1-A.
 Alpha  occ. eigenvalues --  -20.60786 -20.60781 -15.85840 -11.31215 -11.27787
 Alpha  occ. eigenvalues --  -11.27779 -11.27504 -11.26807 -11.26786 -11.22301
 Alpha  occ. eigenvalues --  -11.22052 -11.22031 -11.22029 -11.21856 -11.21386
 Alpha  occ. eigenvalues --   -1.59861  -1.39414  -1.19388  -1.09013  -1.08780
 Alpha  occ. eigenvalues --   -1.04791  -1.04122  -0.96593  -0.95613  -0.87612
 Alpha  occ. eigenvalues --   -0.86187  -0.82447  -0.80195  -0.78809  -0.77491
 Alpha  occ. eigenvalues --   -0.72057  -0.71185  -0.70516  -0.65642  -0.65038
 Alpha  occ. eigenvalues --   -0.64791  -0.62137  -0.61521  -0.59963  -0.58196
 Alpha  occ. eigenvalues --   -0.56022  -0.55195  -0.53279  -0.53138  -0.52979
 Alpha  occ. eigenvalues --   -0.52879  -0.50515  -0.48817  -0.48812  -0.48505
 Alpha  occ. eigenvalues --   -0.47212  -0.46357  -0.46262  -0.44818  -0.44371
 Alpha  occ. eigenvalues --   -0.37349  -0.36396
 Alpha virt. eigenvalues --    0.05011   0.11216   0.16404   0.20142   0.22572
 Alpha virt. eigenvalues --    0.23938   0.25583   0.26157   0.26671   0.27910
 Alpha virt. eigenvalues --    0.28769   0.30309   0.31071   0.31421   0.31828

 Mulliken charges:
               1
     1  C   -0.299104
     2  C   -0.299694
     3  C   -0.476161
     4  H    0.151989
     5  H    0.151110
     6  H    0.150457
     7  H    0.152023
     8  H    0.155959
     9  H    0.156811
    10  H    0.161417
    11  C   -0.297557
    12  C   -0.299551
    13  C   -0.478641
    14  H    0.144154
    15  H    0.150167
    16  H    0.155564
    17  H    0.155018
    18  H    0.157354
    19  H    0.145661
    20  H    0.161586
    21  C   -0.171059
    22  C   -0.220515
    23  C   -0.170936
    24  C    0.158646
    25  C   -0.170986
    26  C   -0.219489
    27  H    0.229278
    28  H    0.223808
    29  H    0.275635
    30  H    0.275716
    31  H    0.224007
    32  N    0.488057
    33  O   -0.460299
    34  O   -0.460423
 Sum of Mulliken charges =  -0.00000

 Dipole moment (field-independent basis, Debye):
    X=              3.4609    Y=              3.6732    Z=              1.4354  Tot=              5.2469
 Quadrupole moment (field-independent basis, Debye-Ang):
   XX=           -114.8808   YY=            -95.3286   ZZ=            -93.3864
   XY=            -13.7907   XZ=             -3.0305   YZ=             -2.7255

 Normal termination of Gaussian 16 at Thu May  6 09:08:28 2021.
