 Gaussian 16, Revision A.03,
 Gaussian 16:  EM64L-G16RevA.03 25-Dec-2016

 -------------
 #p 6-31g* mp2
 -------------

 ------------------------------------------------------
 Input file generated by CHIRIPA (05-May-2021 14:57:23)
 ------------------------------------------------------
 Symbolic Z-matrix:
 Charge =  0 Multiplicity = 1

                         Standard orientation:
 ---------------------------------------------------------------------
 Center     Atomic      Atomic             Coordinates (Angstroms)
 Number     Number       Type             X           Y           Z
 ---------------------------------------------------------------------
      1          6           0        1.881762    2.735309   -0.334177
      2          6           0        2.207578    1.830892   -1.350245
      3          6           0        2.543542    0.508979   -1.043287
      4          6           0        2.543614    0.123685    0.296429
      5          6           0        2.223643    1.001258    1.331211
      6          6           0        1.890818    2.318340    1.000955
      7          1           0        1.621996    3.760326   -0.581679
      8          1           0        2.201373    2.151927   -2.388004
      9          1           0        2.799879   -0.211943   -1.810085
     10          1           0        2.238552    0.651859    2.356451
     11          1           0        1.638215    3.018547    1.792123
     12          7           0        2.897622   -1.273208    0.633724
     13          8           0        2.890320   -1.587852    1.821825
     14          8           0        3.175692   -2.026998   -0.296391
     15          6           0       -4.288469    0.979177    0.915566
     16          6           0       -4.110424   -0.373259    1.224983
     17          6           0       -3.114491   -1.121639    0.590481
     18          6           0       -2.310942   -0.482788   -0.352635
     19          6           0       -2.463639    0.863005   -0.682506
     20          6           0       -3.465957    1.591913   -0.035513
     21          1           0       -5.064614    1.552974    1.413314
     22          1           0       -4.747723   -0.851740    1.963190
     23          1           0       -2.954866   -2.170124    0.810970
     24          1           0       -1.812813    1.312334   -1.422741
     25          1           0       -3.601945    2.642077   -0.277807
     26          7           0       -1.253212   -1.264758   -1.030965
     27          8           0       -0.558399   -0.678588   -1.858176
     28          8           0       -1.139005   -2.449027   -0.722585
 ---------------------------------------------------------------------

 SCF Done:  E(RHF) =  -868.337249584     A.U. after   16 cycles
 E2 =    -0.2601432720D+01 EUMP2 =    -0.87093868230374D+03

 The electronic state is 1-A.
 Alpha  occ. eigenvalues --  -20.60863 -20.60827 -20.59909 -20.59839 -15.85883
 Alpha  occ. eigenvalues --  -15.84937 -11.31305 -11.30402 -11.27923 -11.27850
 Alpha  occ. eigenvalues --  -11.27653 -11.27119 -11.26950 -11.26948 -11.26925
 Alpha  occ. eigenvalues --  -11.26884 -11.26180 -11.26041  -1.59910  -1.58944
 Alpha  occ. eigenvalues --   -1.39463  -1.38495  -1.19488  -1.18641  -1.08876
 Alpha  occ. eigenvalues --   -1.08040  -1.04903  -1.04055  -0.95701  -0.94840
 Alpha  occ. eigenvalues --   -0.86298  -0.85467  -0.82538  -0.81666  -0.77573
 Alpha  occ. eigenvalues --   -0.76664  -0.72117  -0.71258  -0.71165  -0.70601
 Alpha  occ. eigenvalues --   -0.70245  -0.69800  -0.65146  -0.64912  -0.64306
 Alpha  occ. eigenvalues --   -0.64093  -0.62251  -0.61399  -0.55408  -0.54645
 Alpha  occ. eigenvalues --   -0.53228  -0.53002  -0.52396  -0.52171  -0.48886
 Alpha  occ. eigenvalues --   -0.48838  -0.47939  -0.47895  -0.44855  -0.43869
 Alpha  occ. eigenvalues --   -0.37487  -0.36715  -0.36487  -0.35572
 Alpha virt. eigenvalues --    0.04921   0.05910   0.11146   0.12011   0.16426
 Alpha virt. eigenvalues --    0.17317   0.21237   0.21975   0.27129   0.27852
 Alpha virt. eigenvalues --    0.28204   0.28884   0.30764   0.31470   0.32358

 Mulliken charges:
               1
     1  C   -0.175741
     2  C   -0.218717
     3  C   -0.149325
     4  C    0.152952
     5  C   -0.173256
     6  C   -0.220406
     7  H    0.219414
     8  H    0.222067
     9  H    0.281786
    10  H    0.272630
    11  H    0.217954
    12  N    0.489187
    13  O   -0.466315
    14  O   -0.452791
    15  C   -0.171071
    16  C   -0.218761
    17  C   -0.170079
    18  C    0.158448
    19  C   -0.169345
    20  C   -0.219383
    21  H    0.225256
    22  H    0.224578
    23  H    0.278653
    24  H    0.272134
    25  H    0.220686
    26  N    0.487221
    27  O   -0.465538
    28  O   -0.452240
 Sum of Mulliken charges =  -0.00000

 Dipole moment (field-independent basis, Debye):
    X=             -4.9911    Y=              7.2835    Z=              1.0031  Tot=              8.8864
 Quadrupole moment (field-independent basis, Debye-Ang):
   XX=            -94.8777   YY=           -104.0277   ZZ=           -101.9045
   XY=              8.6215   XZ=            -10.0549   YZ=             -2.1304

 Normal termination of Gaussian 16 at Fri May  7 09:29:33 2021.
