 Gaussian 16, Revision A.03,
 Gaussian 16:  EM64L-G16RevA.03 25-Dec-2016

 -------------
 #p 6-31g* mp2
 -------------

 ------------------------------------------------------
 Input file generated by CHIRIPA (05-May-2021 14:57:27)
 ------------------------------------------------------
 Symbolic Z-matrix:
 Charge =  0 Multiplicity = 1

                         Standard orientation:
 ---------------------------------------------------------------------
 Center     Atomic      Atomic             Coordinates (Angstroms)
 Number     Number       Type             X           Y           Z
 ---------------------------------------------------------------------
      1          6           0       -6.079864    1.543876   -0.159530
      2          6           0       -4.759527    1.968894   -0.340063
      3          6           0       -3.708288    1.047412   -0.322274
      4          6           0       -4.014842   -0.297444   -0.120587
      5          6           0       -5.319950   -0.751918    0.062268
      6          6           0       -6.355376    0.187219    0.040707
      7          1           0       -6.890349    2.266563   -0.174814
      8          1           0       -4.542596    3.021861   -0.495771
      9          1           0       -2.676972    1.349076   -0.459402
     10          1           0       -5.504958   -1.808210    0.215356
     11          1           0       -7.379807   -0.145724    0.181187
     12          7           0       -2.910313   -1.282320   -0.099758
     13          8           0       -3.206762   -2.461532    0.079727
     14          8           0       -1.769049   -0.856406   -0.263311
     15          6           0        1.800680    0.251324    0.905452
     16          6           0        2.552579    1.423743    0.776605
     17          6           0        3.881142    1.371295    0.344497
     18          6           0        4.428538    0.123890    0.048474
     19          6           0        3.705216   -1.061893    0.166848
     20          6           0        2.378380   -0.985572    0.600699
     21          1           0        0.769291    0.301339    1.241800
     22          1           0        2.106537    2.385724    1.012576
     23          1           0        4.486017    2.263348    0.235926
     24          1           0        4.177317   -2.006172   -0.075795
     25          1           0        1.796831   -1.897722    0.699839
     26          7           0        5.834114    0.055729   -0.409902
     27          8           0        6.293183   -1.055623   -0.664437
     28          8           0        6.450122    1.114948   -0.505962
 ---------------------------------------------------------------------

 SCF Done:  E(RHF) =  -868.339749924     A.U. after   16 cycles
 E2 =    -0.2598329459D+01 EUMP2 =    -0.87093807938290D+03

 The electronic state is 1-A.
 Alpha  occ. eigenvalues --  -20.61831 -20.61766 -20.60132 -20.60121 -15.86833
 Alpha  occ. eigenvalues --  -15.85178 -11.31977 -11.30369 -11.28546 -11.28491
 Alpha  occ. eigenvalues --  -11.28198 -11.27485 -11.27453 -11.26978 -11.26873
 Alpha  occ. eigenvalues --  -11.26497 -11.25942 -11.25728  -1.60864  -1.59210
 Alpha  occ. eigenvalues --   -1.40426  -1.38768  -1.20124  -1.18512  -1.09556
 Alpha  occ. eigenvalues --   -1.07909  -1.05494  -1.03894  -0.96431  -0.94779
 Alpha  occ. eigenvalues --   -0.86901  -0.85279  -0.83273  -0.81627  -0.78350
 Alpha  occ. eigenvalues --   -0.76723  -0.73069  -0.72170  -0.71399  -0.71226
 Alpha  occ. eigenvalues --   -0.70532  -0.69540  -0.65779  -0.65490  -0.64150
 Alpha  occ. eigenvalues --   -0.63872  -0.62848  -0.61249  -0.55990  -0.54296
 Alpha  occ. eigenvalues --   -0.53832  -0.53582  -0.52229  -0.51967  -0.49832
 Alpha  occ. eigenvalues --   -0.49791  -0.48165  -0.48139  -0.45876  -0.44214
 Alpha  occ. eigenvalues --   -0.38082  -0.37088  -0.36436  -0.35510
 Alpha virt. eigenvalues --    0.04150   0.05811   0.10570   0.12158   0.15675
 Alpha virt. eigenvalues --    0.17363   0.20663   0.22381   0.26579   0.27380
 Alpha virt. eigenvalues --    0.28220   0.29164   0.30484   0.31471   0.32782

 Mulliken charges:
               1
     1  C   -0.169878
     2  C   -0.218203
     3  C   -0.171254
     4  C    0.158080
     5  C   -0.170351
     6  C   -0.218319
     7  H    0.228257
     8  H    0.224983
     9  H    0.272201
    10  H    0.276998
    11  H    0.226036
    12  N    0.490290
    13  O   -0.456067
    14  O   -0.470921
    15  C   -0.169431
    16  C   -0.220602
    17  C   -0.172222
    18  C    0.157405
    19  C   -0.172570
    20  C   -0.218218
    21  H    0.234818
    22  H    0.217049
    23  H    0.271781
    24  H    0.274044
    25  H    0.233186
    26  N    0.488250
    27  O   -0.461734
    28  O   -0.463607
 Sum of Mulliken charges =  -0.00000

 Dipole moment (field-independent basis, Debye):
    X=             -9.4179    Y=              3.5601    Z=              1.5559  Tot=             10.1878
 Quadrupole moment (field-independent basis, Debye-Ang):
   XX=           -116.1629   YY=            -99.3099   ZZ=           -106.2550
   XY=             -9.8041   XZ=              7.1615   YZ=             -0.5665

 Normal termination of Gaussian 16 at Thu May  6 00:28:21 2021.
