 Gaussian 16, Revision A.03,
 Gaussian 16:  EM64L-G16RevA.03 25-Dec-2016

 -------------
 #p 6-31g* mp2
 -------------

 ------------------------------------------------------
 Input file generated by CHIRIPA (05-May-2021 14:57:23)
 ------------------------------------------------------
 Symbolic Z-matrix:
 Charge =  0 Multiplicity = 1

                         Standard orientation:
 ---------------------------------------------------------------------
 Center     Atomic      Atomic             Coordinates (Angstroms)
 Number     Number       Type             X           Y           Z
 ---------------------------------------------------------------------
      1          6           0       -3.340110    2.574770   -0.163358
      2          6           0       -4.657522    2.109323   -0.097732
      3          6           0       -4.924578    0.737729   -0.053474
      4          6           0       -3.845352   -0.144328   -0.076616
      5          6           0       -2.521813    0.288451   -0.141702
      6          6           0       -2.278332    1.664454   -0.185095
      7          1           0       -3.141811    3.641969   -0.197402
      8          1           0       -5.484087    2.813983   -0.080714
      9          1           0       -5.934795    0.350080   -0.002407
     10          1           0       -1.718659   -0.438268   -0.157220
     11          1           0       -1.254199    2.023063   -0.236032
     12          7           0       -4.115593   -1.598707   -0.030220
     13          8           0       -3.147227   -2.355302   -0.051829
     14          8           0       -5.290658   -1.954515    0.026876
     15          6           0        6.256211    0.281376   -0.357329
     16          6           0        5.431408    1.360558   -0.023283
     17          6           0        4.069486    1.163537    0.223492
     18          6           0        3.563434   -0.131793    0.126954
     19          6           0        4.359492   -1.227334   -0.203763
     20          6           0        5.718569   -1.006854   -0.446346
     21          1           0        7.313081    0.443538   -0.547401
     22          1           0        5.846209    2.362110    0.046575
     23          1           0        3.408261    1.981070    0.483955
     24          1           0        3.917136   -2.214195   -0.265751
     25          1           0        6.356744   -1.846841   -0.705576
     26          7           0        2.123133   -0.352788    0.385985
     27          8           0        1.701670   -1.503714    0.294476
     28          8           0        1.442963    0.629108    0.675618
 ---------------------------------------------------------------------

 SCF Done:  E(RHF) =  -868.340226199     A.U. after   16 cycles
 E2 =    -0.2598917636D+01 EUMP2 =    -0.87093914383475D+03

 The electronic state is 1-A.
 Alpha  occ. eigenvalues --  -20.61596 -20.61513 -20.59646 -20.59608 -15.86555
 Alpha  occ. eigenvalues --  -15.84674 -11.31690 -11.29923 -11.28259 -11.28194
 Alpha  occ. eigenvalues --  -11.27927 -11.27205 -11.27164 -11.26589 -11.26295
 Alpha  occ. eigenvalues --  -11.26285 -11.25625 -11.25331  -1.60600  -1.58712
 Alpha  occ. eigenvalues --   -1.40159  -1.38263  -1.19838  -1.18103  -1.09277
 Alpha  occ. eigenvalues --   -1.07547  -1.05205  -1.03453  -0.96150  -0.94386
 Alpha  occ. eigenvalues --   -0.86614  -0.84880  -0.82991  -0.81190  -0.78066
 Alpha  occ. eigenvalues --   -0.76232  -0.72776  -0.71894  -0.70944  -0.70897
 Alpha  occ. eigenvalues --   -0.70036  -0.69237  -0.65494  -0.65205  -0.63747
 Alpha  occ. eigenvalues --   -0.63448  -0.62554  -0.60764  -0.55714  -0.54045
 Alpha  occ. eigenvalues --   -0.53546  -0.53293  -0.51849  -0.51519  -0.49562
 Alpha  occ. eigenvalues --   -0.49510  -0.47666  -0.47638  -0.45608  -0.43693
 Alpha  occ. eigenvalues --   -0.37803  -0.36796  -0.36149  -0.35060
 Alpha virt. eigenvalues --    0.04437   0.06248   0.10862   0.12569   0.15964
 Alpha virt. eigenvalues --    0.17742   0.21003   0.22730   0.26947   0.27778
 Alpha virt. eigenvalues --    0.28786   0.29564   0.30666   0.31909   0.32351

 Mulliken charges:
               1
     1  C   -0.172377
     2  C   -0.219477
     3  C   -0.172987
     4  C    0.156748
     5  C   -0.174160
     6  C   -0.222723
     7  H    0.220085
     8  H    0.217977
     9  H    0.271312
    10  H    0.291376
    11  H    0.235222
    12  N    0.487437
    13  O   -0.456375
    14  O   -0.466516
    15  C   -0.169876
    16  C   -0.218485
    17  C   -0.170713
    18  C    0.157977
    19  C   -0.169949
    20  C   -0.218563
    21  H    0.227436
    22  H    0.224209
    23  H    0.272921
    24  H    0.278676
    25  H    0.225920
    26  N    0.490401
    27  O   -0.452242
    28  O   -0.473255
 Sum of Mulliken charges =  -0.00000

 Dipole moment (field-independent basis, Debye):
    X=              6.7007    Y=              5.6794    Z=             -1.0780  Tot=              8.8497
 Quadrupole moment (field-independent basis, Debye-Ang):
   XX=            -72.6801   YY=           -102.4213   ZZ=           -106.6697
   XY=            -19.4296   XZ=             -2.6435   YZ=              0.8975

 Normal termination of Gaussian 16 at Wed May  5 16:19:35 2021.
