 Gaussian 16, Revision A.03,
 Gaussian 16:  EM64L-G16RevA.03 25-Dec-2016

 -------------
 #p 6-31g* mp2
 -------------

 ------------------------------------------------------
 Input file generated by CHIRIPA (05-May-2021 14:57:27)
 ------------------------------------------------------
 Symbolic Z-matrix:
 Charge =  0 Multiplicity = 1

                         Standard orientation:
 ---------------------------------------------------------------------
 Center     Atomic      Atomic             Coordinates (Angstroms)
 Number     Number       Type             X           Y           Z
 ---------------------------------------------------------------------
      1          6           0        3.093795    2.430536   -1.003864
      2          6           0        1.847908    1.864996   -0.713258
      3          6           0        1.760860    0.579370   -0.170916
      4          6           0        2.945203   -0.115590    0.069194
      5          6           0        4.201399    0.420645   -0.209580
      6          6           0        4.264500    1.707830   -0.751543
      7          1           0        3.152114    3.429846   -1.425021
      8          1           0        0.937063    2.423939   -0.908171
      9          1           0        0.809472    0.117525    0.063560
     10          1           0        5.091889   -0.160989   -0.004284
     11          1           0        5.233449    2.144517   -0.976236
     12          7           0        2.865725   -1.477450    0.643146
     13          8           0        3.923894   -2.069066    0.845398
     14          8           0        1.746766   -1.927473    0.879889
     15          6           0       -3.491422    2.074452    1.172071
     16          6           0       -4.249514    1.657675    0.072928
     17          6           0       -3.963098    0.449806   -0.570163
     18          6           0       -2.906762   -0.319936   -0.085455
     19          6           0       -2.133142    0.068144    1.007338
     20          6           0       -2.437513    1.279757    1.634951
     21          1           0       -3.720891    3.014207    1.665628
     22          1           0       -5.068576    2.272807   -0.288726
     23          1           0       -4.533828    0.103180   -1.423120
     24          1           0       -1.322801   -0.566523    1.344922
     25          1           0       -1.847074    1.600919    2.488346
     26          7           0       -2.594042   -1.600635   -0.758075
     27          8           0       -1.658224   -2.260649   -0.311687
     28          8           0       -3.290671   -1.920181   -1.718926
 ---------------------------------------------------------------------

 SCF Done:  E(RHF) =  -868.336637328     A.U. after   16 cycles
 E2 =    -0.2601696399D+01 EUMP2 =    -0.87093833372707D+03

 The electronic state is 1-A.
 Alpha  occ. eigenvalues --  -20.60709 -20.60639 -20.60535 -20.60484 -15.85721
 Alpha  occ. eigenvalues --  -15.85556 -11.31408 -11.31087 -11.27979 -11.27931
 Alpha  occ. eigenvalues --  -11.27765 -11.27673 -11.27668 -11.27457 -11.27069
 Alpha  occ. eigenvalues --  -11.27058 -11.26739 -11.26721  -1.59756  -1.59580
 Alpha  occ. eigenvalues --   -1.39291  -1.39126  -1.19599  -1.19277  -1.08932
 Alpha  occ. eigenvalues --   -1.08644  -1.05034  -1.04704  -0.95712  -0.95446
 Alpha  occ. eigenvalues --   -0.86411  -0.86093  -0.82522  -0.82267  -0.77571
 Alpha  occ. eigenvalues --   -0.77249  -0.71947  -0.71725  -0.71106  -0.70907
 Alpha  occ. eigenvalues --   -0.70693  -0.70365  -0.65220  -0.65035  -0.64923
 Alpha  occ. eigenvalues --   -0.64695  -0.62421  -0.61971  -0.55505  -0.55207
 Alpha  occ. eigenvalues --   -0.53378  -0.53123  -0.53026  -0.52745  -0.48728
 Alpha  occ. eigenvalues --   -0.48701  -0.48545  -0.48477  -0.44637  -0.44470
 Alpha  occ. eigenvalues --   -0.37599  -0.37270  -0.36672  -0.36310
 Alpha virt. eigenvalues --    0.04938   0.05232   0.10845   0.11324   0.16426
 Alpha virt. eigenvalues --    0.16697   0.20777   0.21758   0.26193   0.27514
 Alpha virt. eigenvalues --    0.27738   0.28955   0.30218   0.31237   0.31778

 Mulliken charges:
               1
     1  C   -0.171038
     2  C   -0.221727
     3  C   -0.175058
     4  C    0.158261
     5  C   -0.170223
     6  C   -0.218756
     7  H    0.224361
     8  H    0.222333
     9  H    0.279028
    10  H    0.275999
    11  H    0.223102
    12  N    0.487546
    13  O   -0.461257
    14  O   -0.455456
    15  C   -0.172889
    16  C   -0.218313
    17  C   -0.171813
    18  C    0.158448
    19  C   -0.188709
    20  C   -0.221288
    21  H    0.225604
    22  H    0.223991
    23  H    0.276709
    24  H    0.289978
    25  H    0.225579
    26  N    0.486037
    27  O   -0.448457
    28  O   -0.461991
 Sum of Mulliken charges =  -0.00000

 Dipole moment (field-independent basis, Debye):
    X=             -0.8619    Y=              9.0738    Z=              0.3717  Tot=              9.1222
 Quadrupole moment (field-independent basis, Debye-Ang):
   XX=            -89.2807   YY=           -109.8031   ZZ=           -104.7268
   XY=              0.2562   XZ=            -10.3093   YZ=             -1.2258

 Normal termination of Gaussian 16 at Fri May  7 02:04:33 2021.
