 Gaussian 16, Revision A.03,
 Gaussian 16:  EM64L-G16RevA.03 25-Dec-2016

 -------------
 #p 6-31g* mp2
 -------------

 ------------------------------------------------------
 Input file generated by CHIRIPA (05-May-2021 14:57:23)
 ------------------------------------------------------
 Symbolic Z-matrix:
 Charge =  0 Multiplicity = 1

                         Standard orientation:
 ---------------------------------------------------------------------
 Center     Atomic      Atomic             Coordinates (Angstroms)
 Number     Number       Type             X           Y           Z
 ---------------------------------------------------------------------
      1          6           0       -0.900900    0.044463   -0.974434
      2          6           0       -1.276901   -1.048804   -0.187089
      3          6           0       -2.586724   -1.164769    0.287742
      4          6           0       -3.498890   -0.164657   -0.045454
      5          6           0       -3.154782    0.936576   -0.827864
      6          6           0       -1.839386    1.031923   -1.291749
      7          1           0        0.118767    0.126540   -1.339042
      8          1           0       -0.550176   -1.817183    0.060919
      9          1           0       -2.904734   -2.000565    0.899079
     10          1           0       -3.901507    1.686668   -1.058477
     11          1           0       -1.550200    1.882077   -1.903022
     12          7           0       -4.888491   -0.276511    0.451434
     13          8           0       -5.673293    0.617985    0.143862
     14          8           0       -5.166546   -1.256559    1.139059
     15          6           0        2.505674    2.492601    0.653122
     16          6           0        2.401673    1.998295   -0.651242
     17          6           0        2.821969    0.699754   -0.954046
     18          6           0        3.343746   -0.080617    0.076517
     19          6           0        3.460269    0.383308    1.385901
     20          6           0        3.033710    1.684954    1.665746
     21          1           0        2.176745    3.502545    0.879429
     22          1           0        1.991993    2.623276   -1.439662
     23          1           0        2.752840    0.291874   -1.955182
     24          1           0        3.872866   -0.263394    2.150727
     25          1           0        3.115672    2.066198    2.679640
     26          7           0        3.792011   -1.456967   -0.231895
     27          8           0        4.248145   -2.124474    0.693856
     28          8           0        3.678738   -1.842183   -1.393538
 ---------------------------------------------------------------------

 SCF Done:  E(RHF) =  -868.336646273     A.U. after   16 cycles
 E2 =    -0.2601614772D+01 EUMP2 =    -0.87093826104484D+03

 The electronic state is 1-A.
 Alpha  occ. eigenvalues --  -20.61790 -20.61771 -20.60842 -20.60832 -15.86841
 Alpha  occ. eigenvalues --  -15.85896 -11.32317 -11.31256 -11.28921 -11.28800
 Alpha  occ. eigenvalues --  -11.28544 -11.27944 -11.27882 -11.27807 -11.27796
 Alpha  occ. eigenvalues --  -11.27501 -11.26911 -11.26766  -1.60865  -1.59917
 Alpha  occ. eigenvalues --   -1.40413  -1.39470  -1.20483  -1.19437  -1.09828
 Alpha  occ. eigenvalues --   -1.08828  -1.05905  -1.04846  -0.96657  -0.95661
 Alpha  occ. eigenvalues --   -0.87270  -0.86242  -0.83491  -0.82498  -0.78540
 Alpha  occ. eigenvalues --   -0.77549  -0.73043  -0.72214  -0.72112  -0.71550
 Alpha  occ. eigenvalues --   -0.71242  -0.70552  -0.66112  -0.65866  -0.65086
 Alpha  occ. eigenvalues --   -0.64865  -0.63229  -0.62197  -0.56318  -0.55600
 Alpha  occ. eigenvalues --   -0.54008  -0.53928  -0.53146  -0.52937  -0.49815
 Alpha  occ. eigenvalues --   -0.49799  -0.48872  -0.48867  -0.45791  -0.44877
 Alpha  occ. eigenvalues --   -0.38428  -0.37691  -0.37168  -0.36459
 Alpha virt. eigenvalues --    0.03946   0.05001   0.10027   0.11209   0.15380
 Alpha virt. eigenvalues --    0.16495   0.19741   0.21834   0.25702   0.26567
 Alpha virt. eigenvalues --    0.27516   0.29372   0.29778   0.30797   0.32309

 Mulliken charges:
               1
     1  C   -0.167638
     2  C   -0.222954
     3  C   -0.170557
     4  C    0.157699
     5  C   -0.170803
     6  C   -0.222974
     7  H    0.228362
     8  H    0.228022
     9  H    0.276840
    10  H    0.274526
    11  H    0.216716
    12  N    0.488010
    13  O   -0.461353
    14  O   -0.459622
    15  C   -0.168299
    16  C   -0.217457
    17  C   -0.188435
    18  C    0.160043
    19  C   -0.170466
    20  C   -0.216464
    21  H    0.230171
    22  H    0.223091
    23  H    0.275527
    24  H    0.279207
    25  H    0.228749
    26  N    0.486866
    27  O   -0.456192
    28  O   -0.460616
 Sum of Mulliken charges =  -0.00000

 Dipole moment (field-independent basis, Debye):
    X=              3.5909    Y=              5.2495    Z=             -0.3965  Tot=              6.3726
 Quadrupole moment (field-independent basis, Debye-Ang):
   XX=           -150.0152   YY=           -102.3768   ZZ=            -99.4689
   XY=             13.2745   XZ=             11.9912   YZ=             -2.1382

 Normal termination of Gaussian 16 at Fri May  7 03:20:50 2021.
