 Gaussian 16, Revision A.03,
 Gaussian 16:  EM64L-G16RevA.03 25-Dec-2016

 -------------
 #p 6-31g* mp2
 -------------

 ------------------------------------------------------
 Input file generated by CHIRIPA (05-May-2021 14:55:25)
 ------------------------------------------------------
 Symbolic Z-matrix:
 Charge =  0 Multiplicity = 1

                         Standard orientation:
 ---------------------------------------------------------------------
 Center     Atomic      Atomic             Coordinates (Angstroms)
 Number     Number       Type             X           Y           Z
 ---------------------------------------------------------------------
      1          6           0        1.181433   -1.699984   -1.312450
      2          6           0        0.707332   -0.481657   -0.815028
      3          6           0        1.570018    0.401211   -0.158625
      4          6           0        2.906768    0.032139   -0.016588
      5          6           0        3.409222   -1.174513   -0.501173
      6          6           0        2.528489   -2.041921   -1.154214
      7          1           0        0.504268   -2.379813   -1.821053
      8          1           0       -0.338314   -0.213479   -0.936471
      9          1           0        1.229540    1.350750    0.236177
     10          1           0        4.456794   -1.414176   -0.364892
     11          1           0        2.899466   -2.987424   -1.539501
     12          7           0        3.829607    0.958608    0.676536
     13          8           0        5.002879    0.610093    0.788821
     14          8           0        3.362183    2.015748    1.094397
     15          6           0       -3.529331    0.902347    0.321925
     16          6           0       -3.495715    1.780110   -0.929629
     17          6           0       -3.502847    3.274062   -0.604277
     18          1           0       -4.424805    1.146820    0.909551
     19          1           0       -2.664386    1.144875    0.954732
     20          1           0       -4.359712    1.535026   -1.560547
     21          1           0       -2.600317    1.533385   -1.514441
     22          1           0       -2.633276    3.539672    0.005557
     23          1           0       -4.402668    3.541324   -0.040811
     24          1           0       -3.478455    3.883035   -1.513351
     25          6           0       -3.522631   -0.593727    0.012984
     26          6           0       -3.556248   -1.471490    1.264537
     27          6           0       -3.549116   -2.965440    0.939186
     28          1           0       -4.387578   -0.836254   -0.619824
     29          1           0       -2.627158   -0.838200   -0.574643
     30          1           0       -4.451647   -1.224764    1.849350
     31          1           0       -2.692251   -1.226405    1.895456
     32          1           0       -2.649295   -3.232703    0.375719
     33          1           0       -4.418687   -3.231053    0.329351
     34          1           0       -3.573507   -3.574414    1.848260
 ---------------------------------------------------------------------

 SCF Done:  E(RHF) =  -669.535419443     A.U. after   15 cycles
 E2 =    -0.2091740468D+01 EUMP2 =    -0.67162715991100D+03

 The electronic state is 1-A.
 Alpha  occ. eigenvalues --  -20.60772 -20.60767 -15.85825 -11.31196 -11.27767
 Alpha  occ. eigenvalues --  -11.27763 -11.27510 -11.26781 -11.26756 -11.22421
 Alpha  occ. eigenvalues --  -11.22380 -11.22318 -11.22198 -11.21797 -11.21648
 Alpha  occ. eigenvalues --   -1.59847  -1.39401  -1.19369  -1.09277  -1.08762
 Alpha  occ. eigenvalues --   -1.04773  -1.04277  -0.96726  -0.95597  -0.87734
 Alpha  occ. eigenvalues --   -0.86175  -0.82430  -0.80341  -0.79102  -0.77477
 Alpha  occ. eigenvalues --   -0.72044  -0.71170  -0.70479  -0.66033  -0.65021
 Alpha  occ. eigenvalues --   -0.64709  -0.62113  -0.61679  -0.60084  -0.58331
 Alpha  occ. eigenvalues --   -0.56036  -0.55266  -0.53379  -0.53154  -0.53098
 Alpha  occ. eigenvalues --   -0.52855  -0.50670  -0.48807  -0.48798  -0.48651
 Alpha  occ. eigenvalues --   -0.47391  -0.46619  -0.46548  -0.44805  -0.44560
 Alpha  occ. eigenvalues --   -0.37349  -0.36374
 Alpha virt. eigenvalues --    0.05057   0.11231   0.16529   0.18281   0.22933
 Alpha virt. eigenvalues --    0.23364   0.24885   0.26190   0.26857   0.28270
 Alpha virt. eigenvalues --    0.29374   0.30661   0.31167   0.31516   0.32194

 Mulliken charges:
               1
     1  C   -0.173156
     2  C   -0.227000
     3  C   -0.172840
     4  C    0.159037
     5  C   -0.171125
     6  C   -0.218359
     7  H    0.225776
     8  H    0.235308
     9  H    0.275531
    10  H    0.275677
    11  H    0.223543
    12  N    0.488013
    13  O   -0.460397
    14  O   -0.460446
    15  C   -0.300459
    16  C   -0.301376
    17  C   -0.476044
    18  H    0.155053
    19  H    0.148866
    20  H    0.155023
    21  H    0.144864
    22  H    0.156505
    23  H    0.158094
    24  H    0.163066
    25  C   -0.300241
    26  C   -0.300508
    27  C   -0.475110
    28  H    0.153397
    29  H    0.138346
    30  H    0.155779
    31  H    0.154589
    32  H    0.150113
    33  H    0.156442
    34  H    0.164039
 Sum of Mulliken charges =  -0.00000

 Dipole moment (field-independent basis, Debye):
    X=             -3.4489    Y=             -3.2232    Z=             -2.3552  Tot=              5.2755
 Quadrupole moment (field-independent basis, Debye-Ang):
   XX=           -109.0776   YY=            -94.1626   ZZ=            -95.3283
   XY=            -12.6881   XZ=             -7.9568   YZ=              0.3761

 Normal termination of Gaussian 16 at Thu May  6 04:48:54 2021.
