 Gaussian 16, Revision A.03,
 Gaussian 16:  EM64L-G16RevA.03 25-Dec-2016

 -------------
 #p 6-31g* mp2
 -------------

 ------------------------------------------------------
 Input file generated by CHIRIPA (05-May-2021 14:57:24)
 ------------------------------------------------------
 Symbolic Z-matrix:
 Charge =  0 Multiplicity = 1

                         Standard orientation:
 ---------------------------------------------------------------------
 Center     Atomic      Atomic             Coordinates (Angstroms)
 Number     Number       Type             X           Y           Z
 ---------------------------------------------------------------------
      1          6           0       -0.875569    0.018368   -0.484007
      2          6           0       -1.666800    1.161775   -0.635976
      3          6           0       -3.042861    1.110226   -0.394427
      4          6           0       -3.597133   -0.106707   -0.000541
      5          6           0       -2.835375   -1.263160    0.159561
      6          6           0       -1.461350   -1.188323   -0.087423
      7          1           0        0.192597    0.067457   -0.673759
      8          1           0       -1.214590    2.100265   -0.943853
      9          1           0       -3.678845    1.980196   -0.504405
     10          1           0       -3.314770   -2.184389    0.467679
     11          1           0       -0.849327   -2.077904    0.031401
     12          7           0       -5.052830   -0.173606    0.258053
     13          8           0       -5.516990   -1.257803    0.604045
     14          8           0       -5.702081    0.859421    0.109850
     15          6           0        2.814453    2.548230    0.280508
     16          6           0        3.316809    1.833554    1.372935
     17          6           0        3.621032    0.474293    1.252903
     18          6           0        3.409688   -0.141422    0.020215
     19          6           0        2.910515    0.543460   -1.086606
     20          6           0        2.613264    1.902042   -0.943617
     21          1           0        2.580833    3.603873    0.382669
     22          1           0        3.474063    2.332793    2.324816
     23          1           0        4.011119   -0.102957    2.082380
     24          1           0        2.764375    0.018409   -2.022759
     25          1           0        2.223252    2.454556   -1.793713
     26          7           0        3.728065   -1.580051   -0.119009
     27          8           0        3.532908   -2.099379   -1.215755
     28          8           0        4.166738   -2.161080    0.871247
 ---------------------------------------------------------------------

 SCF Done:  E(RHF) =  -868.337325323     A.U. after   16 cycles
 E2 =    -0.2601486043D+01 EUMP2 =    -0.87093881136692D+03

 The electronic state is 1-A.
 Alpha  occ. eigenvalues --  -20.61866 -20.61847 -20.60771 -20.60760 -15.86918
 Alpha  occ. eigenvalues --  -15.85823 -11.32441 -11.31171 -11.29023 -11.28936
 Alpha  occ. eigenvalues --  -11.28709 -11.28076 -11.27940 -11.27795 -11.27710
 Alpha  occ. eigenvalues --  -11.27358 -11.26818 -11.26658  -1.60941  -1.59845
 Alpha  occ. eigenvalues --   -1.40486  -1.39399  -1.20625  -1.19343  -1.09962
 Alpha  occ. eigenvalues --   -1.08731  -1.06033  -1.04752  -0.96776  -0.95569
 Alpha  occ. eigenvalues --   -0.87397  -0.86144  -0.83591  -0.82411  -0.78629
 Alpha  occ. eigenvalues --   -0.77468  -0.73117  -0.72294  -0.72039  -0.71662
 Alpha  occ. eigenvalues --   -0.71170  -0.70451  -0.66239  -0.65976  -0.64989
 Alpha  occ. eigenvalues --   -0.64768  -0.63336  -0.62105  -0.56457  -0.55610
 Alpha  occ. eigenvalues --   -0.54075  -0.53969  -0.53075  -0.52839  -0.49894
 Alpha  occ. eigenvalues --   -0.49872  -0.48799  -0.48795  -0.45854  -0.44808
 Alpha  occ. eigenvalues --   -0.38586  -0.37623  -0.37306  -0.36368
 Alpha virt. eigenvalues --    0.03863   0.05077   0.09896   0.11286   0.15321
 Alpha virt. eigenvalues --    0.16571   0.19990   0.21760   0.25887   0.26876
 Alpha virt. eigenvalues --    0.27622   0.28878   0.29754   0.30844   0.32016

 Mulliken charges:
               1
     1  C   -0.175303
     2  C   -0.223237
     3  C   -0.170888
     4  C    0.157746
     5  C   -0.170293
     6  C   -0.223089
     7  H    0.235652
     8  H    0.214988
     9  H    0.273896
    10  H    0.276717
    11  H    0.229463
    12  N    0.488017
    13  O   -0.459601
    14  O   -0.461709
    15  C   -0.170410
    16  C   -0.216232
    17  C   -0.169782
    18  C    0.162350
    19  C   -0.192450
    20  C   -0.221323
    21  H    0.229951
    22  H    0.229165
    23  H    0.279949
    24  H    0.278917
    25  H    0.226251
    26  N    0.487017
    27  O   -0.459904
    28  O   -0.455859
 Sum of Mulliken charges =  -0.00000

 Dipole moment (field-independent basis, Debye):
    X=              4.3784    Y=              5.2717    Z=             -0.2345  Tot=              6.8568
 Quadrupole moment (field-independent basis, Debye-Ang):
   XX=           -149.5689   YY=           -101.8265   ZZ=           -100.6326
   XY=             16.1047   XZ=              7.0742   YZ=             -1.1073

 Normal termination of Gaussian 16 at Thu May  6 09:50:02 2021.
