 Gaussian 16, Revision A.03,
 Gaussian 16:  EM64L-G16RevA.03 25-Dec-2016

 -------------
 #p 6-31g* mp2
 -------------

 ------------------------------------------------------
 Input file generated by CHIRIPA (05-May-2021 14:53:17)
 ------------------------------------------------------
 Symbolic Z-matrix:
 Charge =  0 Multiplicity = 1

                         Standard orientation:
 ---------------------------------------------------------------------
 Center     Atomic      Atomic             Coordinates (Angstroms)
 Number     Number       Type             X           Y           Z
 ---------------------------------------------------------------------
      1          6           0        4.813181   -0.052150    0.455631
      2          6           0        5.807211    0.041514   -0.702435
      3          6           0        7.244588    0.264318   -0.231162
      4          1           0        4.866495    0.869176    1.051669
      5          1           0        5.113089   -0.873070    1.121620
      6          1           0        5.504733    0.861126   -1.366785
      7          1           0        5.751387   -0.880062   -1.295896
      8          1           0        7.570183   -0.557841    0.414317
      9          1           0        7.322128    1.193240    0.343026
     10          1           0        7.938451    0.328248   -1.075157
     11          6           0        3.372012   -0.274835    0.000470
     12          6           0        2.377983   -0.368500    1.158537
     13          6           0        0.940605   -0.591304    0.687263
     14          1           0        3.072104    0.546084   -0.665519
     15          1           0        3.318699   -1.196161   -0.595567
     16          1           0        2.433806    0.553077    1.751998
     17          1           0        2.680460   -1.188111    1.822886
     18          1           0        0.863066   -1.520226    0.113075
     19          1           0        0.615010    0.230855    0.041784
     20          1           0        0.246743   -0.655234    1.531259
     21          6           0       -2.772375    2.614278   -0.129170
     22          6           0       -1.938812    1.776271   -0.877127
     23          6           0       -2.164852    0.397043   -0.911551
     24          6           0       -3.238425   -0.112662   -0.182901
     25          6           0       -4.086637    0.696262    0.571730
     26          6           0       -3.841742    2.072554    0.591601
     27          1           0       -2.589457    3.684555   -0.108081
     28          1           0       -1.107575    2.194203   -1.437860
     29          1           0       -1.535165   -0.274659   -1.482278
     30          1           0       -4.907325    0.250382    1.120438
     31          1           0       -4.490735    2.720956    1.173346
     32          7           0       -3.487705   -1.571234   -0.211641
     33          8           0       -4.440219   -1.995578    0.438963
     34          8           0       -2.725855   -2.262501   -0.884226
 ---------------------------------------------------------------------

 SCF Done:  E(RHF) =  -669.534939690     A.U. after   15 cycles
 E2 =    -0.2092117980D+01 EUMP2 =    -0.67162705767032D+03

 The electronic state is 1-A.
 Alpha  occ. eigenvalues --  -20.60734 -20.60728 -15.85787 -11.31138 -11.27738
 Alpha  occ. eigenvalues --  -11.27714 -11.27489 -11.26738 -11.26728 -11.21744
 Alpha  occ. eigenvalues --  -11.21713 -11.21571 -11.21504 -11.21191 -11.21141
 Alpha  occ. eigenvalues --   -1.59807  -1.39361  -1.19334  -1.08727  -1.08577
 Alpha  occ. eigenvalues --   -1.04748  -1.03656  -0.96116  -0.95558  -0.87137
 Alpha  occ. eigenvalues --   -0.86132  -0.82400  -0.79733  -0.78401  -0.77434
 Alpha  occ. eigenvalues --   -0.72007  -0.71128  -0.70447  -0.65214  -0.64987
 Alpha  occ. eigenvalues --   -0.64746  -0.62108  -0.61052  -0.59472  -0.57721
 Alpha  occ. eigenvalues --   -0.55431  -0.55244  -0.53221  -0.52857  -0.52706
 Alpha  occ. eigenvalues --   -0.52438  -0.50042  -0.48765  -0.48757  -0.48041
 Alpha  occ. eigenvalues --   -0.46758  -0.45938  -0.45865  -0.44766  -0.43914
 Alpha  occ. eigenvalues --   -0.37317  -0.36265
 Alpha virt. eigenvalues --    0.05080   0.11269   0.16466   0.21043   0.22765
 Alpha virt. eigenvalues --    0.24144   0.26188   0.26578   0.27488   0.27948
 Alpha virt. eigenvalues --    0.29071   0.30126   0.31581   0.31751   0.32255

 Mulliken charges:
               1
     1  C   -0.298227
     2  C   -0.299639
     3  C   -0.475762
     4  H    0.148732
     5  H    0.151166
     6  H    0.150279
     7  H    0.153084
     8  H    0.156092
     9  H    0.154679
    10  H    0.160508
    11  C   -0.297972
    12  C   -0.300479
    13  C   -0.477984
    14  H    0.144267
    15  H    0.152016
    16  H    0.149961
    17  H    0.154601
    18  H    0.163139
    19  H    0.145716
    20  H    0.162931
    21  C   -0.170766
    22  C   -0.219573
    23  C   -0.164003
    24  C    0.156077
    25  C   -0.171081
    26  C   -0.219034
    27  H    0.225394
    28  H    0.222746
    29  H    0.277403
    30  H    0.275491
    31  H    0.223186
    32  N    0.488410
    33  O   -0.460799
    34  O   -0.460558
 Sum of Mulliken charges =  -0.00000

 Dipole moment (field-independent basis, Debye):
    X=              0.8818    Y=              5.0604    Z=              0.1253  Tot=              5.1382
 Quadrupole moment (field-independent basis, Debye-Ang):
   XX=            -98.8489   YY=            -95.4219   ZZ=            -93.5615
   XY=            -17.9677   XZ=             -3.4142   YZ=             -0.6137

 Normal termination of Gaussian 16 at Wed May  5 20:25:24 2021.
