 Gaussian 16, Revision A.03,
 Gaussian 16:  EM64L-G16RevA.03 25-Dec-2016

 -------------
 #p 6-31g* mp2
 -------------

 ------------------------------------------------------
 Input file generated by CHIRIPA (05-May-2021 14:55:21)
 ------------------------------------------------------
 Symbolic Z-matrix:
 Charge =  0 Multiplicity = 1

                         Standard orientation:
 ---------------------------------------------------------------------
 Center     Atomic      Atomic             Coordinates (Angstroms)
 Number     Number       Type             X           Y           Z
 ---------------------------------------------------------------------
      1          6           0       -2.262130    1.918581   -0.648185
      2          6           0       -1.835285    0.891882    0.200470
      3          6           0       -2.675932   -0.187702    0.487454
      4          6           0       -3.942695   -0.208610   -0.094065
      5          6           0       -4.396810    0.799098   -0.943532
      6          6           0       -3.539279    1.868999   -1.216475
      7          1           0       -1.602537    2.753467   -0.865667
      8          1           0       -0.843961    0.927753    0.643228
      9          1           0       -2.370930   -0.995965    1.140985
     10          1           0       -5.390558    0.735573   -1.369968
     11          1           0       -3.873439    2.664939   -1.875915
     12          7           0       -4.841587   -1.346392    0.202320
     13          8           0       -5.952924   -1.341371   -0.322601
     14          8           0       -4.417782   -2.221663    0.953936
     15          6           0        4.184401    0.386956    0.144918
     16          6           0        3.628524    0.779529    1.514178
     17          6           0        2.282452    1.498780    1.421639
     18          1           0        4.290825    1.289124   -0.472911
     19          1           0        3.457195   -0.258442   -0.366969
     20          1           0        4.357166    1.422867    2.023895
     21          1           0        3.523592   -0.123655    2.128885
     22          1           0        1.537125    0.860398    0.936294
     23          1           0        2.375437    2.415707    0.830709
     24          1           0        1.903437    1.770290    2.411835
     25          6           0        5.529638   -0.332965    0.220939
     26          6           0        6.085515   -0.725538   -1.148321
     27          6           0        7.431586   -1.444789   -1.055783
     28          1           0        6.256845    0.312431    0.732825
     29          1           0        5.423214   -1.235134    0.838767
     30          1           0        6.190448    0.177644   -1.763029
     31          1           0        5.356873   -1.368877   -1.658039
     32          1           0        7.338602   -2.361717   -0.464853
     33          1           0        8.176913   -0.806407   -0.570438
     34          1           0        7.810602   -1.716300   -2.045979
 ---------------------------------------------------------------------

 SCF Done:  E(RHF) =  -669.535629477     A.U. after   15 cycles
 E2 =    -0.2090689701D+01 EUMP2 =    -0.67162631917884D+03

 The electronic state is 1-A.
 Alpha  occ. eigenvalues --  -20.60720 -20.60715 -15.85773 -11.31125 -11.27694
 Alpha  occ. eigenvalues --  -11.27682 -11.27422 -11.26708 -11.26653 -11.22389
 Alpha  occ. eigenvalues --  -11.22204 -11.22025 -11.21999 -11.21853 -11.21386
 Alpha  occ. eigenvalues --   -1.59796  -1.39350  -1.19293  -1.09026  -1.08689
 Alpha  occ. eigenvalues --   -1.04695  -1.04164  -0.96639  -0.95527  -0.87668
 Alpha  occ. eigenvalues --   -0.86091  -0.82361  -0.80241  -0.78804  -0.77411
 Alpha  occ. eigenvalues --   -0.71991  -0.71119  -0.70400  -0.65662  -0.64943
 Alpha  occ. eigenvalues --   -0.64711  -0.62087  -0.61530  -0.60013  -0.58222
 Alpha  occ. eigenvalues --   -0.55955  -0.55185  -0.53362  -0.53136  -0.53023
 Alpha  occ. eigenvalues --   -0.52699  -0.50568  -0.48757  -0.48747  -0.48535
 Alpha  occ. eigenvalues --   -0.47249  -0.46355  -0.46252  -0.44758  -0.44398
 Alpha  occ. eigenvalues --   -0.37273  -0.36298
 Alpha virt. eigenvalues --    0.05121   0.11339   0.16611   0.20318   0.22415
 Alpha virt. eigenvalues --    0.23756   0.25279   0.26257   0.27097   0.28219
 Alpha virt. eigenvalues --    0.28737   0.29995   0.31067   0.31355   0.32052

 Mulliken charges:
               1
     1  C   -0.173102
     2  C   -0.226969
     3  C   -0.173305
     4  C    0.158887
     5  C   -0.171329
     6  C   -0.218534
     7  H    0.226062
     8  H    0.236178
     9  H    0.275555
    10  H    0.275323
    11  H    0.223098
    12  N    0.488066
    13  O   -0.460687
    14  O   -0.460637
    15  C   -0.299159
    16  C   -0.299161
    17  C   -0.482437
    18  H    0.149561
    19  H    0.149708
    20  H    0.155343
    21  H    0.154875
    22  H    0.148867
    23  H    0.156030
    24  H    0.163350
    25  C   -0.298899
    26  C   -0.300125
    27  C   -0.476070
    28  H    0.150508
    29  H    0.151179
    30  H    0.151897
    31  H    0.152687
    32  H    0.156178
    33  H    0.155601
    34  H    0.161463
 Sum of Mulliken charges =  -0.00000

 Dipole moment (field-independent basis, Debye):
    X=              3.4011    Y=              4.0146    Z=             -1.0257  Tot=              5.3607
 Quadrupole moment (field-independent basis, Debye-Ang):
   XX=           -117.5783   YY=            -95.6447   ZZ=            -93.3505
   XY=            -17.3152   XZ=              6.4284   YZ=             -1.6667

 Normal termination of Gaussian 16 at Thu May  6 09:20:03 2021.
