 Gaussian 16, Revision A.03,
 Gaussian 16:  EM64L-G16RevA.03 25-Dec-2016

 -------------
 #p 6-31g* mp2
 -------------

 ------------------------------------------------------
 Input file generated by CHIRIPA (05-May-2021 14:53:13)
 ------------------------------------------------------
 Symbolic Z-matrix:
 Charge =  0 Multiplicity = 1

                         Standard orientation:
 ---------------------------------------------------------------------
 Center     Atomic      Atomic             Coordinates (Angstroms)
 Number     Number       Type             X           Y           Z
 ---------------------------------------------------------------------
      1          6           0       -4.080690    1.108309   -0.159029
      2          6           0       -2.810991    1.762707    0.386508
      3          6           0       -2.720974    3.251133    0.048458
      4          1           0       -4.114611    1.240908   -1.249081
      5          1           0       -4.957767    1.631151    0.246888
      6          1           0       -1.936588    1.237909   -0.019229
      7          1           0       -2.779994    1.628368    1.475365
      8          1           0       -3.574872    3.793578    0.467044
      9          1           0       -2.726674    3.400901   -1.036041
     10          1           0       -1.805695    3.698921    0.447971
     11          6           0       -4.185066   -0.379659    0.170798
     12          6           0       -5.454766   -1.034057   -0.374739
     13          6           0       -5.544782   -2.522484   -0.036689
     14          1           0       -3.307990   -0.902501   -0.235119
     15          1           0       -4.151146   -0.512258    1.260850
     16          1           0       -5.485763   -0.899718   -1.463596
     17          1           0       -6.329169   -0.509260    0.030998
     18          1           0       -5.539083   -2.672251    1.047810
     19          1           0       -4.690885   -3.064928   -0.455275
     20          1           0       -6.460061   -2.970271   -0.436202
     21          6           0        5.685895    0.277665   -0.116369
     22          6           0        5.277964   -1.052946    0.023593
     23          6           0        3.919244   -1.376144    0.086604
     24          6           0        2.991270   -0.338989    0.006209
     25          6           0        3.366297    0.996352   -0.133459
     26          6           0        4.730443    1.296272   -0.194311
     27          1           0        6.743488    0.519691   -0.164478
     28          1           0        6.017764   -1.846071    0.084377
     29          1           0        3.575730   -2.397769    0.194762
     30          1           0        2.605473    1.765254   -0.191383
     31          1           0        5.044342    2.330531   -0.303028
     32          7           0        1.549982   -0.668823    0.071772
     33          8           0        0.752153    0.263254   -0.001310
     34          8           0        1.245419   -1.853176    0.195001
 ---------------------------------------------------------------------

 SCF Done:  E(RHF) =  -669.536180699     A.U. after   15 cycles
 E2 =    -0.2090857836D+01 EUMP2 =    -0.67162703853454D+03

 The electronic state is 1-A.
 Alpha  occ. eigenvalues --  -20.60978 -20.60968 -15.86013 -11.31317 -11.27878
 Alpha  occ. eigenvalues --  -11.27874 -11.27613 -11.26882 -11.26872 -11.20634
 Alpha  occ. eigenvalues --  -11.20207 -11.20190 -11.20133 -11.20068 -11.20006
 Alpha  occ. eigenvalues --   -1.60038  -1.39594  -1.19483  -1.08891  -1.07241
 Alpha  occ. eigenvalues --   -1.04877  -1.02401  -0.95735  -0.94902  -0.86278
 Alpha  occ. eigenvalues --   -0.85923  -0.82571  -0.78451  -0.77624  -0.77011
 Alpha  occ. eigenvalues --   -0.72236  -0.71351  -0.70592  -0.65140  -0.64880
 Alpha  occ. eigenvalues --   -0.63871  -0.62224  -0.59798  -0.58266  -0.56491
 Alpha  occ. eigenvalues --   -0.55382  -0.54204  -0.53210  -0.52969  -0.51628
 Alpha  occ. eigenvalues --   -0.51320  -0.49058  -0.48985  -0.48815  -0.46762
 Alpha  occ. eigenvalues --   -0.45447  -0.45011  -0.44595  -0.44403  -0.42653
 Alpha  occ. eigenvalues --   -0.37462  -0.36478
 Alpha virt. eigenvalues --    0.04909   0.11177   0.16413   0.21302   0.24018
 Alpha virt. eigenvalues --    0.25339   0.27232   0.27802   0.28148   0.28818
 Alpha virt. eigenvalues --    0.29063   0.30881   0.32297   0.32480   0.32919

 Mulliken charges:
               1
     1  C   -0.297297
     2  C   -0.310602
     3  C   -0.474031
     4  H    0.146150
     5  H    0.143505
     6  H    0.182589
     7  H    0.147876
     8  H    0.149670
     9  H    0.151475
    10  H    0.156184
    11  C   -0.299517
    12  C   -0.298804
    13  C   -0.475232
    14  H    0.160307
    15  H    0.148067
    16  H    0.149743
    17  H    0.148400
    18  H    0.154104
    19  H    0.157447
    20  H    0.156264
    21  C   -0.170552
    22  C   -0.218623
    23  C   -0.170388
    24  C    0.157366
    25  C   -0.170816
    26  C   -0.218551
    27  H    0.226078
    28  H    0.223879
    29  H    0.275904
    30  H    0.275872
    31  H    0.223958
    32  N    0.493541
    33  O   -0.464824
    34  O   -0.459141
 Sum of Mulliken charges =  -0.00000

 Dipole moment (field-independent basis, Debye):
    X=              5.4619    Y=              1.0188    Z=             -0.2438  Tot=              5.5615
 Quadrupole moment (field-independent basis, Debye-Ang):
   XX=            -66.0002   YY=            -92.6823   ZZ=            -95.0221
   XY=              0.6146   XZ=             -0.9440   YZ=             -0.1067

 Normal termination of Gaussian 16 at Wed May  5 23:25:29 2021.
