 Gaussian 16, Revision A.03,
 Gaussian 16:  EM64L-G16RevA.03 25-Dec-2016

 -------------
 #p 6-31g* mp2
 -------------

 ------------------------------------------------------
 Input file generated by CHIRIPA (05-May-2021 14:55:25)
 ------------------------------------------------------
 Symbolic Z-matrix:
 Charge =  0 Multiplicity = 1

                         Standard orientation:
 ---------------------------------------------------------------------
 Center     Atomic      Atomic             Coordinates (Angstroms)
 Number     Number       Type             X           Y           Z
 ---------------------------------------------------------------------
      1          6           0       -4.091098    1.085097   -1.056666
      2          6           0       -2.973759    1.689380   -0.471074
      3          6           0       -2.027170    0.920316    0.212342
      4          6           0       -2.230236   -0.456578    0.291192
      5          6           0       -3.333134   -1.087985   -0.281722
      6          6           0       -4.266909   -0.299216   -0.960291
      7          1           0       -4.821454    1.690178   -1.585677
      8          1           0       -2.834641    2.764240   -0.544332
      9          1           0       -1.153044    1.362237    0.674974
     10          1           0       -3.444622   -2.161732   -0.191961
     11          1           0       -5.133694   -0.771224   -1.414095
     12          7           0       -1.234907   -1.281182    1.012128
     13          8           0       -1.436766   -2.492308    1.067468
     14          8           0       -0.271756   -0.700766    1.508207
     15          6           0        3.253315   -0.299989   -0.013013
     16          6           0        3.580822   -1.210866   -1.196662
     17          6           0        3.956315   -2.628842   -0.765218
     18          1           0        4.118670   -0.262124    0.662762
     19          1           0        2.426843   -0.740303    0.561845
     20          1           0        4.405513   -0.768267   -1.769906
     21          1           0        2.714656   -1.246415   -1.869795
     22          1           0        3.133885   -3.093671   -0.211916
     23          1           0        4.834349   -2.612807   -0.111458
     24          1           0        4.186553   -3.262987   -1.627023
     25          6           0        2.876038    1.120912   -0.428264
     26          6           0        2.548531    2.031790    0.755386
     27          6           0        2.173038    3.449765    0.323942
     28          1           0        3.702511    1.561227   -1.003121
     29          1           0        2.010683    1.083047   -1.104038
     30          1           0        3.414698    2.067337    1.428519
     31          1           0        1.723841    1.589191    1.328630
     32          1           0        1.295005    3.433730   -0.329817
     33          1           0        2.995468    3.914595   -0.229360
     34          1           0        1.942800    4.083910    1.185747
 ---------------------------------------------------------------------

 SCF Done:  E(RHF) =  -669.536553250     A.U. after   15 cycles
 E2 =    -0.2092331020D+01 EUMP2 =    -0.67162888426983D+03

 The electronic state is 1-A.
 Alpha  occ. eigenvalues --  -20.61084 -20.61078 -15.86099 -11.31358 -11.27912
 Alpha  occ. eigenvalues --  -11.27907 -11.27638 -11.26907 -11.26895 -11.21032
 Alpha  occ. eigenvalues --  -11.20946 -11.20783 -11.20742 -11.20265 -11.20207
 Alpha  occ. eigenvalues --   -1.60134  -1.39693  -1.19520  -1.08936  -1.07676
 Alpha  occ. eigenvalues --   -1.04906  -1.02897  -0.95789  -0.95354  -0.86373
 Alpha  occ. eigenvalues --   -0.86309  -0.82627  -0.78958  -0.77710  -0.77413
 Alpha  occ. eigenvalues --   -0.72330  -0.71442  -0.70628  -0.65184  -0.64913
 Alpha  occ. eigenvalues --   -0.64285  -0.62256  -0.60299  -0.58748  -0.56950
 Alpha  occ. eigenvalues --   -0.55412  -0.54656  -0.53241  -0.52994  -0.52095
 Alpha  occ. eigenvalues --   -0.51777  -0.49369  -0.49079  -0.49016  -0.47272
 Alpha  occ. eigenvalues --   -0.45975  -0.45343  -0.45027  -0.44550  -0.43096
 Alpha  occ. eigenvalues --   -0.37494  -0.36503
 Alpha virt. eigenvalues --    0.04796   0.11135   0.16281   0.20081   0.23016
 Alpha virt. eigenvalues --    0.24591   0.26792   0.27388   0.28018   0.28584
 Alpha virt. eigenvalues --    0.29149   0.30887   0.31510   0.32113   0.32425

 Mulliken charges:
               1
     1  C   -0.170200
     2  C   -0.219637
     3  C   -0.173011
     4  C    0.157266
     5  C   -0.170313
     6  C   -0.218713
     7  H    0.226377
     8  H    0.224797
     9  H    0.280226
    10  H    0.275901
    11  H    0.224081
    12  N    0.491125
    13  O   -0.457967
    14  O   -0.464251
    15  C   -0.311239
    16  C   -0.297960
    17  C   -0.476844
    18  H    0.145987
    19  H    0.178268
    20  H    0.146968
    21  H    0.148164
    22  H    0.163338
    23  H    0.153375
    24  H    0.155996
    25  C   -0.294256
    26  C   -0.309142
    27  C   -0.475480
    28  H    0.145302
    29  H    0.143057
    30  H    0.152471
    31  H    0.167581
    32  H    0.144777
    33  H    0.155866
    34  H    0.158089
 Sum of Mulliken charges =  -0.00000

 Dipole moment (field-independent basis, Debye):
    X=             -3.7352    Y=              2.7170    Z=             -2.3663  Tot=              5.1897
 Quadrupole moment (field-independent basis, Debye-Ang):
   XX=            -77.6569   YY=            -95.7522   ZZ=            -97.0009
   XY=             -2.0607   XZ=              6.0534   YZ=              3.0034

 Normal termination of Gaussian 16 at Thu May  6 11:08:16 2021.
