 Gaussian 16, Revision A.03,
 Gaussian 16:  EM64L-G16RevA.03 25-Dec-2016

 -------------
 #p 6-31g* mp2
 -------------

 ------------------------------------------------------
 Input file generated by CHIRIPA (05-May-2021 14:53:13)
 ------------------------------------------------------
 Symbolic Z-matrix:
 Charge =  0 Multiplicity = 1

                         Standard orientation:
 ---------------------------------------------------------------------
 Center     Atomic      Atomic             Coordinates (Angstroms)
 Number     Number       Type             X           Y           Z
 ---------------------------------------------------------------------
      1          6           0       -3.676200   -0.029430    0.190422
      2          6           0       -2.906751   -0.936634    1.151106
      3          6           0       -1.406040   -0.644340    1.166042
      4          1           0       -3.267907   -0.148482   -0.822528
      5          1           0       -3.508695    1.018939    0.473726
      6          1           0       -3.076772   -1.983031    0.866918
      7          1           0       -3.317050   -0.815552    2.161854
      8          1           0       -1.218076    0.390181    1.471063
      9          1           0       -0.976432   -0.783932    0.168770
     10          1           0       -0.875385   -1.304231    1.859446
     11          6           0       -5.177732   -0.309521    0.164333
     12          6           0       -5.947181    0.597683   -0.796351
     13          6           0       -7.447892    0.305389   -0.811287
     14          1           0       -5.345237   -1.357889   -0.118971
     15          1           0       -5.586025   -0.190469    1.177283
     16          1           0       -5.536882    0.476601   -1.807099
     17          1           0       -5.777160    1.644080   -0.512163
     18          1           0       -7.877500    0.444981    0.185985
     19          1           0       -7.635856   -0.729132   -1.116308
     20          1           0       -7.978547    0.965280   -1.504691
     21          6           0        3.926012   -2.328084   -0.444228
     22          6           0        4.982921   -1.412105   -0.423139
     23          6           0        4.735676   -0.046473   -0.254413
     24          6           0        3.413377    0.370274   -0.109027
     25          6           0        2.338965   -0.517787   -0.125729
     26          6           0        2.609727   -1.878795   -0.295718
     27          1           0        4.127212   -3.387143   -0.575789
     28          1           0        6.006168   -1.758172   -0.538237
     29          1           0        5.535030    0.684311   -0.234285
     30          1           0        1.329519   -0.142703   -0.008482
     31          1           0        1.786940   -2.587885   -0.311697
     32          7           0        3.139180    1.813558    0.070264
     33          8           0        1.965304    2.155295    0.196228
     34          8           0        4.103334    2.575739    0.081433
 ---------------------------------------------------------------------

 SCF Done:  E(RHF) =  -669.535619280     A.U. after   15 cycles
 E2 =    -0.2091182138D+01 EUMP2 =    -0.67162680141717D+03

 The electronic state is 1-A.
 Alpha  occ. eigenvalues --  -20.60700 -20.60695 -15.85750 -11.31080 -11.27675
 Alpha  occ. eigenvalues --  -11.27593 -11.27422 -11.26689 -11.26660 -11.21892
 Alpha  occ. eigenvalues --  -11.21609 -11.21555 -11.21498 -11.21430 -11.21076
 Alpha  occ. eigenvalues --   -1.59774  -1.39328  -1.19264  -1.08670  -1.08558
 Alpha  occ. eigenvalues --   -1.04665  -1.03707  -0.96177  -0.95504  -0.87209
 Alpha  occ. eigenvalues --   -0.86062  -0.82338  -0.79786  -0.78348  -0.77377
 Alpha  occ. eigenvalues --   -0.71971  -0.71096  -0.70383  -0.65190  -0.64918
 Alpha  occ. eigenvalues --   -0.64675  -0.62050  -0.61084  -0.59540  -0.57763
 Alpha  occ. eigenvalues --   -0.55480  -0.55163  -0.53026  -0.52960  -0.52788
 Alpha  occ. eigenvalues --   -0.52445  -0.50109  -0.48728  -0.48721  -0.48075
 Alpha  occ. eigenvalues --   -0.46788  -0.45895  -0.45799  -0.44740  -0.43947
 Alpha  occ. eigenvalues --   -0.37258  -0.36266
 Alpha virt. eigenvalues --    0.05137   0.11376   0.16626   0.20670   0.22797
 Alpha virt. eigenvalues --    0.24028   0.25617   0.26635   0.27489   0.28020
 Alpha virt. eigenvalues --    0.29463   0.30683   0.31472   0.31645   0.31751

 Mulliken charges:
               1
     1  C   -0.299152
     2  C   -0.299347
     3  C   -0.483718
     4  H    0.149294
     5  H    0.154675
     6  H    0.149822
     7  H    0.154843
     8  H    0.170529
     9  H    0.144268
    10  H    0.158832
    11  C   -0.298579
    12  C   -0.299962
    13  C   -0.475821
    14  H    0.148256
    15  H    0.150241
    16  H    0.152052
    17  H    0.153998
    18  H    0.155422
    19  H    0.154436
    20  H    0.160938
    21  C   -0.170615
    22  C   -0.219210
    23  C   -0.170214
    24  C    0.158785
    25  C   -0.180600
    26  C   -0.222528
    27  H    0.225105
    28  H    0.223021
    29  H    0.275209
    30  H    0.290731
    31  H    0.223328
    32  N    0.487363
    33  O   -0.460571
    34  O   -0.460831
 Sum of Mulliken charges =  -0.00000

 Dipole moment (field-independent basis, Debye):
    X=              0.8163    Y=             -4.9944    Z=             -0.5727  Tot=              5.0930
 Quadrupole moment (field-independent basis, Debye-Ang):
   XX=            -84.3814   YY=            -98.6315   ZZ=            -94.8812
   XY=            -16.5465   XZ=             -2.9497   YZ=              0.8640

 Normal termination of Gaussian 16 at Wed May  5 20:09:00 2021.
