 Gaussian 16, Revision A.03,
 Gaussian 16:  EM64L-G16RevA.03 25-Dec-2016

 -------------
 #p 6-31g* mp2
 -------------

 ------------------------------------------------------
 Input file generated by CHIRIPA (05-May-2021 14:57:21)
 ------------------------------------------------------
 Symbolic Z-matrix:
 Charge =  0 Multiplicity = 1

                         Standard orientation:
 ---------------------------------------------------------------------
 Center     Atomic      Atomic             Coordinates (Angstroms)
 Number     Number       Type             X           Y           Z
 ---------------------------------------------------------------------
      1          6           0       -4.853352   -1.807958    0.863714
      2          6           0       -5.029894   -0.509162    1.352063
      3          6           0       -4.256262    0.545932    0.859299
      4          6           0       -3.311020    0.265158   -0.126081
      5          6           0       -3.111583   -1.018084   -0.632840
      6          6           0       -3.896447   -2.057833   -0.125435
      7          1           0       -5.458690   -2.621620    1.252192
      8          1           0       -5.772286   -0.312163    2.120237
      9          1           0       -4.372160    1.560928    1.219535
     10          1           0       -2.363590   -1.183455   -1.398724
     11          1           0       -3.757164   -3.065497   -0.506562
     12          7           0       -2.486065    1.374016   -0.655499
     13          8           0       -1.660009    1.100474   -1.523510
     14          8           0       -2.681142    2.495684   -0.192420
     15          6           0        5.859315   -0.367868    0.720799
     16          6           0        5.007542    0.439418    1.481911
     17          6           0        3.669096    0.604804    1.113457
     18          6           0        3.213768   -0.054807   -0.027103
     19          6           0        4.037710   -0.865801   -0.806012
     20          6           0        5.372539   -1.016758   -0.418724
     21          1           0        6.897647   -0.490739    1.014338
     22          1           0        5.382835    0.944567    2.367364
     23          1           0        2.987886    1.223889    1.684514
     24          1           0        3.634694   -1.356584   -1.683581
     25          1           0        6.031752   -1.644324   -1.011718
     26          7           0        1.798729    0.112642   -0.427138
     27          8           0        1.421987   -0.479260   -1.436273
     28          8           0        1.093158    0.832620    0.276025
 ---------------------------------------------------------------------

 SCF Done:  E(RHF) =  -868.336111145     A.U. after   16 cycles
 E2 =    -0.2600903206D+01 EUMP2 =    -0.87093701435151D+03

 The electronic state is 1-A.
 Alpha  occ. eigenvalues --  -20.60108 -20.60083 -20.59171 -20.58993 -15.85165
 Alpha  occ. eigenvalues --  -15.84135 -11.30767 -11.29928 -11.27372 -11.27349
 Alpha  occ. eigenvalues --  -11.27153 -11.26605 -11.26490 -11.26442 -11.26438
 Alpha  occ. eigenvalues --  -11.26421 -11.25727 -11.25676  -1.59149  -1.58132
 Alpha  occ. eigenvalues --   -1.38707  -1.37679  -1.18959  -1.18157  -1.08308
 Alpha  occ. eigenvalues --   -1.07483  -1.04399  -1.03629  -0.95104  -0.94242
 Alpha  occ. eigenvalues --   -0.85786  -0.85007  -0.81939  -0.81081  -0.76944
 Alpha  occ. eigenvalues --   -0.76032  -0.71382  -0.70515  -0.70366  -0.70067
 Alpha  occ. eigenvalues --   -0.69433  -0.69280  -0.64609  -0.64402  -0.63808
 Alpha  occ. eigenvalues --   -0.63654  -0.61744  -0.60964  -0.54892  -0.54152
 Alpha  occ. eigenvalues --   -0.52715  -0.52495  -0.51938  -0.51734  -0.48170
 Alpha  occ. eigenvalues --   -0.48098  -0.47162  -0.47082  -0.44070  -0.42918
 Alpha  occ. eigenvalues --   -0.36957  -0.36175  -0.36014  -0.35255
 Alpha virt. eigenvalues --    0.05593   0.06530   0.11637   0.12396   0.17043
 Alpha virt. eigenvalues --    0.17919   0.21741   0.22421   0.27633   0.28297
 Alpha virt. eigenvalues --    0.28654   0.29388   0.31273   0.31922   0.32900

 Mulliken charges:
               1
     1  C   -0.172604
     2  C   -0.219230
     3  C   -0.172042
     4  C    0.161122
     5  C   -0.170110
     6  C   -0.219790
     7  H    0.220477
     8  H    0.218598
     9  H    0.272865
    10  H    0.283413
    11  H    0.219538
    12  N    0.490413
    13  O   -0.443267
    14  O   -0.470374
    15  C   -0.171624
    16  C   -0.218568
    17  C   -0.171170
    18  C    0.159141
    19  C   -0.171543
    20  C   -0.218554
    21  H    0.223988
    22  H    0.222354
    23  H    0.276504
    24  H    0.274432
    25  H    0.221782
    26  N    0.488346
    27  O   -0.459274
    28  O   -0.454821
 Sum of Mulliken charges =  -0.00000

 Dipole moment (field-independent basis, Debye):
    X=              2.3375    Y=             -4.3784    Z=              3.0653  Tot=              5.8336
 Quadrupole moment (field-independent basis, Debye-Ang):
   XX=            -56.2337   YY=           -104.4542   ZZ=           -101.2637
   XY=              7.8306   XZ=             -3.3440   YZ=              5.9744

 Normal termination of Gaussian 16 at Wed May  5 22:30:55 2021.
