 Gaussian 16, Revision A.03,
 Gaussian 16:  EM64L-G16RevA.03 25-Dec-2016

 -------------
 #p 6-31g* mp2
 -------------

 ------------------------------------------------------
 Input file generated by CHIRIPA (05-May-2021 14:53:14)
 ------------------------------------------------------
 Symbolic Z-matrix:
 Charge =  0 Multiplicity = 1

                         Standard orientation:
 ---------------------------------------------------------------------
 Center     Atomic      Atomic             Coordinates (Angstroms)
 Number     Number       Type             X           Y           Z
 ---------------------------------------------------------------------
      1          6           0       -3.516829    0.187256    0.438447
      2          6           0       -3.458234   -1.329247    0.251981
      3          6           0       -4.415531   -2.076501    1.180952
      4          1           0       -3.281133    0.431190    1.483382
      5          1           0       -4.545002    0.532014    0.261256
      6          1           0       -2.430182   -1.670863    0.428117
      7          1           0       -3.693909   -1.569586   -0.792677
      8          1           0       -5.449272   -1.764051    1.001078
      9          1           0       -4.178366   -1.865904    2.228808
     10          1           0       -4.357328   -3.159069    1.030892
     11          6           0       -2.565434    0.948173   -0.483280
     12          6           0       -2.624030    2.464677   -0.296815
     13          6           0       -1.666732    3.211931   -1.225786
     14          1           0       -1.537261    0.603415   -0.306089
     15          1           0       -2.801130    0.704240   -1.528215
     16          1           0       -2.388355    2.705016    0.747843
     17          1           0       -3.652081    2.806293   -0.472951
     18          1           0       -1.903898    3.001333   -2.273642
     19          1           0       -0.632991    2.899480   -1.045912
     20          1           0       -1.724936    4.294499   -1.075726
     21          6           0        3.839654    1.067075    1.410848
     22          6           0        4.282290    0.621930    0.160872
     23          6           0        3.479648   -0.215330   -0.619709
     24          6           0        2.234373   -0.589567   -0.117190
     25          6           0        1.765340   -0.162724    1.124223
     26          6           0        2.584804    0.674020    1.887694
     27          1           0        4.469698    1.717279    2.010577
     28          1           0        5.256363    0.925576   -0.211989
     29          1           0        3.797596   -0.574651   -1.590902
     30          1           0        0.789500   -0.482344    1.469180
     31          1           0        2.238455    1.018184    2.858074
     32          7           0        1.375747   -1.475664   -0.934499
     33          8           0        0.282742   -1.791072   -0.469211
     34          8           0        1.812021   -1.837999   -2.024919
 ---------------------------------------------------------------------

 SCF Done:  E(RHF) =  -669.536132107     A.U. after   15 cycles
 E2 =    -0.2092308147D+01 EUMP2 =    -0.67162844025394D+03

 The electronic state is 1-A.
 Alpha  occ. eigenvalues --  -20.61000 -20.60994 -15.86021 -11.31339 -11.27905
 Alpha  occ. eigenvalues --  -11.27886 -11.27624 -11.26903 -11.26892 -11.21237
 Alpha  occ. eigenvalues --  -11.20821 -11.20746 -11.20680 -11.20513 -11.20322
 Alpha  occ. eigenvalues --   -1.60049  -1.39609  -1.19502  -1.08905  -1.07782
 Alpha  occ. eigenvalues --   -1.04897  -1.02912  -0.95751  -0.95402  -0.86425
 Alpha  occ. eigenvalues --   -0.86297  -0.82590  -0.78965  -0.77729  -0.77448
 Alpha  occ. eigenvalues --   -0.72250  -0.71355  -0.70609  -0.65165  -0.64903
 Alpha  occ. eigenvalues --   -0.64418  -0.62245  -0.60319  -0.58774  -0.56980
 Alpha  occ. eigenvalues --   -0.55398  -0.54716  -0.53226  -0.52988  -0.52113
 Alpha  occ. eigenvalues --   -0.51815  -0.49378  -0.49021  -0.48998  -0.47279
 Alpha  occ. eigenvalues --   -0.46010  -0.45373  -0.45086  -0.44566  -0.43157
 Alpha  occ. eigenvalues --   -0.37475  -0.36495
 Alpha virt. eigenvalues --    0.04862   0.11097   0.16349   0.20862   0.23103
 Alpha virt. eigenvalues --    0.24780   0.26206   0.27461   0.27726   0.28341
 Alpha virt. eigenvalues --    0.29081   0.31150   0.31804   0.32197   0.32510

 Mulliken charges:
               1
     1  C   -0.297558
     2  C   -0.307481
     3  C   -0.475274
     4  H    0.141523
     5  H    0.146423
     6  H    0.174677
     7  H    0.153499
     8  H    0.151472
     9  H    0.149544
    10  H    0.161101
    11  C   -0.300959
    12  C   -0.298773
    13  C   -0.474789
    14  H    0.154231
    15  H    0.152610
    16  H    0.146042
    17  H    0.151196
    18  H    0.157208
    19  H    0.152223
    20  H    0.157328
    21  C   -0.170544
    22  C   -0.218348
    23  C   -0.170742
    24  C    0.157979
    25  C   -0.171666
    26  C   -0.218476
    27  H    0.226274
    28  H    0.224108
    29  H    0.276050
    30  H    0.275762
    31  H    0.224160
    32  N    0.495084
    33  O   -0.465913
    34  O   -0.457972
 Sum of Mulliken charges =  -0.00000

 Dipole moment (field-independent basis, Debye):
    X=              3.2721    Y=              2.9476    Z=              2.7512  Tot=              5.1927
 Quadrupole moment (field-independent basis, Debye-Ang):
   XX=            -79.5642   YY=           -100.0103   ZZ=            -93.1425
   XY=              5.0448   XZ=              4.6765   YZ=             -1.3940

 Normal termination of Gaussian 16 at Thu May  6 01:04:03 2021.
