 Gaussian 16, Revision A.03,
 Gaussian 16:  EM64L-G16RevA.03 25-Dec-2016

 -------------
 #p 6-31g* mp2
 -------------

 ------------------------------------------------------
 Input file generated by CHIRIPA (05-May-2021 14:51:13)
 ------------------------------------------------------
 Symbolic Z-matrix:
 Charge =  0 Multiplicity = 1

                         Standard orientation:
 ---------------------------------------------------------------------
 Center     Atomic      Atomic             Coordinates (Angstroms)
 Number     Number       Type             X           Y           Z
 ---------------------------------------------------------------------
      1          6           0        3.321448    0.878114   -0.203537
      2          6           0        4.456378    1.626154    0.496716
      3          6           0        4.265169    3.143008    0.477066
      4          1           0        3.247711    1.226388   -1.242870
      5          1           0        2.368964    1.134847    0.280464
      6          1           0        5.406599    1.367014    0.012421
      7          1           0        4.527547    1.275921    1.534448
      8          1           0        3.332030    3.420187    0.978089
      9          1           0        4.216077    3.511798   -0.552586
     10          1           0        5.087809    3.657937    0.983003
     11          6           0        3.498342   -0.639222   -0.192183
     12          6           0        2.363411   -1.387262   -0.892437
     13          6           0        2.554620   -2.904116   -0.872787
     14          1           0        4.450826   -0.895955   -0.676185
     15          1           0        3.572079   -0.987496    0.847149
     16          1           0        2.292243   -1.037029   -1.930169
     17          1           0        1.413190   -1.128122   -0.408141
     18          1           0        2.603712   -3.272906    0.156866
     19          1           0        3.487759   -3.181295   -1.373809
     20          1           0        1.731980   -3.419045   -1.378724
     21          6           0       -4.127311    0.122364    0.096500
     22          6           0       -4.215200    1.545308   -0.456212
     23          6           0       -5.656862    2.014845   -0.653544
     24          1           0       -4.647169   -0.562550   -0.587301
     25          1           0       -4.663784    0.074707    1.054268
     26          1           0       -3.677542    1.590601   -1.411978
     27          1           0       -3.694906    2.226887    0.228888
     28          1           0       -6.200867    1.998237    0.296395
     29          1           0       -6.183404    1.358335   -1.353793
     30          1           0       -5.696384    3.034472   -1.049347
     31          6           0       -2.692478   -0.361256    0.299220
     32          6           0       -2.604590   -1.784200    0.851932
     33          6           0       -1.162928   -2.253737    1.049264
     34          1           0       -2.156004   -0.313599   -0.658548
     35          1           0       -2.172619    0.323659    0.983021
     36          1           0       -3.124883   -2.465779    0.166833
     37          1           0       -3.142248   -1.829493    1.807698
     38          1           0       -0.636386   -1.597227    1.749513
     39          1           0       -0.618923   -2.237129    0.099324
     40          1           0       -1.123406   -3.273364    1.445067
 ---------------------------------------------------------------------

 SCF Done:  E(RHF) =  -470.733085570     A.U. after   11 cycles
 E2 =    -0.1582836102D+01 EUMP2 =    -0.47231592167161D+03

 The electronic state is 1-A.
 Alpha  occ. eigenvalues --  -11.21626 -11.21612 -11.21573 -11.21492 -11.21428
 Alpha  occ. eigenvalues --  -11.21368 -11.21356 -11.21295 -11.21083 -11.21079
 Alpha  occ. eigenvalues --  -11.21051 -11.21013  -1.08454  -1.08378  -1.03566
 Alpha  occ. eigenvalues --   -1.03469  -0.96021  -0.95918  -0.87021  -0.86949
 Alpha  occ. eigenvalues --   -0.79658  -0.79510  -0.78285  -0.78173  -0.65101
 Alpha  occ. eigenvalues --   -0.65001  -0.61040  -0.60820  -0.59382  -0.59300
 Alpha  occ. eigenvalues --   -0.57684  -0.57482  -0.55354  -0.55151  -0.52695
 Alpha  occ. eigenvalues --   -0.52631  -0.52421  -0.52360  -0.49948  -0.49868
 Alpha  occ. eigenvalues --   -0.48068  -0.47776  -0.46717  -0.46489  -0.45894
 Alpha  occ. eigenvalues --   -0.45745  -0.45713  -0.45479  -0.43805  -0.43735
 Alpha virt. eigenvalues --    0.21701   0.23050   0.23535   0.24788   0.26338
 Alpha virt. eigenvalues --    0.26488   0.27182   0.27425   0.27915   0.29076
 Alpha virt. eigenvalues --    0.30719   0.31265   0.31742   0.31797   0.32359

 Mulliken charges:
               1
     1  C   -0.298347
     2  C   -0.299614
     3  C   -0.475649
     4  H    0.149468
     5  H    0.149643
     6  H    0.151877
     7  H    0.151824
     8  H    0.155055
     9  H    0.155142
    10  H    0.160129
    11  C   -0.297688
    12  C   -0.306348
    13  C   -0.475526
    14  H    0.149134
    15  H    0.149576
    16  H    0.150823
    17  H    0.158786
    18  H    0.156125
    19  H    0.154841
    20  H    0.159451
    21  C   -0.298236
    22  C   -0.299684
    23  C   -0.475733
    24  H    0.149739
    25  H    0.149584
    26  H    0.152116
    27  H    0.151907
    28  H    0.155172
    29  H    0.155204
    30  H    0.160333
    31  C   -0.298668
    32  C   -0.299637
    33  C   -0.481295
    34  H    0.149878
    35  H    0.149195
    36  H    0.152030
    37  H    0.151907
    38  H    0.154199
    39  H    0.162624
    40  H    0.160662
 Sum of Mulliken charges =  -0.00000

 Dipole moment (field-independent basis, Debye):
    X=             -0.0301    Y=             -0.0131    Z=              0.0067  Tot=              0.0335
 Quadrupole moment (field-independent basis, Debye-Ang):
   XX=            -85.5995   YY=            -86.1218   ZZ=            -83.1512
   XY=              0.5010   XZ=             -0.6026   YZ=              0.3080

 Normal termination of Gaussian 16 at Wed May  5 23:14:27 2021.
