 Gaussian 16, Revision A.03,
 Gaussian 16:  EM64L-G16RevA.03 25-Dec-2016

 -------------
 #p 6-31g* mp2
 -------------

 ------------------------------------------------------
 Input file generated by CHIRIPA (05-May-2021 14:55:23)
 ------------------------------------------------------
 Symbolic Z-matrix:
 Charge =  0 Multiplicity = 1

                         Standard orientation:
 ---------------------------------------------------------------------
 Center     Atomic      Atomic             Coordinates (Angstroms)
 Number     Number       Type             X           Y           Z
 ---------------------------------------------------------------------
      1          6           0        3.282689    2.634903    0.214012
      2          6           0        2.525093    1.868806    1.106012
      3          6           0        2.481450    0.476549    0.986576
      4          6           0        3.210809   -0.119370   -0.041142
      5          6           0        3.974927    0.616557   -0.945479
      6          6           0        4.003917    2.007440   -0.807087
      7          1           0        3.310901    3.715908    0.314155
      8          1           0        1.963981    2.353397    1.899970
      9          1           0        1.903156   -0.140675    1.663354
     10          1           0        4.523762    0.104998   -1.726827
     11          1           0        4.593136    2.599872   -1.501270
     12          7           0        3.172363   -1.592562   -0.177618
     13          8           0        3.823802   -2.093510   -1.091574
     14          8           0        2.491517   -2.218407    0.631953
     15          6           0       -3.614606   -0.695011    0.228049
     16          6           0       -2.170284   -0.193776    0.254224
     17          6           0       -1.175069   -1.279597    0.664511
     18          1           0       -3.880065   -1.081180    1.221704
     19          1           0       -3.688558   -1.542980   -0.466842
     20          1           0       -2.099366    0.653879    0.947816
     21          1           0       -1.908295    0.191420   -0.739556
     22          1           0       -1.216462   -2.123206   -0.032060
     23          1           0       -1.408619   -1.658120    1.664898
     24          1           0       -0.148736   -0.899656    0.676598
     25          6           0       -4.621288    0.379030   -0.180307
     26          6           0       -6.065609   -0.122205   -0.206483
     27          6           0       -7.060824    0.963615   -0.616769
     28          1           0       -4.547336    1.226999    0.514584
     29          1           0       -4.355829    0.765198   -1.173962
     30          1           0       -6.327599   -0.507402    0.787298
     31          1           0       -6.136528   -0.969860   -0.900074
     32          1           0       -6.827274    1.342138   -1.617157
     33          1           0       -7.019432    1.807224    0.079803
     34          1           0       -8.087157    0.583675   -0.628857
 ---------------------------------------------------------------------

 SCF Done:  E(RHF) =  -669.535190947     A.U. after   15 cycles
 E2 =    -0.2092035922D+01 EUMP2 =    -0.67162722686959D+03

 The electronic state is 1-A.
 Alpha  occ. eigenvalues --  -20.60833 -20.60815 -15.85860 -11.31240 -11.27801
 Alpha  occ. eigenvalues --  -11.27789 -11.27544 -11.26825 -11.26815 -11.21553
 Alpha  occ. eigenvalues --  -11.21467 -11.21338 -11.21241 -11.21059 -11.20657
 Alpha  occ. eigenvalues --   -1.59890  -1.39445  -1.19413  -1.08803  -1.08334
 Alpha  occ. eigenvalues --   -1.04817  -1.03405  -0.95845  -0.95627  -0.86848
 Alpha  occ. eigenvalues --   -0.86209  -0.82467  -0.79469  -0.78153  -0.77516
 Alpha  occ. eigenvalues --   -0.72082  -0.71210  -0.70526  -0.65064  -0.64968
 Alpha  occ. eigenvalues --   -0.64828  -0.62203  -0.60803  -0.59207  -0.57464
 Alpha  occ. eigenvalues --   -0.55316  -0.55111  -0.53182  -0.52979  -0.52425
 Alpha  occ. eigenvalues --   -0.52213  -0.49763  -0.48845  -0.48839  -0.47777
 Alpha  occ. eigenvalues --   -0.46514  -0.45685  -0.45625  -0.44861  -0.43599
 Alpha  occ. eigenvalues --   -0.37385  -0.36401
 Alpha virt. eigenvalues --    0.04987   0.11118   0.16499   0.21205   0.22966
 Alpha virt. eigenvalues --    0.24370   0.26707   0.26972   0.27592   0.27821
 Alpha virt. eigenvalues --    0.28872   0.30557   0.31565   0.31682   0.31977

 Mulliken charges:
               1
     1  C   -0.170770
     2  C   -0.219193
     3  C   -0.172377
     4  C    0.159614
     5  C   -0.171083
     6  C   -0.218153
     7  H    0.225855
     8  H    0.224002
     9  H    0.277527
    10  H    0.275734
    11  H    0.223681
    12  N    0.488271
    13  O   -0.459877
    14  O   -0.459164
    15  C   -0.298218
    16  C   -0.299882
    17  C   -0.477974
    18  H    0.149558
    19  H    0.151584
    20  H    0.144727
    21  H    0.151053
    22  H    0.162463
    23  H    0.153865
    24  H    0.160871
    25  C   -0.297754
    26  C   -0.299612
    27  C   -0.475574
    28  H    0.147363
    29  H    0.149134
    30  H    0.151988
    31  H    0.152857
    32  H    0.154900
    33  H    0.154196
    34  H    0.160389
 Sum of Mulliken charges =  -0.00000

 Dipole moment (field-independent basis, Debye):
    X=              0.2373    Y=              5.1126    Z=              0.4483  Tot=              5.1377
 Quadrupole moment (field-independent basis, Debye-Ang):
   XX=            -93.3811   YY=            -96.7816   ZZ=            -91.1427
   XY=             17.8113   XZ=             -1.5749   YZ=             -0.0569

 Normal termination of Gaussian 16 at Thu May  6 01:31:10 2021.
