 Gaussian 16, Revision A.03,
 Gaussian 16:  EM64L-G16RevA.03 25-Dec-2016

 -------------
 #p 6-31g* mp2
 -------------

 ------------------------------------------------------
 Input file generated by CHIRIPA (05-May-2021 14:57:21)
 ------------------------------------------------------
 Symbolic Z-matrix:
 Charge =  0 Multiplicity = 1

                         Standard orientation:
 ---------------------------------------------------------------------
 Center     Atomic      Atomic             Coordinates (Angstroms)
 Number     Number       Type             X           Y           Z
 ---------------------------------------------------------------------
      1          6           0       -1.362614   -1.619402    0.913898
      2          6           0       -2.423964   -1.272022    1.756147
      3          6           0       -3.505130   -0.532335    1.267792
      4          6           0       -3.492269   -0.154917   -0.074102
      5          6           0       -2.449599   -0.485660   -0.938243
      6          6           0       -1.378790   -1.225806   -0.428243
      7          1           0       -0.526760   -2.194187    1.301671
      8          1           0       -2.414081   -1.576332    2.798904
      9          1           0       -4.339834   -0.249853    1.897786
     10          1           0       -2.487693   -0.167953   -1.973148
     11          1           0       -0.555898   -1.494165   -1.084656
     12          7           0       -4.631369    0.628399   -0.602559
     13          8           0       -4.596195    0.948783   -1.788625
     14          8           0       -5.537800    0.907146    0.179310
     15          6           0        4.062297   -2.051496   -0.593593
     16          6           0        2.723147   -1.810341   -0.269487
     17          6           0        2.292094   -0.520300    0.053829
     18          6           0        3.231273    0.509806    0.043136
     19          6           0        4.572299    0.301379   -0.275451
     20          6           0        4.980979   -0.996726   -0.595536
     21          1           0        4.388459   -3.056762   -0.843497
     22          1           0        2.007478   -2.627567   -0.267167
     23          1           0        1.261367   -0.305511    0.308559
     24          1           0        5.262447    1.136288   -0.269230
     25          1           0        6.021609   -1.181064   -0.846841
     26          7           0        2.786780    1.879783    0.383707
     27          8           0        3.633840    2.770204    0.367081
     28          8           0        1.599741    2.037210    0.660822
 ---------------------------------------------------------------------

 SCF Done:  E(RHF) =  -868.335857996     A.U. after   16 cycles
 E2 =    -0.2602056097D+01 EUMP2 =    -0.87093791409299D+03

 The electronic state is 1-A.
 Alpha  occ. eigenvalues --  -20.61244 -20.61238 -20.60815 -20.60810 -15.86305
 Alpha  occ. eigenvalues --  -15.85874 -11.31844 -11.31403 -11.28449 -11.28427
 Alpha  occ. eigenvalues --  -11.28249 -11.28021 -11.27968 -11.27915 -11.27633
 Alpha  occ. eigenvalues --  -11.27446 -11.27170 -11.27047  -1.60318  -1.59883
 Alpha  occ. eigenvalues --   -1.39865  -1.39433  -1.20062  -1.19615  -1.09414
 Alpha  occ. eigenvalues --   -1.09026  -1.05528  -1.05036  -0.96220  -0.95814
 Alpha  occ. eigenvalues --   -0.86897  -0.86473  -0.83067  -0.82635  -0.78107
 Alpha  occ. eigenvalues --   -0.77607  -0.72521  -0.72101  -0.71650  -0.71218
 Alpha  occ. eigenvalues --   -0.71195  -0.70757  -0.65747  -0.65551  -0.65295
 Alpha  occ. eigenvalues --   -0.65112  -0.62898  -0.62280  -0.55982  -0.55655
 Alpha  occ. eigenvalues --   -0.53817  -0.53762  -0.53190  -0.53134  -0.49293
 Alpha  occ. eigenvalues --   -0.49261  -0.48869  -0.48835  -0.45233  -0.44802
 Alpha  occ. eigenvalues --   -0.38033  -0.37635  -0.37138  -0.36589
 Alpha virt. eigenvalues --    0.04427   0.04913   0.10459   0.10926   0.15803
 Alpha virt. eigenvalues --    0.16328   0.18553   0.22059   0.25118   0.27305
 Alpha virt. eigenvalues --    0.27704   0.29507   0.30588   0.31139   0.32254

 Mulliken charges:
               1
     1  C   -0.175011
     2  C   -0.215579
     3  C   -0.168312
     4  C    0.160424
     5  C   -0.166116
     6  C   -0.223956
     7  H    0.219944
     8  H    0.225532
     9  H    0.277958
    10  H    0.278261
    11  H    0.220230
    12  N    0.488192
    13  O   -0.458686
    14  O   -0.458825
    15  C   -0.169555
    16  C   -0.226487
    17  C   -0.180905
    18  C    0.158264
    19  C   -0.168520
    20  C   -0.218850
    21  H    0.227448
    22  H    0.215541
    23  H    0.283321
    24  H    0.278366
    25  H    0.226296
    26  N    0.487145
    27  O   -0.458217
    28  O   -0.457904
 Sum of Mulliken charges =  -0.00000

 Dipole moment (field-independent basis, Debye):
    X=              5.4691    Y=             -7.3435    Z=              0.6799  Tot=              9.1815
 Quadrupole moment (field-independent basis, Debye-Ang):
   XX=           -116.0892   YY=           -109.9181   ZZ=           -101.8069
   XY=             -3.9932   XZ=            -13.8742   YZ=             -1.2800

 Normal termination of Gaussian 16 at Thu May  6 11:10:07 2021.
