 Gaussian 16, Revision A.03,
 Gaussian 16:  EM64L-G16RevA.03 25-Dec-2016

 -------------
 #p 6-31g* mp2
 -------------

 ------------------------------------------------------
 Input file generated by CHIRIPA (05-May-2021 14:53:17)
 ------------------------------------------------------
 Symbolic Z-matrix:
 Charge =  0 Multiplicity = 1

                         Standard orientation:
 ---------------------------------------------------------------------
 Center     Atomic      Atomic             Coordinates (Angstroms)
 Number     Number       Type             X           Y           Z
 ---------------------------------------------------------------------
      1          6           0        3.373853   -0.313441    0.351369
      2          6           0        3.836139   -1.292323   -0.728476
      3          6           0        4.226683   -2.657318   -0.160975
      4          1           0        4.175895   -0.188490    1.091680
      5          1           0        2.518346   -0.747046    0.887550
      6          1           0        4.689646   -0.856403   -1.263375
      7          1           0        3.032975   -1.414811   -1.466406
      8          1           0        3.377983   -3.116734    0.355984
      9          1           0        5.044067   -2.555154    0.560168
     10          1           0        4.553988   -3.341446   -0.950089
     11          6           0        2.980031    1.055563   -0.200411
     12          6           0        2.517744    2.034445    0.879435
     13          6           0        2.127200    3.399440    0.311933
     14          1           0        3.835537    1.489168   -0.736592
     15          1           0        2.177988    0.930612   -0.940722
     16          1           0        3.320909    2.156933    1.617364
     17          1           0        1.664237    1.598525    1.414333
     18          1           0        1.309816    3.297276   -0.409210
     19          1           0        2.975900    3.858856   -0.205025
     20          1           0        1.799895    4.083568    1.101047
     21          6           0       -2.941898    2.160499   -0.446254
     22          6           0       -1.644511    1.659588   -0.595905
     23          6           0       -1.378089    0.303636   -0.383864
     24          6           0       -2.437523   -0.526786   -0.021527
     25          6           0       -3.740851   -0.057755    0.135431
     26          6           0       -3.984090    1.301742   -0.081706
     27          1           0       -3.139858    3.215212   -0.612952
     28          1           0       -0.833183    2.324181   -0.878937
     29          1           0       -0.383145   -0.110658   -0.492786
     30          1           0       -4.529087   -0.744791    0.418419
     31          1           0       -4.992649    1.687979    0.035241
     32          7           0       -2.167745   -1.964148    0.205649
     33          8           0       -3.118446   -2.675036    0.524152
     34          8           0       -1.010700   -2.352649    0.060906
 ---------------------------------------------------------------------

 SCF Done:  E(RHF) =  -669.535564507     A.U. after   15 cycles
 E2 =    -0.2092289500D+01 EUMP2 =    -0.67162785400694D+03

 The electronic state is 1-A.
 Alpha  occ. eigenvalues --  -20.60820 -20.60812 -15.85869 -11.31212 -11.27779
 Alpha  occ. eigenvalues --  -11.27774 -11.27509 -11.26791 -11.26763 -11.22153
 Alpha  occ. eigenvalues --  -11.21895 -11.21860 -11.21491 -11.21423 -11.20717
 Alpha  occ. eigenvalues --   -1.59892  -1.39446  -1.19382  -1.08781  -1.08707
 Alpha  occ. eigenvalues --   -1.04784  -1.03753  -0.96226  -0.95619  -0.87240
 Alpha  occ. eigenvalues --   -0.86180  -0.82455  -0.79864  -0.78440  -0.77508
 Alpha  occ. eigenvalues --   -0.72089  -0.71213  -0.70494  -0.65395  -0.65026
 Alpha  occ. eigenvalues --   -0.64813  -0.62164  -0.61091  -0.59636  -0.57802
 Alpha  occ. eigenvalues --   -0.55570  -0.55276  -0.53109  -0.52941  -0.52892
 Alpha  occ. eigenvalues --   -0.52560  -0.50154  -0.48845  -0.48841  -0.48152
 Alpha  occ. eigenvalues --   -0.46914  -0.45996  -0.45858  -0.44855  -0.44009
 Alpha  occ. eigenvalues --   -0.37359  -0.36379
 Alpha virt. eigenvalues --    0.05010   0.11254   0.16457   0.18193   0.22620
 Alpha virt. eigenvalues --    0.23667   0.25446   0.26036   0.27290   0.28562
 Alpha virt. eigenvalues --    0.29558   0.31044   0.31385   0.31986   0.32876

 Mulliken charges:
               1
     1  C   -0.302178
     2  C   -0.299096
     3  C   -0.477641
     4  H    0.150704
     5  H    0.157422
     6  H    0.149680
     7  H    0.153698
     8  H    0.164817
     9  H    0.152957
    10  H    0.160643
    11  C   -0.299494
    12  C   -0.302666
    13  C   -0.477150
    14  H    0.152286
    15  H    0.140022
    16  H    0.156859
    17  H    0.153362
    18  H    0.143704
    19  H    0.159627
    20  H    0.162872
    21  C   -0.172260
    22  C   -0.224074
    23  C   -0.178388
    24  C    0.159054
    25  C   -0.170570
    26  C   -0.218639
    27  H    0.226399
    28  H    0.232231
    29  H    0.280114
    30  H    0.275607
    31  H    0.223569
    32  N    0.488145
    33  O   -0.460009
    34  O   -0.461606
 Sum of Mulliken charges =  -0.00000

 Dipole moment (field-independent basis, Debye):
    X=             -0.8555    Y=              4.9683    Z=             -0.7023  Tot=              5.0901
 Quadrupole moment (field-independent basis, Debye-Ang):
   XX=            -84.1280   YY=           -101.3726   ZZ=            -95.4014
   XY=            -10.6539   XZ=              1.0833   YZ=              0.5254

 Normal termination of Gaussian 16 at Thu May  6 01:11:31 2021.
