 Gaussian 16, Revision A.03,
 Gaussian 16:  EM64L-G16RevA.03 25-Dec-2016

 -------------
 #p 6-31g* mp2
 -------------

 ------------------------------------------------------
 Input file generated by CHIRIPA (05-May-2021 14:55:24)
 ------------------------------------------------------
 Symbolic Z-matrix:
 Charge =  0 Multiplicity = 1

                         Standard orientation:
 ---------------------------------------------------------------------
 Center     Atomic      Atomic             Coordinates (Angstroms)
 Number     Number       Type             X           Y           Z
 ---------------------------------------------------------------------
      1          6           0        3.470938   -0.051676   -1.727674
      2          6           0        2.859237   -1.302857   -1.597707
      3          6           0        2.033089   -1.579124   -0.504225
      4          6           0        1.839682   -0.576545    0.444837
      5          6           0        2.435079    0.679837    0.343369
      6          6           0        3.257284    0.933939   -0.758430
      7          1           0        4.111178    0.154325   -2.580347
      8          1           0        3.023364   -2.070203   -2.348898
      9          1           0        1.547128   -2.539098   -0.378885
     10          1           0        2.252502    1.424704    1.108389
     11          1           0        3.731039    1.906529   -0.856772
     12          7           0        0.967163   -0.857284    1.606860
     13          8           0        0.812785    0.042926    2.429311
     14          8           0        0.454182   -1.972222    1.673199
     15          6           0       -2.196715    1.181199    0.138260
     16          6           0       -1.356153    2.217697   -0.608139
     17          6           0       -0.678000    3.215907    0.330733
     18          1           0       -2.958274    1.698765    0.737509
     19          1           0       -1.554783    0.640847    0.847724
     20          1           0       -1.999190    2.754986   -1.316970
     21          1           0       -0.596630    1.697596   -1.205829
     22          1           0       -0.013788    2.697346    1.029672
     23          1           0       -1.424317    3.760743    0.917901
     24          1           0       -0.082341    3.947726   -0.223786
     25          6           0       -2.881003    0.176307   -0.786764
     26          6           0       -3.721565   -0.860191   -0.040366
     27          6           0       -4.399717   -1.858401   -0.979237
     28          1           0       -3.522935    0.716658   -1.496229
     29          1           0       -2.119444   -0.341259   -1.386013
     30          1           0       -4.481089   -0.340089    0.557325
     31          1           0       -3.078528   -1.397479    0.668466
     32          1           0       -3.653401   -2.403237   -1.566404
     33          1           0       -5.063930   -1.339839   -1.678176
     34          1           0       -4.995376   -2.590220   -0.424718
 ---------------------------------------------------------------------

 SCF Done:  E(RHF) =  -669.536201402     A.U. after   15 cycles
 E2 =    -0.2093953028D+01 EUMP2 =    -0.67163015443069D+03

 The electronic state is 1-A.
 Alpha  occ. eigenvalues --  -20.61065 -20.61059 -15.86064 -11.31350 -11.27907
 Alpha  occ. eigenvalues --  -11.27900 -11.27630 -11.26898 -11.26888 -11.21265
 Alpha  occ. eigenvalues --  -11.20928 -11.20863 -11.20788 -11.20737 -11.20574
 Alpha  occ. eigenvalues --   -1.60117  -1.39672  -1.19514  -1.08925  -1.07914
 Alpha  occ. eigenvalues --   -1.04900  -1.03065  -0.95778  -0.95528  -0.86559
 Alpha  occ. eigenvalues --   -0.86299  -0.82607  -0.79126  -0.77730  -0.77641
 Alpha  occ. eigenvalues --   -0.72292  -0.71455  -0.70623  -0.65168  -0.64911
 Alpha  occ. eigenvalues --   -0.64528  -0.62266  -0.60461  -0.58901  -0.57126
 Alpha  occ. eigenvalues --   -0.55414  -0.54838  -0.53218  -0.52988  -0.52253
 Alpha  occ. eigenvalues --   -0.51941  -0.49500  -0.49062  -0.49022  -0.47448
 Alpha  occ. eigenvalues --   -0.46199  -0.45363  -0.45246  -0.44755  -0.43309
 Alpha  occ. eigenvalues --   -0.37483  -0.36481
 Alpha virt. eigenvalues --    0.04799   0.11090   0.16296   0.21009   0.23131
 Alpha virt. eigenvalues --    0.24523   0.26466   0.27059   0.27663   0.28234
 Alpha virt. eigenvalues --    0.29126   0.30355   0.31493   0.31974   0.32308

 Mulliken charges:
               1
     1  C   -0.170305
     2  C   -0.218547
     3  C   -0.171088
     4  C    0.157187
     5  C   -0.169453
     6  C   -0.219332
     7  H    0.226404
     8  H    0.224107
     9  H    0.275826
    10  H    0.277802
    11  H    0.224710
    12  N    0.487417
    13  O   -0.458924
    14  O   -0.458277
    15  C   -0.306290
    16  C   -0.300401
    17  C   -0.481697
    18  H    0.150505
    19  H    0.163386
    20  H    0.149816
    21  H    0.147849
    22  H    0.162375
    23  H    0.157681
    24  H    0.152206
    25  C   -0.296910
    26  C   -0.302992
    27  C   -0.474856
    28  H    0.146195
    29  H    0.144677
    30  H    0.151211
    31  H    0.164645
    32  H    0.152379
    33  H    0.152198
    34  H    0.160495
 Sum of Mulliken charges =  -0.00000

 Dipole moment (field-independent basis, Debye):
    X=              3.2006    Y=              0.8606    Z=             -3.9207  Tot=              5.1339
 Quadrupole moment (field-independent basis, Debye-Ang):
   XX=            -83.6511   YY=            -92.3657   ZZ=            -98.7492
   XY=              0.0485   XZ=             -6.7879   YZ=              4.2940

 Normal termination of Gaussian 16 at Thu May  6 20:54:49 2021.
