 Gaussian 16, Revision A.03,
 Gaussian 16:  EM64L-G16RevA.03 25-Dec-2016

 -------------
 #p 6-31g* mp2
 -------------

 ------------------------------------------------------
 Input file generated by CHIRIPA (05-May-2021 14:55:20)
 ------------------------------------------------------
 Symbolic Z-matrix:
 Charge =  0 Multiplicity = 1

                         Standard orientation:
 ---------------------------------------------------------------------
 Center     Atomic      Atomic             Coordinates (Angstroms)
 Number     Number       Type             X           Y           Z
 ---------------------------------------------------------------------
      1          6           0       -0.665665    2.191447   -0.269093
      2          6           0       -0.742998    1.508322    0.949053
      3          6           0       -1.757673    0.573666    1.175772
      4          6           0       -2.682456    0.345765    0.157869
      5          6           0       -2.632008    1.010354   -1.066494
      6          6           0       -1.608754    1.940725   -1.271212
      7          1           0        0.125891    2.915846   -0.436669
      8          1           0       -0.011955    1.701011    1.729112
      9          1           0       -1.841013    0.030674    2.109384
     10          1           0       -3.375210    0.796931   -1.825124
     11          1           0       -1.551157    2.469767   -2.218230
     12          7           0       -3.761188   -0.641445    0.386241
     13          8           0       -4.563714   -0.824208   -0.526549
     14          8           0       -3.783747   -1.213764    1.473706
     15          6           0        2.463371   -0.738064    0.002193
     16          6           0        1.743414   -1.667691   -0.975272
     17          6           0        0.258533   -1.832163   -0.649890
     18          1           0        2.351340   -1.130937    1.022019
     19          1           0        1.973372    0.245378   -0.009493
     20          1           0        2.235483   -2.648675   -0.962769
     21          1           0        1.857335   -1.272662   -1.992912
     22          1           0       -0.252304   -0.864362   -0.681655
     23          1           0        0.127994   -2.248193    0.354340
     24          1           0       -0.236650   -2.500660   -1.361062
     25          6           0        3.948580   -0.563617   -0.309984
     26          6           0        4.668537    0.366010    0.667481
     27          6           0        6.153418    0.530483    0.342099
     28          1           0        4.438578   -1.547059   -0.298298
     29          1           0        4.060611   -0.170743   -1.329809
     30          1           0        4.554616   -0.029018    1.685120
     31          1           0        4.176468    1.346993    0.654978
     32          1           0        6.283957    0.946512   -0.662131
     33          1           0        6.664254   -0.437319    0.373864
     34          1           0        6.648601    1.198979    1.053271
 ---------------------------------------------------------------------

 SCF Done:  E(RHF) =  -669.533449216     A.U. after   15 cycles
 E2 =    -0.2095470714D+01 EUMP2 =    -0.67162891992998D+03

 The electronic state is 1-A.
 Alpha  occ. eigenvalues --  -20.60787 -20.60781 -15.85842 -11.31233 -11.27857
 Alpha  occ. eigenvalues --  -11.27782 -11.27622 -11.26906 -11.26829 -11.22114
 Alpha  occ. eigenvalues --  -11.21793 -11.21757 -11.21700 -11.21500 -11.20892
 Alpha  occ. eigenvalues --   -1.59859  -1.39412  -1.19479  -1.08854  -1.08768
 Alpha  occ. eigenvalues --   -1.04869  -1.03803  -0.96249  -0.95659  -0.87268
 Alpha  occ. eigenvalues --   -0.86248  -0.82486  -0.79903  -0.78618  -0.77523
 Alpha  occ. eigenvalues --   -0.72063  -0.71183  -0.70561  -0.65439  -0.65098
 Alpha  occ. eigenvalues --   -0.64848  -0.62198  -0.61248  -0.59634  -0.57919
 Alpha  occ. eigenvalues --   -0.55677  -0.55364  -0.53605  -0.52944  -0.52911
 Alpha  occ. eigenvalues --   -0.52342  -0.50093  -0.48824  -0.48812  -0.48110
 Alpha  occ. eigenvalues --   -0.46879  -0.46117  -0.45987  -0.44807  -0.44076
 Alpha  occ. eigenvalues --   -0.37435  -0.36422
 Alpha virt. eigenvalues --    0.04986   0.11086   0.16423   0.20867   0.22727
 Alpha virt. eigenvalues --    0.24168   0.25970   0.26464   0.27593   0.27961
 Alpha virt. eigenvalues --    0.28845   0.30824   0.31188   0.31592   0.31903

 Mulliken charges:
               1
     1  C   -0.173030
     2  C   -0.214833
     3  C   -0.172558
     4  C    0.161147
     5  C   -0.172592
     6  C   -0.217789
     7  H    0.226289
     8  H    0.225340
     9  H    0.275849
    10  H    0.276322
    11  H    0.224269
    12  N    0.488596
    13  O   -0.460544
    14  O   -0.460172
    15  C   -0.299978
    16  C   -0.298155
    17  C   -0.484102
    18  H    0.148032
    19  H    0.144368
    20  H    0.152712
    21  H    0.149601
    22  H    0.166893
    23  H    0.153912
    24  H    0.161463
    25  C   -0.298028
    26  C   -0.298678
    27  C   -0.475656
    28  H    0.151949
    29  H    0.148857
    30  H    0.152294
    31  H    0.145391
    32  H    0.155163
    33  H    0.157275
    34  H    0.160392
 Sum of Mulliken charges =  -0.00000

 Dipole moment (field-independent basis, Debye):
    X=              3.7002    Y=              3.4831    Z=             -0.7994  Tot=              5.1441
 Quadrupole moment (field-independent basis, Debye-Ang):
   XX=           -116.3017   YY=            -92.3143   ZZ=            -90.5897
   XY=             -8.9401   XZ=              4.9435   YZ=             -1.2332

 Normal termination of Gaussian 16 at Thu May  6 01:23:30 2021.
