 Gaussian 16, Revision A.03,
 Gaussian 16:  EM64L-G16RevA.03 25-Dec-2016

 -------------
 #p 6-31g* mp2
 -------------

 ------------------------------------------------------
 Input file generated by CHIRIPA (05-May-2021 14:53:14)
 ------------------------------------------------------
 Symbolic Z-matrix:
 Charge =  0 Multiplicity = 1

                         Standard orientation:
 ---------------------------------------------------------------------
 Center     Atomic      Atomic             Coordinates (Angstroms)
 Number     Number       Type             X           Y           Z
 ---------------------------------------------------------------------
      1          6           0       -3.778566    0.015803    0.295314
      2          6           0       -3.719891   -1.313035   -0.458829
      3          6           0       -4.764758   -2.316684    0.029777
      4          1           0       -3.635006   -0.172110    1.368172
      5          1           0       -4.782886    0.447813    0.185299
      6          1           0       -2.715563   -1.741737   -0.348576
      7          1           0       -3.863416   -1.121916   -1.530039
      8          1           0       -5.774732   -1.913175   -0.095656
      9          1           0       -4.620357   -2.536518    1.092520
     10          1           0       -4.705043   -3.259493   -0.522858
     11          6           0       -2.740080    1.029522   -0.181809
     12          6           0       -2.798755    2.358360    0.572334
     13          6           0       -1.753888    3.362009    0.083728
     14          1           0       -1.735760    0.597512   -0.071794
     15          1           0       -2.883640    1.217435   -1.254667
     16          1           0       -2.655230    2.167241    1.643544
     17          1           0       -3.803083    2.787062    0.462081
     18          1           0       -1.898289    3.581843   -0.979015
     19          1           0       -0.743914    2.958500    0.209161
     20          1           0       -1.813603    4.304818    0.636363
     21          6           0        1.479291   -2.691592    0.074112
     22          6           0        0.721579   -1.584501   -0.321795
     23          6           0        1.302377   -0.314686   -0.391024
     24          6           0        2.649505   -0.187593   -0.055789
     25          6           0        3.430769   -1.271323    0.342260
     26          6           0        2.829088   -2.531752    0.404293
     27          1           0        1.020002   -3.674369    0.125095
     28          1           0       -0.326903   -1.705660   -0.578799
     29          1           0        0.739021    0.559409   -0.694348
     30          1           0        4.473714   -1.119205    0.592346
     31          1           0        3.419973   -3.389750    0.712093
     32          7           0        3.275423    1.151735   -0.125270
     33          8           0        4.464132    1.237244    0.175228
     34          8           0        2.565459    2.090630   -0.478912
 ---------------------------------------------------------------------

 SCF Done:  E(RHF) =  -669.535325293     A.U. after   15 cycles
 E2 =    -0.2093013966D+01 EUMP2 =    -0.67162833925957D+03

 The electronic state is 1-A.
 Alpha  occ. eigenvalues --  -20.60784 -20.60778 -15.85828 -11.31173 -11.27748
 Alpha  occ. eigenvalues --  -11.27716 -11.27480 -11.26761 -11.26712 -11.22506
 Alpha  occ. eigenvalues --  -11.22051 -11.21992 -11.21828 -11.21788 -11.20973
 Alpha  occ. eigenvalues --   -1.59852  -1.39407  -1.19346  -1.09029  -1.08744
 Alpha  occ. eigenvalues --   -1.04747  -1.04013  -0.96422  -0.95583  -0.87439
 Alpha  occ. eigenvalues --   -0.86147  -0.82422  -0.80112  -0.78872  -0.77447
 Alpha  occ. eigenvalues --   -0.72046  -0.71172  -0.70461  -0.65710  -0.64995
 Alpha  occ. eigenvalues --   -0.64756  -0.62086  -0.61399  -0.59843  -0.58041
 Alpha  occ. eigenvalues --   -0.55694  -0.55254  -0.53113  -0.53081  -0.52899
 Alpha  occ. eigenvalues --   -0.52782  -0.50376  -0.48812  -0.48796  -0.48381
 Alpha  occ. eigenvalues --   -0.47146  -0.46345  -0.46261  -0.44811  -0.44284
 Alpha  occ. eigenvalues --   -0.37328  -0.36338
 Alpha virt. eigenvalues --    0.05029   0.11273   0.16461   0.19331   0.22690
 Alpha virt. eigenvalues --    0.23005   0.24727   0.26386   0.26706   0.27861
 Alpha virt. eigenvalues --    0.29483   0.30937   0.31328   0.31528   0.32405

 Mulliken charges:
               1
     1  C   -0.298061
     2  C   -0.304884
     3  C   -0.475569
     4  H    0.151723
     5  H    0.153785
     6  H    0.143177
     7  H    0.154791
     8  H    0.159187
     9  H    0.156445
    10  H    0.160053
    11  C   -0.303690
    12  C   -0.300376
    13  C   -0.481345
    14  H    0.142404
    15  H    0.151592
    16  H    0.153211
    17  H    0.153124
    18  H    0.155639
    19  H    0.165566
    20  H    0.163716
    21  C   -0.173047
    22  C   -0.228100
    23  C   -0.179075
    24  C    0.158765
    25  C   -0.170823
    26  C   -0.218687
    27  H    0.225869
    28  H    0.236818
    29  H    0.281965
    30  H    0.275479
    31  H    0.223408
    32  N    0.488593
    33  O   -0.460089
    34  O   -0.461562
 Sum of Mulliken charges =  -0.00000

 Dipole moment (field-independent basis, Debye):
    X=             -2.3295    Y=             -4.5906    Z=              0.2815  Tot=              5.1555
 Quadrupole moment (field-independent basis, Debye-Ang):
   XX=           -102.0906   YY=            -92.8461   ZZ=            -94.7226
   XY=            -15.0879   XZ=              2.8537   YZ=             -0.4971

 Normal termination of Gaussian 16 at Thu May  6 02:38:01 2021.
