 Gaussian 16, Revision A.03,
 Gaussian 16:  EM64L-G16RevA.03 25-Dec-2016

 -------------
 #p 6-31g* mp2
 -------------

 ------------------------------------------------------
 Input file generated by CHIRIPA (05-May-2021 14:51:14)
 ------------------------------------------------------
 Symbolic Z-matrix:
 Charge =  0 Multiplicity = 1

                         Standard orientation:
 ---------------------------------------------------------------------
 Center     Atomic      Atomic             Coordinates (Angstroms)
 Number     Number       Type             X           Y           Z
 ---------------------------------------------------------------------
      1          6           0        3.402251   -0.593527    0.034304
      2          6           0        4.451486   -1.664637   -0.265386
      3          6           0        3.941639   -3.081769   -0.001593
      4          1           0        3.086445   -0.681872    1.082830
      5          1           0        2.509723   -0.782997   -0.577979
      6          1           0        5.342296   -1.472401    0.346266
      7          1           0        4.764971   -1.573609   -1.313268
      8          1           0        3.066195   -3.298016   -0.622428
      9          1           0        3.646801   -3.196232    1.046534
     10          1           0        4.707694   -3.831623   -0.222361
     11          6           0        3.897048    0.828408   -0.224546
     12          6           0        2.847813    1.899519    0.075143
     13          6           0        3.357660    3.316651   -0.188650
     14          1           0        4.789575    1.017878    0.387737
     15          1           0        4.212854    0.916753   -1.273072
     16          1           0        2.534328    1.808491    1.123026
     17          1           0        1.957002    1.707282   -0.536508
     18          1           0        3.652497    3.431114   -1.236777
     19          1           0        4.233103    3.532897    0.432186
     20          1           0        2.591604    4.066505    0.032118
     21          6           0       -4.286805   -0.426566   -0.191069
     22          6           0       -5.540762    0.403460    0.085761
     23          6           0       -6.807313   -0.227939   -0.493012
     24          1           0       -4.171597   -0.554418   -1.276115
     25          1           0       -4.421260   -1.432690    0.229682
     26          1           0       -5.403428    1.408152   -0.334180
     27          1           0       -5.652893    0.529513    1.170266
     28          1           0       -6.971839   -1.222422   -0.065769
     29          1           0       -6.720957   -0.338791   -1.578763
     30          1           0       -7.691689    0.381857   -0.283520
     31          6           0       -3.012492    0.191685    0.381311
     32          6           0       -1.758536   -0.638342    0.104482
     33          6           0       -0.491986   -0.006942    0.683254
     34          1           0       -2.878038    1.197809   -0.039440
     35          1           0       -3.127701    0.319537    1.466358
     36          1           0       -1.646405   -0.764394   -0.980024
     37          1           0       -1.895871   -1.643034    0.524422
     38          1           0       -0.578342    0.103909    1.769006
     39          1           0       -0.327460    0.987541    0.256011
     40          1           0        0.392391   -0.616738    0.473763
 ---------------------------------------------------------------------

 SCF Done:  E(RHF) =  -470.732204170     A.U. after   11 cycles
 E2 =    -0.1583649848D+01 EUMP2 =    -0.47231585401837D+03

 The electronic state is 1-A.
 Alpha  occ. eigenvalues --  -11.21599 -11.21580 -11.21529 -11.21508 -11.21385
 Alpha  occ. eigenvalues --  -11.21368 -11.21325 -11.21307 -11.21084 -11.21056
 Alpha  occ. eigenvalues --  -11.21029 -11.20879  -1.08430  -1.08374  -1.03516
 Alpha  occ. eigenvalues --   -1.03469  -0.95981  -0.95912  -0.86982  -0.86950
 Alpha  occ. eigenvalues --   -0.79638  -0.79517  -0.78280  -0.78133  -0.65081
 Alpha  occ. eigenvalues --   -0.64992  -0.60959  -0.60832  -0.59341  -0.59324
 Alpha  occ. eigenvalues --   -0.57731  -0.57389  -0.55257  -0.55219  -0.52820
 Alpha  occ. eigenvalues --   -0.52567  -0.52448  -0.52211  -0.49956  -0.49852
 Alpha  occ. eigenvalues --   -0.48072  -0.47661  -0.46700  -0.46500  -0.45823
 Alpha  occ. eigenvalues --   -0.45734  -0.45691  -0.45560  -0.43790  -0.43583
 Alpha virt. eigenvalues --    0.22097   0.23110   0.24029   0.24107   0.26266
 Alpha virt. eigenvalues --    0.26384   0.26871   0.27390   0.27900   0.29372
 Alpha virt. eigenvalues --    0.30177   0.31383   0.31649   0.31793   0.32269

 Mulliken charges:
               1
     1  C   -0.302496
     2  C   -0.298703
     3  C   -0.476097
     4  H    0.150913
     5  H    0.152437
     6  H    0.151935
     7  H    0.151795
     8  H    0.154843
     9  H    0.155211
    10  H    0.160491
    11  C   -0.297947
    12  C   -0.302351
    13  C   -0.475731
    14  H    0.149254
    15  H    0.149088
    16  H    0.153402
    17  H    0.155869
    18  H    0.154670
    19  H    0.154900
    20  H    0.159873
    21  C   -0.298118
    22  C   -0.299578
    23  C   -0.475666
    24  H    0.149397
    25  H    0.149459
    26  H    0.151819
    27  H    0.151891
    28  H    0.155154
    29  H    0.155095
    30  H    0.160166
    31  C   -0.298335
    32  C   -0.299980
    33  C   -0.483547
    34  H    0.149226
    35  H    0.149534
    36  H    0.150694
    37  H    0.151458
    38  H    0.153576
    39  H    0.157214
    40  H    0.169185
 Sum of Mulliken charges =  -0.00000

 Dipole moment (field-independent basis, Debye):
    X=              0.0415    Y=             -0.0026    Z=              0.0069  Tot=              0.0421
 Quadrupole moment (field-independent basis, Debye-Ang):
   XX=            -85.8858   YY=            -85.8895   ZZ=            -83.2142
   XY=             -0.5232   XZ=             -0.0979   YZ=             -0.3624

 Normal termination of Gaussian 16 at Wed May  5 23:16:48 2021.
