 Gaussian 16, Revision A.03,
 Gaussian 16:  EM64L-G16RevA.03 25-Dec-2016

 -------------
 #p 6-31g* mp2
 -------------

 ------------------------------------------------------
 Input file generated by CHIRIPA (05-May-2021 14:51:13)
 ------------------------------------------------------
 Symbolic Z-matrix:
 Charge =  0 Multiplicity = 1

                         Standard orientation:
 ---------------------------------------------------------------------
 Center     Atomic      Atomic             Coordinates (Angstroms)
 Number     Number       Type             X           Y           Z
 ---------------------------------------------------------------------
      1          6           0       -1.324381   -1.164504   -0.219691
      2          6           0       -1.461500   -2.345410   -1.181277
      3          6           0       -0.110817   -2.928210   -1.598162
      4          1           0       -0.716573   -0.382044   -0.694317
      5          1           0       -0.773049   -1.489933    0.673350
      6          1           0       -2.013615   -2.018207   -2.071627
      7          1           0       -2.069213   -3.125070   -0.704381
      8          1           0        0.443133   -3.281495   -0.722417
      9          1           0        0.499047   -2.168343   -2.097431
     10          1           0       -0.232249   -3.771194   -2.285543
     11          6           0       -2.666099   -0.571069    0.206168
     12          6           0       -2.528981    0.609836    1.167753
     13          6           0       -3.879664    1.192636    1.584638
     14          1           0       -3.217432   -0.245641   -0.686874
     15          1           0       -3.273908   -1.353530    0.680793
     16          1           0       -1.921268    1.389497    0.690857
     17          1           0       -1.976866    0.282633    2.058103
     18          1           0       -4.489527    0.432769    2.083908
     19          1           0       -4.433613    1.545922    0.708893
     20          1           0       -3.758232    2.035620    2.272019
     21          6           0        2.458381    0.262539    0.057814
     22          6           0        2.731967   -0.171860    1.498104
     23          6           0        3.660109   -1.383882    1.583832
     24          1           0        2.017496   -0.578510   -0.494637
     25          1           0        3.412509    0.494588   -0.435327
     26          1           0        1.777500   -0.401693    1.988802
     27          1           0        3.172077    0.670380    2.047242
     28          1           0        4.626456   -1.162716    1.119225
     29          1           0        3.223956   -2.240879    1.060454
     30          1           0        3.842238   -1.677410    2.622355
     31          6           0        1.532099    1.473035   -0.044290
     32          6           0        1.258513    1.907433   -1.484581
     33          6           0        0.330371    3.119456   -1.570308
     34          1           0        0.577971    1.240985    0.448851
     35          1           0        1.972985    2.314083    0.508160
     36          1           0        0.818404    1.065194   -2.033718
     37          1           0        2.212981    2.137266   -1.975278
     38          1           0        0.766525    3.976453   -1.046930
     39          1           0       -0.635976    2.898290   -1.105701
     40          1           0        0.148243    3.412983   -2.608831
 ---------------------------------------------------------------------

 SCF Done:  E(RHF) =  -470.731720264     A.U. after   11 cycles
 E2 =    -0.1586970061D+01 EUMP2 =    -0.47231869032449D+03

 The electronic state is 1-A.
 Alpha  occ. eigenvalues --  -11.21694 -11.21687 -11.21630 -11.21539 -11.21478
 Alpha  occ. eigenvalues --  -11.21412 -11.21284 -11.21223 -11.21181 -11.21132
 Alpha  occ. eigenvalues --  -11.21129 -11.21030  -1.08593  -1.08328  -1.03628
 Alpha  occ. eigenvalues --   -1.03517  -0.96077  -0.95950  -0.87094  -0.86972
 Alpha  occ. eigenvalues --   -0.79715  -0.79577  -0.78428  -0.78146  -0.65500
 Alpha  occ. eigenvalues --   -0.64742  -0.61035  -0.60927  -0.59451  -0.59311
 Alpha  occ. eigenvalues --   -0.57714  -0.57542  -0.55374  -0.55247  -0.52767
 Alpha  occ. eigenvalues --   -0.52663  -0.52511  -0.52374  -0.50163  -0.49770
 Alpha  occ. eigenvalues --   -0.48139  -0.47861  -0.46924  -0.46550  -0.46339
 Alpha  occ. eigenvalues --   -0.45795  -0.45531  -0.45023  -0.43864  -0.43739
 Alpha virt. eigenvalues --    0.19653   0.21426   0.22868   0.23894   0.25392
 Alpha virt. eigenvalues --    0.26031   0.26861   0.27520   0.29121   0.30381
 Alpha virt. eigenvalues --    0.30712   0.31086   0.31629   0.31793   0.32402

 Mulliken charges:
               1
     1  C   -0.309780
     2  C   -0.299006
     3  C   -0.479146
     4  H    0.161305
     5  H    0.150260
     6  H    0.152092
     7  H    0.152290
     8  H    0.155435
     9  H    0.157175
    10  H    0.161194
    11  C   -0.297278
    12  C   -0.308079
    13  C   -0.475263
    14  H    0.149527
    15  H    0.150014
    16  H    0.158444
    17  H    0.152104
    18  H    0.155499
    19  H    0.155393
    20  H    0.160815
    21  C   -0.302975
    22  C   -0.300466
    23  C   -0.476178
    24  H    0.156368
    25  H    0.148820
    26  H    0.152428
    27  H    0.151664
    28  H    0.155237
    29  H    0.155328
    30  H    0.159774
    31  C   -0.308418
    32  C   -0.302801
    33  C   -0.479468
    34  H    0.159424
    35  H    0.150094
    36  H    0.151323
    37  H    0.153066
    38  H    0.156128
    39  H    0.157228
    40  H    0.160428
 Sum of Mulliken charges =  -0.00000

 Dipole moment (field-independent basis, Debye):
    X=             -0.0487    Y=             -0.0116    Z=             -0.0043  Tot=              0.0502
 Quadrupole moment (field-independent basis, Debye-Ang):
   XX=            -85.4138   YY=            -85.0014   ZZ=            -84.3726
   XY=              1.5624   XZ=              0.1644   YZ=             -0.4463

 Normal termination of Gaussian 16 at Thu May  6 00:49:05 2021.
