 Gaussian 16, Revision A.03,
 Gaussian 16:  EM64L-G16RevA.03 25-Dec-2016

 -------------
 #p 6-31g* mp2
 -------------

 ------------------------------------------------------
 Input file generated by CHIRIPA (05-May-2021 14:53:12)
 ------------------------------------------------------
 Symbolic Z-matrix:
 Charge =  0 Multiplicity = 1

                         Standard orientation:
 ---------------------------------------------------------------------
 Center     Atomic      Atomic             Coordinates (Angstroms)
 Number     Number       Type             X           Y           Z
 ---------------------------------------------------------------------
      1          6           0       -4.339740   -0.183819   -0.144394
      2          6           0       -4.198481   -1.584818    0.451621
      3          6           0       -5.447362   -2.442894    0.247180
      4          1           0       -5.207268    0.314888    0.309074
      5          1           0       -4.554828   -0.269857   -1.218512
      6          1           0       -3.982353   -1.496140    1.524020
      7          1           0       -3.331075   -2.080176   -0.003179
      8          1           0       -5.663224   -2.560992   -0.819617
      9          1           0       -6.318203   -1.973638    0.716259
     10          1           0       -5.324631   -3.440224    0.680921
     11          6           0       -3.099318    0.685966    0.051962
     12          6           0       -3.240577    2.086965   -0.544052
     13          6           0       -1.991696    2.945041   -0.339612
     14          1           0       -2.884230    0.772004    1.126080
     15          1           0       -2.231791    0.187259   -0.401506
     16          1           0       -4.107983    2.582323   -0.089252
     17          1           0       -3.456705    1.998287   -1.616452
     18          1           0       -1.120855    2.475785   -0.808691
     19          1           0       -1.775834    3.063139    0.727186
     20          1           0       -2.114428    3.942371   -0.773352
     21          6           0        5.409695   -0.482565   -0.085580
     22          6           0        4.601650   -0.934553   -1.134051
     23          6           0        3.213201   -0.781121   -1.077351
     24          6           0        2.663822   -0.168462    0.047870
     25          6           0        3.442229    0.292311    1.108560
     26          6           0        4.828430    0.128347    1.030411
     27          1           0        6.487404   -0.605845   -0.137957
     28          1           0        5.050318   -1.409364   -2.001978
     29          1           0        2.564106   -1.121817   -1.874859
     30          1           0        2.965981    0.761736    1.960762
     31          1           0        5.453503    0.480333    1.846154
     32          7           0        1.195123   -0.000456    0.119250
     33          8           0        0.735599    0.542583    1.121539
     34          8           0        0.531290   -0.414992   -0.828444
 ---------------------------------------------------------------------

 SCF Done:  E(RHF) =  -669.536803898     A.U. after   15 cycles
 E2 =    -0.2092274488D+01 EUMP2 =    -0.67162907838630D+03

 The electronic state is 1-A.
 Alpha  occ. eigenvalues --  -20.61131 -20.61124 -15.86123 -11.31395 -11.27946
 Alpha  occ. eigenvalues --  -11.27940 -11.27672 -11.26937 -11.26927 -11.20321
 Alpha  occ. eigenvalues --  -11.20084 -11.20012 -11.19915 -11.19432 -11.19295
 Alpha  occ. eigenvalues --   -1.60158  -1.39717  -1.19551  -1.08967  -1.06847
 Alpha  occ. eigenvalues --   -1.04938  -1.02086  -0.95815  -0.94525  -0.86341
 Alpha  occ. eigenvalues --   -0.85546  -0.82653  -0.78178  -0.77714  -0.76566
 Alpha  occ. eigenvalues --   -0.72332  -0.71463  -0.70659  -0.65207  -0.64940
 Alpha  occ. eigenvalues --   -0.63487  -0.62284  -0.59501  -0.57924  -0.56126
 Alpha  occ. eigenvalues --   -0.55445  -0.53814  -0.53272  -0.53028  -0.51313
 Alpha  occ. eigenvalues --   -0.50935  -0.49206  -0.49092  -0.48437  -0.46464
 Alpha  occ. eigenvalues --   -0.45229  -0.45122  -0.44121  -0.43878  -0.42287
 Alpha  occ. eigenvalues --   -0.37526  -0.36535
 Alpha virt. eigenvalues --    0.04799   0.11122   0.16313   0.21256   0.24365
 Alpha virt. eigenvalues --    0.25720   0.27185   0.28079   0.28266   0.29117
 Alpha virt. eigenvalues --    0.29412   0.30858   0.32359   0.32735   0.32963

 Mulliken charges:
               1
     1  C   -0.297297
     2  C   -0.298685
     3  C   -0.474665
     4  H    0.143018
     5  H    0.144847
     6  H    0.150582
     7  H    0.155699
     8  H    0.152801
     9  H    0.152383
    10  H    0.156130
    11  C   -0.308859
    12  C   -0.298308
    13  C   -0.473092
    14  H    0.149715
    15  H    0.179692
    16  H    0.143949
    17  H    0.146062
    18  H    0.161581
    19  H    0.156831
    20  H    0.148797
    21  C   -0.170323
    22  C   -0.218569
    23  C   -0.170611
    24  C    0.158799
    25  C   -0.170493
    26  C   -0.218613
    27  H    0.226381
    28  H    0.224156
    29  H    0.275818
    30  H    0.276172
    31  H    0.224221
    32  N    0.488820
    33  O   -0.456518
    34  O   -0.460421
 Sum of Mulliken charges =  -0.00000

 Dipole moment (field-independent basis, Debye):
    X=              5.7256    Y=             -0.6995    Z=             -0.1987  Tot=              5.7716
 Quadrupole moment (field-independent basis, Debye-Ang):
   XX=            -70.1365   YY=            -95.7631   ZZ=            -90.2149
   XY=             -2.8362   XZ=             -0.4009   YZ=              2.8620

 Normal termination of Gaussian 16 at Thu May  6 11:59:33 2021.
