 Gaussian 16, Revision A.03,
 Gaussian 16:  EM64L-G16RevA.03 25-Dec-2016

 -------------
 #p 6-31g* mp2
 -------------

 ------------------------------------------------------
 Input file generated by CHIRIPA (05-May-2021 14:53:18)
 ------------------------------------------------------
 Symbolic Z-matrix:
 Charge =  0 Multiplicity = 1

                         Standard orientation:
 ---------------------------------------------------------------------
 Center     Atomic      Atomic             Coordinates (Angstroms)
 Number     Number       Type             X           Y           Z
 ---------------------------------------------------------------------
      1          6           0       -3.342601   -0.624058   -0.413027
      2          6           0       -4.196822   -1.634343    0.353534
      3          6           0       -3.784699   -3.081888    0.084162
      4          1           0       -3.415605   -0.833408   -1.489033
      5          1           0       -2.287785   -0.763123   -0.138402
      6          1           0       -5.249864   -1.492494    0.078586
      7          1           0       -4.121928   -1.422445    1.427828
      8          1           0       -2.742309   -3.246278    0.375707
      9          1           0       -3.876654   -3.316725   -0.981201
     10          1           0       -4.408324   -3.787319    0.642122
     11          6           0       -3.742487    0.827414   -0.154088
     12          6           0       -2.888267    1.837699   -0.920649
     13          6           0       -3.300389    3.285244   -0.651276
     14          1           0       -4.797303    0.966479   -0.428713
     15          1           0       -3.669483    1.036763    0.921918
     16          1           0       -2.963161    1.625800   -1.994942
     17          1           0       -1.835224    1.695849   -0.645701
     18          1           0       -3.208435    3.520081    0.414086
     19          1           0       -4.342780    3.449634   -0.942822
     20          1           0       -2.676765    3.990675   -1.209237
     21          6           0        0.654871    0.221744    1.567463
     22          6           0        1.733977    1.091855    1.754439
     23          6           0        2.909500    0.934426    1.014229
     24          6           0        2.971864   -0.108553    0.091409
     25          6           0        1.913833   -0.991814   -0.117656
     26          6           0        0.748079   -0.815484    0.633660
     27          1           0       -0.254509    0.351380    2.146789
     28          1           0        1.664412    1.898264    2.478945
     29          1           0        3.760003    1.593611    1.138881
     30          1           0        2.012904   -1.786365   -0.847239
     31          1           0       -0.088386   -1.492736    0.486346
     32          7           0        4.211167   -0.285221   -0.698096
     33          8           0        4.241015   -1.211953   -1.504888
     34          8           0        5.129219    0.506384   -0.495169
 ---------------------------------------------------------------------

 SCF Done:  E(RHF) =  -669.535484539     A.U. after   15 cycles
 E2 =    -0.2092146373D+01 EUMP2 =    -0.67162763091134D+03

 The electronic state is 1-A.
 Alpha  occ. eigenvalues --  -20.60791 -20.60785 -15.85844 -11.31234 -11.27801
 Alpha  occ. eigenvalues --  -11.27794 -11.27567 -11.26826 -11.26813 -11.22466
 Alpha  occ. eigenvalues --  -11.22313 -11.22224 -11.22155 -11.21941 -11.21630
 Alpha  occ. eigenvalues --   -1.59865  -1.39418  -1.19410  -1.09253  -1.08802
 Alpha  occ. eigenvalues --   -1.04813  -1.04282  -0.96743  -0.95632  -0.87754
 Alpha  occ. eigenvalues --   -0.86217  -0.82461  -0.80342  -0.79067  -0.77501
 Alpha  occ. eigenvalues --   -0.72063  -0.71188  -0.70519  -0.65966  -0.65059
 Alpha  occ. eigenvalues --   -0.64782  -0.62178  -0.61668  -0.60102  -0.58340
 Alpha  occ. eigenvalues --   -0.56051  -0.55319  -0.53404  -0.53185  -0.53129
 Alpha  occ. eigenvalues --   -0.52903  -0.50695  -0.48836  -0.48816  -0.48643
 Alpha  occ. eigenvalues --   -0.47383  -0.46578  -0.46522  -0.44818  -0.44552
 Alpha  occ. eigenvalues --   -0.37379  -0.36401
 Alpha virt. eigenvalues --    0.05017   0.11105   0.16468   0.18835   0.22548
 Alpha virt. eigenvalues --    0.23314   0.25172   0.25971   0.26903   0.28250
 Alpha virt. eigenvalues --    0.29475   0.30082   0.31119   0.31382   0.31874

 Mulliken charges:
               1
     1  C   -0.303039
     2  C   -0.300231
     3  C   -0.475800
     4  H    0.154405
     5  H    0.142529
     6  H    0.156287
     7  H    0.149722
     8  H    0.148152
     9  H    0.158866
    10  H    0.164330
    11  C   -0.297939
    12  C   -0.302713
    13  C   -0.475748
    14  H    0.153158
    15  H    0.145015
    16  H    0.154949
    17  H    0.153082
    18  H    0.152557
    19  H    0.156879
    20  H    0.163185
    21  C   -0.172151
    22  C   -0.218708
    23  C   -0.170842
    24  C    0.158837
    25  C   -0.171639
    26  C   -0.221066
    27  H    0.226112
    28  H    0.223757
    29  H    0.275870
    30  H    0.276333
    31  H    0.228201
    32  N    0.488019
    33  O   -0.460092
    34  O   -0.460279
 Sum of Mulliken charges =  -0.00000

 Dipole moment (field-independent basis, Debye):
    X=             -4.4724    Y=              0.6442    Z=              2.6960  Tot=              5.2617
 Quadrupole moment (field-independent basis, Debye-Ang):
   XX=           -119.3662   YY=            -93.0803   ZZ=            -93.0934
   XY=              4.5467   XZ=              9.8444   YZ=              1.8181

 Normal termination of Gaussian 16 at Wed May  5 20:27:38 2021.
