 Gaussian 16, Revision A.03,
 Gaussian 16:  EM64L-G16RevA.03 25-Dec-2016

 -------------
 #p 6-31g* mp2
 -------------

 ------------------------------------------------------
 Input file generated by CHIRIPA (05-May-2021 14:51:10)
 ------------------------------------------------------
 Symbolic Z-matrix:
 Charge =  0 Multiplicity = 1

                         Standard orientation:
 ---------------------------------------------------------------------
 Center     Atomic      Atomic             Coordinates (Angstroms)
 Number     Number       Type             X           Y           Z
 ---------------------------------------------------------------------
      1          6           0       -2.704121   -0.504026   -0.016023
      2          6           0       -2.914844   -1.419132   -1.222737
      3          6           0       -2.452803   -2.853603   -0.964655
      4          1           0       -1.639500   -0.504669    0.255134
      5          1           0       -3.246594   -0.915389    0.846473
      6          1           0       -2.373266   -1.005427   -2.083061
      7          1           0       -3.979058   -1.416160   -1.491172
      8          1           0       -3.001178   -3.289477   -0.123287
      9          1           0       -1.386263   -2.876410   -0.718539
     10          1           0       -2.612625   -3.490528   -1.840236
     11          6           0       -3.161180    0.933329   -0.258586
     12          6           0       -2.950457    1.848436    0.948129
     13          6           0       -3.412498    3.282907    0.690046
     14          1           0       -2.618707    1.344693   -1.121081
     15          1           0       -4.225801    0.933973   -0.529743
     16          1           0       -1.886244    1.845464    1.216563
     17          1           0       -3.492035    1.434731    1.808453
     18          1           0       -4.479038    3.305714    0.443931
     19          1           0       -2.864123    3.718781   -0.151322
     20          1           0       -3.252676    3.919832    1.565628
     21          6           0        3.398686    0.381501    0.241446
     22          6           0        3.508242    1.287133   -0.985669
     23          6           0        4.444132    2.475323   -0.761814
     24          1           0        3.043667    0.973822    1.095883
     25          1           0        4.399661    0.015675    0.509061
     26          1           0        2.507175    1.650033   -1.251721
     27          1           0        3.862857    0.692544   -1.837330
     28          1           0        5.454073    2.129727   -0.518539
     29          1           0        4.090688    3.092656    0.070398
     30          1           0        4.507696    3.109496   -1.651557
     31          6           0        2.466616   -0.810804    0.033162
     32          6           0        2.357059   -1.716437    1.260278
     33          6           0        1.421170   -2.904626    1.036422
     34          1           0        1.465641   -0.444980   -0.234451
     35          1           0        2.821633   -1.403127   -0.821274
     36          1           0        2.002444   -1.121848    2.111940
     37          1           0        3.358126   -2.079337    1.526330
     38          1           0        1.774613   -3.521960    0.204210
     39          1           0        0.411227   -2.559030    0.793147
     40          1           0        1.357605   -3.538799    1.926166
 ---------------------------------------------------------------------

 SCF Done:  E(RHF) =  -470.733251028     A.U. after   11 cycles
 E2 =    -0.1583090657D+01 EUMP2 =    -0.47231634168502D+03

 The electronic state is 1-A.
 Alpha  occ. eigenvalues --  -11.21643 -11.21643 -11.21634 -11.21606 -11.21458
 Alpha  occ. eigenvalues --  -11.21451 -11.21397 -11.21390 -11.21103 -11.21102
 Alpha  occ. eigenvalues --  -11.21077 -11.21016  -1.08481  -1.08457  -1.03579
 Alpha  occ. eigenvalues --   -1.03535  -0.96036  -0.95976  -0.87066  -0.86980
 Alpha  occ. eigenvalues --   -0.79681  -0.79563  -0.78326  -0.78242  -0.65187
 Alpha  occ. eigenvalues --   -0.65020  -0.61067  -0.60856  -0.59401  -0.59347
 Alpha  occ. eigenvalues --   -0.57712  -0.57538  -0.55414  -0.55187  -0.52707
 Alpha  occ. eigenvalues --   -0.52682  -0.52572  -0.52297  -0.50082  -0.49820
 Alpha  occ. eigenvalues --   -0.48106  -0.47790  -0.46793  -0.46528  -0.45997
 Alpha  occ. eigenvalues --   -0.45792  -0.45772  -0.45470  -0.43822  -0.43807
 Alpha virt. eigenvalues --    0.19939   0.23271   0.23449   0.24829   0.25678
 Alpha virt. eigenvalues --    0.26662   0.27051   0.27313   0.28654   0.29160
 Alpha virt. eigenvalues --    0.30649   0.31580   0.31694   0.31796   0.31926

 Mulliken charges:
               1
     1  C   -0.301826
     2  C   -0.299406
     3  C   -0.482239
     4  H    0.151198
     5  H    0.149920
     6  H    0.151910
     7  H    0.152018
     8  H    0.154968
     9  H    0.162396
    10  H    0.160339
    11  C   -0.298242
    12  C   -0.299570
    13  C   -0.475734
    14  H    0.149509
    15  H    0.150117
    16  H    0.151284
    17  H    0.152143
    18  H    0.155375
    19  H    0.155197
    20  H    0.160328
    21  C   -0.298269
    22  C   -0.299619
    23  C   -0.475746
    24  H    0.149705
    25  H    0.149904
    26  H    0.151535
    27  H    0.152081
    28  H    0.155326
    29  H    0.155260
    30  H    0.160359
    31  C   -0.299969
    32  C   -0.299206
    33  C   -0.483555
    34  H    0.149448
    35  H    0.149973
    36  H    0.152038
    37  H    0.152189
    38  H    0.155222
    39  H    0.162670
    40  H    0.160969
 Sum of Mulliken charges =  -0.00000

 Dipole moment (field-independent basis, Debye):
    X=              0.0070    Y=             -0.0106    Z=              0.0053  Tot=              0.0137
 Quadrupole moment (field-independent basis, Debye-Ang):
   XX=            -83.6938   YY=            -86.3547   ZZ=            -84.5504
   XY=             -0.5213   XZ=             -0.6261   YZ=              0.1250

 Normal termination of Gaussian 16 at Wed May  5 18:13:32 2021.
