 Gaussian 16, Revision A.03,
 Gaussian 16:  EM64L-G16RevA.03 25-Dec-2016

 -------------
 #p 6-31g* mp2
 -------------

 ------------------------------------------------------
 Input file generated by CHIRIPA (05-May-2021 14:53:15)
 ------------------------------------------------------
 Symbolic Z-matrix:
 Charge =  0 Multiplicity = 1

                         Standard orientation:
 ---------------------------------------------------------------------
 Center     Atomic      Atomic             Coordinates (Angstroms)
 Number     Number       Type             X           Y           Z
 ---------------------------------------------------------------------
      1          6           0        4.051836   -0.672573   -0.412543
      2          6           0        4.889811   -1.564153    0.504446
      3          6           0        4.903254   -3.026001    0.056546
      4          1           0        3.023088   -1.056580   -0.446641
      5          1           0        4.444622   -0.739683   -1.436560
      6          1           0        4.496417   -1.494308    1.526688
      7          1           0        5.916637   -1.177867    0.536516
      8          1           0        5.315646   -3.115619   -0.953653
      9          1           0        3.887357   -3.433858    0.042145
     10          1           0        5.508082   -3.645484    0.726086
     11          6           0        4.028666    0.791735    0.022191
     12          6           0        3.190691    1.683314   -0.894798
     13          6           0        3.177248    3.145162   -0.446899
     14          1           0        3.635879    0.858844    1.046207
     15          1           0        5.057413    1.175741    0.056289
     16          1           0        2.163865    1.297028   -0.926868
     17          1           0        3.584085    1.613469   -1.917040
     18          1           0        4.193144    3.553020   -0.432498
     19          1           0        2.764855    3.234780    0.563300
     20          1           0        2.572419    3.764645   -1.116439
     21          6           0       -1.168453    0.683507    1.523915
     22          6           0       -1.045922    0.532794    0.138710
     23          6           0       -2.140760    0.128795   -0.631136
     24          6           0       -3.348638   -0.117127    0.019896
     25          6           0       -3.502274    0.024104    1.398208
     26          6           0       -2.394077    0.429129    2.148142
     27          1           0       -0.312768    0.997741    2.114216
     28          1           0       -0.095312    0.729652   -0.348764
     29          1           0       -2.073745    0.004240   -1.705107
     30          1           0       -4.462794   -0.179464    1.855785
     31          1           0       -2.492155    0.545349    3.223744
     32          7           0       -4.514765   -0.545365   -0.784566
     33          8           0       -5.568011   -0.755834   -0.187061
     34          8           0       -4.353447   -0.662441   -1.997376
 ---------------------------------------------------------------------

 SCF Done:  E(RHF) =  -669.535457862     A.U. after   15 cycles
 E2 =    -0.2091174814D+01 EUMP2 =    -0.67162663267536D+03

 The electronic state is 1-A.
 Alpha  occ. eigenvalues --  -20.60756 -20.60750 -15.85809 -11.31179 -11.27750
 Alpha  occ. eigenvalues --  -11.27744 -11.27498 -11.26769 -11.26746 -11.22680
 Alpha  occ. eigenvalues --  -11.22290 -11.22228 -11.22128 -11.21994 -11.21559
 Alpha  occ. eigenvalues --   -1.59831  -1.39384  -1.19353  -1.09268  -1.08749
 Alpha  occ. eigenvalues --   -1.04758  -1.04322  -0.96743  -0.95582  -0.87758
 Alpha  occ. eigenvalues --   -0.86159  -0.82416  -0.80406  -0.79062  -0.77460
 Alpha  occ. eigenvalues --   -0.72028  -0.71154  -0.70465  -0.65951  -0.65005
 Alpha  occ. eigenvalues --   -0.64756  -0.62163  -0.61669  -0.60120  -0.58352
 Alpha  occ. eigenvalues --   -0.56031  -0.55264  -0.53433  -0.53160  -0.53087
 Alpha  occ. eigenvalues --   -0.52865  -0.50688  -0.48809  -0.48782  -0.48680
 Alpha  occ. eigenvalues --   -0.47452  -0.46592  -0.46518  -0.44789  -0.44573
 Alpha  occ. eigenvalues --   -0.37337  -0.36360
 Alpha virt. eigenvalues --    0.05076   0.11284   0.16564   0.18707   0.22797
 Alpha virt. eigenvalues --    0.23736   0.24751   0.25984   0.27297   0.28294
 Alpha virt. eigenvalues --    0.28846   0.30048   0.31017   0.31292   0.31873

 Mulliken charges:
               1
     1  C   -0.298701
     2  C   -0.299910
     3  C   -0.476313
     4  H    0.146689
     5  H    0.152483
     6  H    0.150962
     7  H    0.153641
     8  H    0.156704
     9  H    0.156072
    10  H    0.162105
    11  C   -0.297805
    12  C   -0.306212
    13  C   -0.475511
    14  H    0.145532
    15  H    0.153937
    16  H    0.144423
    17  H    0.157904
    18  H    0.159879
    19  H    0.151712
    20  H    0.163148
    21  C   -0.173929
    22  C   -0.227342
    23  C   -0.173595
    24  C    0.159059
    25  C   -0.171204
    26  C   -0.218514
    27  H    0.225410
    28  H    0.236849
    29  H    0.276440
    30  H    0.275579
    31  H    0.223365
    32  N    0.488006
    33  O   -0.460549
    34  O   -0.460316
 Sum of Mulliken charges =  -0.00000

 Dipole moment (field-independent basis, Debye):
    X=              4.3246    Y=              1.5111    Z=              2.7985  Tot=              5.3682
 Quadrupole moment (field-independent basis, Debye-Ang):
   XX=           -119.5393   YY=            -96.7981   ZZ=            -91.0433
   XY=             -5.0708   XZ=            -12.8081   YZ=             -0.8929

 Normal termination of Gaussian 16 at Thu May  6 04:15:11 2021.
