 Gaussian 16, Revision A.03,
 Gaussian 16:  EM64L-G16RevA.03 25-Dec-2016

 -------------
 #p 6-31g* mp2
 -------------

 ------------------------------------------------------
 Input file generated by CHIRIPA (05-May-2021 14:55:22)
 ------------------------------------------------------
 Symbolic Z-matrix:
 Charge =  0 Multiplicity = 1

                         Standard orientation:
 ---------------------------------------------------------------------
 Center     Atomic      Atomic             Coordinates (Angstroms)
 Number     Number       Type             X           Y           Z
 ---------------------------------------------------------------------
      1          6           0        4.553099    1.181243   -0.921863
      2          6           0        4.114104   -0.048272   -1.423956
      3          6           0        3.053831   -0.726137   -0.814968
      4          6           0        2.452736   -0.142882    0.299388
      5          6           0        2.867284    1.080662    0.823200
      6          6           0        3.929388    1.740800    0.198138
      7          1           0        5.377456    1.700940   -1.401183
      8          1           0        4.596607   -0.485212   -2.293622
      9          1           0        2.693829   -1.679268   -1.182879
     10          1           0        2.366495    1.491126    1.691616
     11          1           0        4.268205    2.695523    0.590249
     12          7           0        1.329303   -0.851124    0.952604
     13          8           0        0.816460   -0.316085    1.933095
     14          8           0        0.982872   -1.927874    0.471737
     15          6           0       -3.551242   -0.700688   -0.363298
     16          6           0       -2.364966   -1.645346   -0.167450
     17          6           0       -2.730312   -3.110618   -0.406814
     18          1           0       -4.361712   -0.993985    0.317922
     19          1           0       -3.941708   -0.820260   -1.383413
     20          1           0       -1.975984   -1.523028    0.851543
     21          1           0       -1.557154   -1.349648   -0.849080
     22          1           0       -3.098183   -3.254073   -1.427937
     23          1           0       -3.519392   -3.428437    0.282349
     24          1           0       -1.867707   -3.768369   -0.261429
     25          6           0       -3.201760    0.767646   -0.127530
     26          6           0       -4.388036    1.712304   -0.323377
     27          6           0       -4.022688    3.177575   -0.084013
     28          1           0       -2.811293    0.887218    0.892584
     29          1           0       -2.391290    1.060943   -0.808750
     30          1           0       -5.195847    1.416605    0.358253
     31          1           0       -4.777017    1.589985   -1.342371
     32          1           0       -3.233608    3.495395   -0.773177
     33          1           0       -3.654819    3.321030    0.937110
     34          1           0       -4.885293    3.835326   -0.229398
 ---------------------------------------------------------------------

 SCF Done:  E(RHF) =  -669.536229776     A.U. after   15 cycles
 E2 =    -0.2092183586D+01 EUMP2 =    -0.67162841336204D+03

 The electronic state is 1-A.
 Alpha  occ. eigenvalues --  -20.60993 -20.60982 -15.85986 -11.31311 -11.27870
 Alpha  occ. eigenvalues --  -11.27865 -11.27605 -11.26875 -11.26865 -11.20907
 Alpha  occ. eigenvalues --  -11.20552 -11.20440 -11.20204 -11.19900 -11.19648
 Alpha  occ. eigenvalues --   -1.60024  -1.39584  -1.19475  -1.08881  -1.07367
 Alpha  occ. eigenvalues --   -1.04870  -1.02431  -0.95725  -0.94942  -0.86270
 Alpha  occ. eigenvalues --   -0.85978  -0.82562  -0.78543  -0.77615  -0.77097
 Alpha  occ. eigenvalues --   -0.72213  -0.71320  -0.70584  -0.65131  -0.64873
 Alpha  occ. eigenvalues --   -0.64014  -0.62217  -0.59844  -0.58344  -0.56494
 Alpha  occ. eigenvalues --   -0.55372  -0.54270  -0.53202  -0.52961  -0.51646
 Alpha  occ. eigenvalues --   -0.51362  -0.49046  -0.48977  -0.48915  -0.46839
 Alpha  occ. eigenvalues --   -0.45607  -0.45122  -0.44511  -0.44413  -0.42688
 Alpha  occ. eigenvalues --   -0.37450  -0.36470
 Alpha virt. eigenvalues --    0.04893   0.11184   0.16379   0.21314   0.23814
 Alpha virt. eigenvalues --    0.25383   0.27235   0.27639   0.28097   0.28660
 Alpha virt. eigenvalues --    0.28964   0.30891   0.32223   0.32518   0.32733

 Mulliken charges:
               1
     1  C   -0.170573
     2  C   -0.218570
     3  C   -0.171017
     4  C    0.159242
     5  C   -0.170602
     6  C   -0.218576
     7  H    0.226063
     8  H    0.223870
     9  H    0.275707
    10  H    0.275931
    11  H    0.223944
    12  N    0.488960
    13  O   -0.460093
    14  O   -0.457748
    15  C   -0.298816
    16  C   -0.296969
    17  C   -0.477501
    18  H    0.146475
    19  H    0.143160
    20  H    0.171197
    21  H    0.147442
    22  H    0.146153
    23  H    0.149949
    24  H    0.168199
    25  C   -0.297949
    26  C   -0.298485
    27  C   -0.474930
    28  H    0.155950
    29  H    0.143877
    30  H    0.151348
    31  H    0.149374
    32  H    0.152110
    33  H    0.155310
    34  H    0.157570
 Sum of Mulliken charges =  -0.00000

 Dipole moment (field-independent basis, Debye):
    X=              4.3065    Y=              2.4158    Z=             -2.1253  Tot=              5.3758
 Quadrupole moment (field-independent basis, Debye-Ang):
   XX=            -77.0569   YY=            -94.6248   ZZ=            -93.4636
   XY=              5.3762   XZ=             -5.7368   YZ=              3.5563

 Normal termination of Gaussian 16 at Wed May  5 22:16:22 2021.
