 Gaussian 16, Revision A.03,
 Gaussian 16:  EM64L-G16RevA.03 25-Dec-2016

 -------------
 #p 6-31g* mp2
 -------------

 ------------------------------------------------------
 Input file generated by CHIRIPA (05-May-2021 14:51:12)
 ------------------------------------------------------
 Symbolic Z-matrix:
 Charge =  0 Multiplicity = 1

                         Standard orientation:
 ---------------------------------------------------------------------
 Center     Atomic      Atomic             Coordinates (Angstroms)
 Number     Number       Type             X           Y           Z
 ---------------------------------------------------------------------
      1          6           0       -2.902750    0.874451   -0.359665
      2          6           0       -2.435711    2.123064    0.389218
      3          6           0       -1.219328    2.782343   -0.261595
      4          1           0       -2.075474    0.153242   -0.408829
      5          1           0       -3.142834    1.145904   -1.397002
      6          1           0       -2.197898    1.849603    1.425210
      7          1           0       -3.264254    2.841307    0.436772
      8          1           0       -1.447862    3.083016   -1.289198
      9          1           0       -0.375448    2.085679   -0.295143
     10          1           0       -0.902305    3.672945    0.289935
     11          6           0       -4.117966    0.204163    0.278842
     12          6           0       -4.585004   -1.044450   -0.470041
     13          6           0       -5.801387   -1.703729    0.180772
     14          1           0       -3.877881   -0.067290    1.316179
     15          1           0       -4.945241    0.925372    0.328006
     16          1           0       -3.756461   -1.762693   -0.517595
     17          1           0       -4.822817   -0.770990   -1.506033
     18          1           0       -6.645267   -1.007065    0.214321
     19          1           0       -5.572853   -2.004403    1.208375
     20          1           0       -6.118410   -2.594331   -0.370758
     21          6           0        4.183755   -0.517289   -0.319426
     22          6           0        5.277713    0.187069    0.483768
     23          6           0        6.619024    0.223064   -0.249296
     24          1           0        4.506832   -1.542504   -0.546363
     25          1           0        4.061410   -0.007178   -1.284938
     26          1           0        5.396998   -0.323376    1.448045
     27          1           0        4.951913    1.210666    0.708982
     28          1           0        6.522356    0.750528   -1.203780
     29          1           0        6.969970   -0.792231   -0.460518
     30          1           0        7.386634    0.731041    0.342813
     31          6           0        2.836960   -0.561325    0.400249
     32          6           0        1.743002   -1.265684   -0.402945
     33          6           0        0.401691   -1.301678    0.330119
     34          1           0        2.959305   -1.071436    1.365761
     35          1           0        2.513883    0.463891    0.627184
     36          1           0        2.068802   -2.289280   -0.628160
     37          1           0        1.623717   -0.755237   -1.367223
     38          1           0        0.050746   -0.286383    0.541340
     39          1           0        0.498360   -1.829141    1.284602
     40          1           0       -0.365919   -1.809656   -0.261991
 ---------------------------------------------------------------------

 SCF Done:  E(RHF) =  -470.732507362     A.U. after   11 cycles
 E2 =    -0.1583719228D+01 EUMP2 =    -0.47231622659058D+03

 The electronic state is 1-A.
 Alpha  occ. eigenvalues --  -11.21677 -11.21621 -11.21570 -11.21557 -11.21453
 Alpha  occ. eigenvalues --  -11.21388 -11.21309 -11.21202 -11.21170 -11.21097
 Alpha  occ. eigenvalues --  -11.21084 -11.21033  -1.08484  -1.08363  -1.03600
 Alpha  occ. eigenvalues --   -1.03489  -0.96050  -0.95939  -0.87082  -0.86951
 Alpha  occ. eigenvalues --   -0.79685  -0.79539  -0.78303  -0.78157  -0.65218
 Alpha  occ. eigenvalues --   -0.64935  -0.61171  -0.60739  -0.59422  -0.59310
 Alpha  occ. eigenvalues --   -0.57666  -0.57533  -0.55341  -0.55238  -0.52779
 Alpha  occ. eigenvalues --   -0.52641  -0.52466  -0.52349  -0.50064  -0.49855
 Alpha  occ. eigenvalues --   -0.48013  -0.47835  -0.46825  -0.46506  -0.45887
 Alpha  occ. eigenvalues --   -0.45777  -0.45684  -0.45415  -0.43806  -0.43726
 Alpha virt. eigenvalues --    0.20382   0.22834   0.23617   0.24396   0.26081
 Alpha virt. eigenvalues --    0.26346   0.27007   0.27516   0.28272   0.29403
 Alpha virt. eigenvalues --    0.30347   0.31591   0.31732   0.31978   0.32198

 Mulliken charges:
               1
     1  C   -0.307573
     2  C   -0.299779
     3  C   -0.479028
     4  H    0.161136
     5  H    0.148331
     6  H    0.151658
     7  H    0.152107
     8  H    0.155615
     9  H    0.156173
    10  H    0.160318
    11  C   -0.297517
    12  C   -0.300031
    13  C   -0.475652
    14  H    0.149488
    15  H    0.149090
    16  H    0.151839
    17  H    0.151717
    18  H    0.155116
    19  H    0.155243
    20  H    0.159981
    21  C   -0.298367
    22  C   -0.299752
    23  C   -0.475754
    24  H    0.149761
    25  H    0.149872
    26  H    0.151911
    27  H    0.152219
    28  H    0.155325
    29  H    0.155172
    30  H    0.160356
    31  C   -0.299396
    32  C   -0.299938
    33  C   -0.483776
    34  H    0.149730
    35  H    0.150190
    36  H    0.152516
    37  H    0.152778
    38  H    0.161641
    39  H    0.155835
    40  H    0.161447
 Sum of Mulliken charges =  -0.00000

 Dipole moment (field-independent basis, Debye):
    X=              0.0523    Y=             -0.0267    Z=              0.0025  Tot=              0.0588
 Quadrupole moment (field-independent basis, Debye-Ang):
   XX=            -86.2942   YY=            -84.0605   ZZ=            -84.5709
   XY=             -1.1975   XZ=              1.1683   YZ=             -0.4789

 Normal termination of Gaussian 16 at Thu May  6 03:55:54 2021.
