 Gaussian 16, Revision A.03,
 Gaussian 16:  EM64L-G16RevA.03 25-Dec-2016

 -------------
 #p 6-31g* mp2
 -------------

 ------------------------------------------------------
 Input file generated by CHIRIPA (05-May-2021 14:55:25)
 ------------------------------------------------------
 Symbolic Z-matrix:
 Charge =  0 Multiplicity = 1

                         Standard orientation:
 ---------------------------------------------------------------------
 Center     Atomic      Atomic             Coordinates (Angstroms)
 Number     Number       Type             X           Y           Z
 ---------------------------------------------------------------------
      1          6           0        1.407434    0.799567    0.720269
      2          6           0        1.742611   -0.515242    1.060056
      3          6           0        2.993157   -1.039676    0.719980
      4          6           0        3.888320   -0.217683    0.037119
      5          6           0        3.583836    1.096208   -0.315401
      6          6           0        2.327494    1.599685    0.034833
      7          1           0        0.433729    1.198820    0.988393
      8          1           0        1.030070   -1.138919    1.592369
      9          1           0        3.278635   -2.054103    0.970695
     10          1           0        4.315100    1.693735   -0.846091
     11          1           0        2.069916    2.621144   -0.230343
     12          7           0        5.215285   -0.761785   -0.328281
     13          8           0        5.986223   -0.017190   -0.929838
     14          8           0        5.459297   -1.922545   -0.006207
     15          6           0       -4.060228    0.510495   -0.364693
     16          6           0       -3.798688    1.847266    0.330020
     17          6           0       -2.521011    2.528634   -0.160973
     18          1           0       -3.201704   -0.155009   -0.200414
     19          1           0       -4.124957    0.675282   -1.449152
     20          1           0       -3.735849    1.680215    1.412960
     21          1           0       -4.658017    2.509597    0.164229
     22          1           0       -2.577618    2.724079   -1.236705
     23          1           0       -1.650211    1.889985    0.019122
     24          1           0       -2.353383    3.482523    0.348788
     25          6           0       -5.334000   -0.182794    0.115500
     26          6           0       -5.595541   -1.519564   -0.579213
     27          6           0       -6.873218   -2.200933   -0.088219
     28          1           0       -5.269272   -0.347580    1.199958
     29          1           0       -6.192524    0.482709   -0.048779
     30          1           0       -4.736211   -2.181896   -0.413422
     31          1           0       -5.658380   -1.352513   -1.662154
     32          1           0       -7.744018   -1.562283   -0.268315
     33          1           0       -6.816609   -2.396377    0.987512
     34          1           0       -7.040845   -3.154821   -0.597981
 ---------------------------------------------------------------------

 SCF Done:  E(RHF) =  -669.535498844     A.U. after   15 cycles
 E2 =    -0.2090783438D+01 EUMP2 =    -0.67162628228195D+03

 The electronic state is 1-A.
 Alpha  occ. eigenvalues --  -20.60745 -20.60740 -15.85799 -11.31166 -11.27734
 Alpha  occ. eigenvalues --  -11.27726 -11.27454 -11.26753 -11.26735 -11.22510
 Alpha  occ. eigenvalues --  -11.22227 -11.22164 -11.22132 -11.22000 -11.21512
 Alpha  occ. eigenvalues --   -1.59821  -1.39374  -1.19336  -1.09159  -1.08731
 Alpha  occ. eigenvalues --   -1.04739  -1.04278  -0.96742  -0.95566  -0.87761
 Alpha  occ. eigenvalues --   -0.86135  -0.82401  -0.80346  -0.78938  -0.77445
 Alpha  occ. eigenvalues --   -0.72017  -0.71144  -0.70467  -0.65794  -0.64988
 Alpha  occ. eigenvalues --   -0.64743  -0.62086  -0.61687  -0.60116  -0.58334
 Alpha  occ. eigenvalues --   -0.56145  -0.55178  -0.53433  -0.53158  -0.53050
 Alpha  occ. eigenvalues --   -0.52830  -0.50677  -0.48779  -0.48772  -0.48648
 Alpha  occ. eigenvalues --   -0.47372  -0.46488  -0.46394  -0.44780  -0.44517
 Alpha  occ. eigenvalues --   -0.37311  -0.36344
 Alpha virt. eigenvalues --    0.05069   0.11309   0.16490   0.19900   0.22447
 Alpha virt. eigenvalues --    0.23707   0.25578   0.26335   0.26922   0.27453
 Alpha virt. eigenvalues --    0.28788   0.30387   0.30896   0.31393   0.32326

 Mulliken charges:
               1
     1  C   -0.175540
     2  C   -0.219760
     3  C   -0.170857
     4  C    0.158574
     5  C   -0.170984
     6  C   -0.220238
     7  H    0.233312
     8  H    0.223136
     9  H    0.275447
    10  H    0.275585
    11  H    0.224177
    12  N    0.488030
    13  O   -0.460431
    14  O   -0.460509
    15  C   -0.298045
    16  C   -0.299948
    17  C   -0.480672
    18  H    0.146300
    19  H    0.152189
    20  H    0.151285
    21  H    0.156193
    22  H    0.160777
    23  H    0.146290
    24  H    0.161631
    25  C   -0.298816
    26  C   -0.299982
    27  C   -0.476082
    28  H    0.149298
    29  H    0.151450
    30  H    0.151424
    31  H    0.153346
    32  H    0.156146
    33  H    0.155304
    34  H    0.161970
 Sum of Mulliken charges =  -0.00000

 Dipole moment (field-independent basis, Debye):
    X=             -4.8820    Y=              1.9356    Z=              1.2374  Tot=              5.3955
 Quadrupole moment (field-independent basis, Debye-Ang):
   XX=           -131.1159   YY=            -91.9241   ZZ=            -94.0060
   XY=              8.8729   XZ=              5.0249   YZ=             -2.6541

 Normal termination of Gaussian 16 at Thu May  6 17:46:06 2021.
