 Gaussian 16, Revision A.03,
 Gaussian 16:  EM64L-G16RevA.03 25-Dec-2016

 -------------
 #p 6-31g* mp2
 -------------

 ------------------------------------------------------
 Input file generated by CHIRIPA (05-May-2021 14:57:25)
 ------------------------------------------------------
 Symbolic Z-matrix:
 Charge =  0 Multiplicity = 1

                         Standard orientation:
 ---------------------------------------------------------------------
 Center     Atomic      Atomic             Coordinates (Angstroms)
 Number     Number       Type             X           Y           Z
 ---------------------------------------------------------------------
      1          6           0       -2.641522    1.715564    1.101724
      2          6           0       -2.349134    0.349582    1.030144
      3          6           0       -3.249791   -0.539089    0.435478
      4          6           0       -4.438806   -0.025189   -0.079732
      5          6           0       -4.758733    1.330462   -0.023641
      6          6           0       -3.843270    2.200789    0.575531
      7          1           0       -1.936119    2.398779    1.565425
      8          1           0       -1.416609   -0.030067    1.437956
      9          1           0       -3.048682   -1.601272    0.366628
     10          1           0       -5.696425    1.679232   -0.438987
     11          1           0       -4.072989    3.261137    0.629712
     12          7           0       -5.400129   -0.956275   -0.711663
     13          8           0       -6.440811   -0.478469   -1.158117
     14          8           0       -5.094731   -2.146236   -0.748551
     15          6           0        1.995714   -0.660502    0.904560
     16          6           0        2.146009    0.355704   -0.044785
     17          6           0        3.407110    0.659216   -0.566371
     18          6           0        4.501241   -0.076810   -0.114229
     19          6           0        4.383808   -1.095084    0.830556
     20          6           0        3.113124   -1.381382    1.338436
     21          1           0        1.012338   -0.889591    1.304417
     22          1           0        1.279986    0.917196   -0.383575
     23          1           0        3.551972    1.440810   -1.302268
     24          1           0        5.265787   -1.637464    1.148922
     25          1           0        2.999392   -2.171118    2.075611
     26          7           0        5.841385    0.235392   -0.659153
     27          8           0        6.789541   -0.427690   -0.244473
     28          8           0        5.918258    1.137266   -1.490628
 ---------------------------------------------------------------------

 SCF Done:  E(RHF) =  -868.336528901     A.U. after   16 cycles
 E2 =    -0.2599680689D+01 EUMP2 =    -0.87093620958962D+03

 The electronic state is 1-A.
 Alpha  occ. eigenvalues --  -20.61396 -20.61387 -20.61202 -20.61196 -15.86457
 Alpha  occ. eigenvalues --  -15.86259 -11.31977 -11.31755 -11.28641 -11.28543
 Alpha  occ. eigenvalues --  -11.28391 -11.28333 -11.28311 -11.28230 -11.27777
 Alpha  occ. eigenvalues --  -11.27564 -11.27436 -11.27396  -1.60467  -1.60274
 Alpha  occ. eigenvalues --   -1.40016  -1.39823  -1.20187  -1.19948  -1.09556
 Alpha  occ. eigenvalues --   -1.09347  -1.05628  -1.05362  -0.96355  -0.96158
 Alpha  occ. eigenvalues --   -0.87025  -0.86767  -0.83199  -0.82973  -0.78214
 Alpha  occ. eigenvalues --   -0.77974  -0.72671  -0.72476  -0.71793  -0.71597
 Alpha  occ. eigenvalues --   -0.71291  -0.71150  -0.65847  -0.65715  -0.65596
 Alpha  occ. eigenvalues --   -0.65344  -0.62980  -0.62694  -0.56170  -0.55936
 Alpha  occ. eigenvalues --   -0.53933  -0.53719  -0.53690  -0.53461  -0.49443
 Alpha  occ. eigenvalues --   -0.49415  -0.49246  -0.49221  -0.45387  -0.45199
 Alpha  occ. eigenvalues --   -0.38180  -0.37976  -0.37230  -0.36952
 Alpha virt. eigenvalues --    0.04351   0.04548   0.10353   0.10688   0.15772
 Alpha virt. eigenvalues --    0.15991   0.17621   0.21957   0.24421   0.26449
 Alpha virt. eigenvalues --    0.27627   0.28707   0.29645   0.31497   0.31932

 Mulliken charges:
               1
     1  C   -0.173042
     2  C   -0.224556
     3  C   -0.170588
     4  C    0.159122
     5  C   -0.169240
     6  C   -0.218238
     7  H    0.227087
     8  H    0.217871
     9  H    0.276120
    10  H    0.278605
    11  H    0.226656
    12  N    0.488096
    13  O   -0.457870
    14  O   -0.459302
    15  C   -0.173968
    16  C   -0.220338
    17  C   -0.170100
    18  C    0.159363
    19  C   -0.170074
    20  C   -0.218155
    21  H    0.219736
    22  H    0.222104
    23  H    0.277257
    24  H    0.277720
    25  H    0.225544
    26  N    0.487896
    27  O   -0.458619
    28  O   -0.459088
 Sum of Mulliken charges =  -0.00000

 Dipole moment (field-independent basis, Debye):
    X=             -1.3928    Y=              2.2322    Z=              4.0555  Tot=              4.8342
 Quadrupole moment (field-independent basis, Debye-Ang):
   XX=           -173.5503   YY=            -99.6527   ZZ=           -105.2077
   XY=            -24.0588   XZ=              1.1090   YZ=             -3.5719

 Normal termination of Gaussian 16 at Thu May  6 03:32:29 2021.
