 Gaussian 16, Revision A.03,
 Gaussian 16:  EM64L-G16RevA.03 25-Dec-2016

 -------------
 #p 6-31g* mp2
 -------------

 ------------------------------------------------------
 Input file generated by CHIRIPA (05-May-2021 14:57:26)
 ------------------------------------------------------
 Symbolic Z-matrix:
 Charge =  0 Multiplicity = 1

                         Standard orientation:
 ---------------------------------------------------------------------
 Center     Atomic      Atomic             Coordinates (Angstroms)
 Number     Number       Type             X           Y           Z
 ---------------------------------------------------------------------
      1          6           0       -1.883125    2.787053    0.570243
      2          6           0       -1.302191    1.840085    1.420118
      3          6           0       -1.546454    0.475951    1.235669
      4          6           0       -2.380445    0.092285    0.186599
      5          6           0       -2.973955    1.011690   -0.676957
      6          6           0       -2.715685    2.370568   -0.473741
      7          1           0       -1.687935    3.844704    0.720817
      8          1           0       -0.655198    2.160639    2.231716
      9          1           0       -1.109693   -0.278410    1.878785
     10          1           0       -3.614532    0.661653   -1.477303
     11          1           0       -3.168207    3.103769   -1.135320
     12          7           0       -2.646450   -1.349081   -0.018603
     13          8           0       -3.384893   -1.661347   -0.950176
     14          8           0       -2.111464   -2.139264    0.756018
     15          6           0        1.261977   -2.606339   -0.051172
     16          6           0        2.265329   -2.237100    0.850753
     17          6           0        2.867752   -0.978325    0.766379
     18          6           0        2.440496   -0.109756   -0.236781
     19          6           0        1.443359   -0.448424   -1.150188
     20          6           0        0.854912   -1.712399   -1.047008
     21          1           0        0.799428   -3.586205    0.021676
     22          1           0        2.583467   -2.929305    1.625147
     23          1           0        3.646745   -0.666696    1.451562
     24          1           0        1.147360    0.263122   -1.911439
     25          1           0        0.075929   -1.996452   -1.748824
     26          7           0        3.070856    1.225606   -0.336059
     27          8           0        2.676599    1.972645   -1.228879
     28          8           0        3.947255    1.499937    0.480829
 ---------------------------------------------------------------------

 SCF Done:  E(RHF) =  -868.340156868     A.U. after   16 cycles
 E2 =    -0.2602143609D+01 EUMP2 =    -0.87094230047688D+03

 The electronic state is 1-A.
 Alpha  occ. eigenvalues --  -20.61431 -20.61425 -20.60814 -20.60807 -15.86433
 Alpha  occ. eigenvalues --  -15.85862 -11.31444 -11.30982 -11.28011 -11.27968
 Alpha  occ. eigenvalues --  -11.27619 -11.27600 -11.27548 -11.27098 -11.26903
 Alpha  occ. eigenvalues --  -11.26859 -11.26455 -11.26364  -1.60506  -1.59900
 Alpha  occ. eigenvalues --   -1.40065  -1.39458  -1.19596  -1.19146  -1.09041
 Alpha  occ. eigenvalues --   -1.08532  -1.04942  -1.04525  -0.95939  -0.95409
 Alpha  occ. eigenvalues --   -0.86346  -0.85899  -0.82790  -0.82267  -0.77885
 Alpha  occ. eigenvalues --   -0.77385  -0.72687  -0.72088  -0.71846  -0.71231
 Alpha  occ. eigenvalues --   -0.70670  -0.70128  -0.65240  -0.64926  -0.64768
 Alpha  occ. eigenvalues --   -0.64472  -0.62296  -0.61872  -0.55418  -0.54875
 Alpha  occ. eigenvalues --   -0.53450  -0.53034  -0.52704  -0.52575  -0.49452
 Alpha  occ. eigenvalues --   -0.49407  -0.48850  -0.48816  -0.45561  -0.44920
 Alpha  occ. eigenvalues --   -0.37594  -0.37026  -0.36597  -0.35956
 Alpha virt. eigenvalues --    0.04491   0.05251   0.11122   0.11518   0.16181
 Alpha virt. eigenvalues --    0.16746   0.21318   0.21860   0.27227   0.27537
 Alpha virt. eigenvalues --    0.28220   0.28819   0.30912   0.31488   0.32284

 Mulliken charges:
               1
     1  C   -0.166265
     2  C   -0.220068
     3  C   -0.167356
     4  C    0.154519
     5  C   -0.173922
     6  C   -0.218789
     7  H    0.230729
     8  H    0.227366
     9  H    0.274917
    10  H    0.274269
    11  H    0.225310
    12  N    0.486709
    13  O   -0.462156
    14  O   -0.464000
    15  C   -0.157103
    16  C   -0.224305
    17  C   -0.174574
    18  C    0.154678
    19  C   -0.170896
    20  C   -0.228407
    21  H    0.237094
    22  H    0.223438
    23  H    0.273029
    24  H    0.273547
    25  H    0.230798
    26  N    0.487783
    27  O   -0.462964
    28  O   -0.463382
 Sum of Mulliken charges =  -0.00000

 Dipole moment (field-independent basis, Debye):
    X=             -1.4330    Y=              0.3289    Z=              1.1164  Tot=              1.8461
 Quadrupole moment (field-independent basis, Debye-Ang):
   XX=           -118.7055   YY=           -102.4013   ZZ=            -99.2298
   XY=            -25.4879   XZ=              5.0187   YZ=              0.3338

 Normal termination of Gaussian 16 at Thu May  6 02:00:31 2021.
