 Gaussian 16, Revision A.03,
 Gaussian 16:  EM64L-G16RevA.03 25-Dec-2016

 -------------
 #p 6-31g* mp2
 -------------

 ------------------------------------------------------
 Input file generated by CHIRIPA (05-May-2021 14:53:15)
 ------------------------------------------------------
 Symbolic Z-matrix:
 Charge =  0 Multiplicity = 1

                         Standard orientation:
 ---------------------------------------------------------------------
 Center     Atomic      Atomic             Coordinates (Angstroms)
 Number     Number       Type             X           Y           Z
 ---------------------------------------------------------------------
      1          6           0       -3.713116    0.735563    0.122884
      2          6           0       -4.606875    1.779581   -0.547344
      3          6           0       -4.468720    3.166787    0.080640
      4          1           0       -3.960832    0.682020    1.191862
      5          1           0       -2.666593    1.064670    0.060648
      6          1           0       -5.651265    1.447933   -0.485082
      7          1           0       -4.357134    1.830507   -1.614889
      8          1           0       -3.436114    3.522664    0.005297
      9          1           0       -4.737597    3.137916    1.141523
     10          1           0       -5.116344    3.897577   -0.413718
     11          6           0       -3.840065   -0.656294   -0.493839
     12          6           0       -2.946306   -1.700312    0.176389
     13          6           0       -3.084461   -3.087519   -0.451595
     14          1           0       -4.886588   -0.985402   -0.431603
     15          1           0       -3.592349   -0.602751   -1.562818
     16          1           0       -3.196047   -1.751239    1.243933
     17          1           0       -1.901916   -1.368665    0.114127
     18          1           0       -2.815584   -3.058647   -1.512478
     19          1           0       -4.117068   -3.443395   -0.376252
     20          1           0       -2.436837   -3.818308    0.042763
     21          6           0        4.915520    1.006966   -1.049738
     22          6           0        4.120603    0.059039   -1.702473
     23          6           0        3.029319   -0.522602   -1.050292
     24          6           0        2.760487   -0.131308    0.260398
     25          6           0        3.533734    0.810406    0.937564
     26          6           0        4.620070    1.378968    0.265878
     27          1           0        5.761333    1.453718   -1.563943
     28          1           0        4.347692   -0.231773   -2.724189
     29          1           0        2.397378   -1.258863   -1.531945
     30          1           0        3.282478    1.080169    1.956149
     31          1           0        5.235679    2.114888    0.775282
     32          7           0        1.607813   -0.740142    0.961157
     33          8           0        1.391980   -0.378413    2.115802
     34          8           0        0.942006   -1.567547    0.342499
 ---------------------------------------------------------------------

 SCF Done:  E(RHF) =  -669.536220198     A.U. after   15 cycles
 E2 =    -0.2091020930D+01 EUMP2 =    -0.67162724112796D+03

 The electronic state is 1-A.
 Alpha  occ. eigenvalues --  -20.60999 -20.60993 -15.86022 -11.31332 -11.27893
 Alpha  occ. eigenvalues --  -11.27888 -11.27627 -11.26895 -11.26886 -11.20955
 Alpha  occ. eigenvalues --  -11.20552 -11.20505 -11.20336 -11.20045 -11.19830
 Alpha  occ. eigenvalues --   -1.60054  -1.39610  -1.19498  -1.08904  -1.07456
 Alpha  occ. eigenvalues --   -1.04891  -1.02531  -0.95748  -0.95038  -0.86292
 Alpha  occ. eigenvalues --   -0.86066  -0.82582  -0.78623  -0.77638  -0.77195
 Alpha  occ. eigenvalues --   -0.72240  -0.71367  -0.70605  -0.65153  -0.64894
 Alpha  occ. eigenvalues --   -0.64096  -0.62238  -0.59932  -0.58426  -0.56604
 Alpha  occ. eigenvalues --   -0.55395  -0.54353  -0.53225  -0.52982  -0.51742
 Alpha  occ. eigenvalues --   -0.51457  -0.49098  -0.48998  -0.48949  -0.46928
 Alpha  occ. eigenvalues --   -0.45686  -0.45109  -0.44761  -0.44461  -0.42798
 Alpha  occ. eigenvalues --   -0.37475  -0.36492
 Alpha virt. eigenvalues --    0.04860   0.11163   0.16347   0.21300   0.23761
 Alpha virt. eigenvalues --    0.25291   0.27223   0.27593   0.28147   0.28579
 Alpha virt. eigenvalues --    0.28897   0.30865   0.32283   0.32430   0.32760

 Mulliken charges:
               1
     1  C   -0.296871
     2  C   -0.298789
     3  C   -0.474854
     4  H    0.150450
     5  H    0.149822
     6  H    0.150556
     7  H    0.149229
     8  H    0.153627
     9  H    0.155344
    10  H    0.157375
    11  C   -0.297813
    12  C   -0.308062
    13  C   -0.473964
    14  H    0.144991
    15  H    0.144805
    16  H    0.150347
    17  H    0.176684
    18  H    0.149528
    19  H    0.148296
    20  H    0.164209
    21  C   -0.170527
    22  C   -0.218551
    23  C   -0.170913
    24  C    0.157852
    25  C   -0.170667
    26  C   -0.218579
    27  H    0.226154
    28  H    0.223970
    29  H    0.275833
    30  H    0.276022
    31  H    0.223990
    32  N    0.488661
    33  O   -0.458075
    34  O   -0.460081
 Sum of Mulliken charges =  -0.00000

 Dipole moment (field-independent basis, Debye):
    X=              4.4179    Y=              2.1187    Z=             -2.3615  Tot=              5.4391
 Quadrupole moment (field-independent basis, Debye-Ang):
   XX=            -73.3235   YY=            -95.9353   ZZ=            -92.7062
   XY=              6.4128   XZ=             -5.8297   YZ=              2.8495

 Normal termination of Gaussian 16 at Wed May  5 15:38:24 2021.
