 Gaussian 16, Revision A.03,
 Gaussian 16:  EM64L-G16RevA.03 25-Dec-2016

 -------------
 #p 6-31g* mp2
 -------------

 ------------------------------------------------------
 Input file generated by CHIRIPA (05-May-2021 14:57:21)
 ------------------------------------------------------
 Symbolic Z-matrix:
 Charge =  0 Multiplicity = 1

                         Standard orientation:
 ---------------------------------------------------------------------
 Center     Atomic      Atomic             Coordinates (Angstroms)
 Number     Number       Type             X           Y           Z
 ---------------------------------------------------------------------
      1          6           0       -0.076085   -1.887844    1.265154
      2          6           0        0.528076   -2.366565    0.097962
      3          6           0        1.642870   -1.718163   -0.441813
      4          6           0        2.129472   -0.588655    0.214479
      5          6           0        1.549563   -0.087378    1.378832
      6          6           0        0.435685   -0.751781    1.900743
      7          1           0       -0.941728   -2.397753    1.677525
      8          1           0        0.132783   -3.248627   -0.397776
      9          1           0        2.130031   -2.067318   -1.344134
     10          1           0        1.966306    0.794224    1.850555
     11          1           0       -0.031477   -0.377750    2.807333
     12          7           0        3.309170    0.106249   -0.347500
     13          8           0        3.718707    1.099389    0.249650
     14          8           0        3.801943   -0.355384   -1.374490
     15          6           0       -3.734624   -1.052556   -0.518786
     16          6           0       -2.811123   -0.868482   -1.553089
     17          6           0       -1.809798    0.101345   -1.446628
     18          6           0       -1.761067    0.872922   -0.286636
     19          6           0       -2.666662    0.713423    0.761100
     20          6           0       -3.659578   -0.262409    0.632977
     21          1           0       -4.509212   -1.808274   -0.609900
     22          1           0       -2.866997   -1.480672   -2.448715
     23          1           0       -1.082049    0.264935   -2.232145
     24          1           0       -2.585588    1.338951    1.641759
     25          1           0       -4.375439   -0.403153    1.437825
     26          7           0       -0.705460    1.902814   -0.162464
     27          8           0       -0.683952    2.569684    0.869745
     28          8           0        0.080429    2.023668   -1.099700
 ---------------------------------------------------------------------

 SCF Done:  E(RHF) =  -868.335491238     A.U. after   16 cycles
 E2 =    -0.2608902804D+01 EUMP2 =    -0.87094439404218D+03

 The electronic state is 1-A.
 Alpha  occ. eigenvalues --  -20.61185 -20.61149 -20.60085 -20.60024 -15.86174
 Alpha  occ. eigenvalues --  -15.85125 -11.31597 -11.30760 -11.28282 -11.28200
 Alpha  occ. eigenvalues --  -11.28069 -11.27434 -11.27348 -11.27283 -11.27241
 Alpha  occ. eigenvalues --  -11.27196 -11.26527 -11.26415  -1.60219  -1.59111
 Alpha  occ. eigenvalues --   -1.39780  -1.38664  -1.19866  -1.18992  -1.09239
 Alpha  occ. eigenvalues --   -1.08329  -1.05299  -1.04446  -0.96055  -0.95114
 Alpha  occ. eigenvalues --   -0.86685  -0.85811  -0.82900  -0.81953  -0.77922
 Alpha  occ. eigenvalues --   -0.76936  -0.72431  -0.71659  -0.71351  -0.70992
 Alpha  occ. eigenvalues --   -0.70354  -0.70073  -0.65520  -0.65310  -0.64631
 Alpha  occ. eigenvalues --   -0.64448  -0.62641  -0.61753  -0.55809  -0.54966
 Alpha  occ. eigenvalues --   -0.54165  -0.53390  -0.52516  -0.52201  -0.49194
 Alpha  occ. eigenvalues --   -0.49170  -0.48136  -0.48077  -0.45224  -0.44016
 Alpha  occ. eigenvalues --   -0.38135  -0.37279  -0.36637  -0.35629
 Alpha virt. eigenvalues --    0.04564   0.05660   0.10479   0.11769   0.16040
 Alpha virt. eigenvalues --    0.17066   0.20668   0.21758   0.26275   0.27384
 Alpha virt. eigenvalues --    0.28126   0.28605   0.30409   0.30809   0.32386

 Mulliken charges:
               1
     1  C   -0.164775
     2  C   -0.219308
     3  C   -0.175600
     4  C    0.167980
     5  C   -0.175443
     6  C   -0.227762
     7  H    0.220398
     8  H    0.217288
     9  H    0.273464
    10  H    0.285788
    11  H    0.222678
    12  N    0.491271
    13  O   -0.453242
    14  O   -0.465117
    15  C   -0.174224
    16  C   -0.221427
    17  C   -0.164825
    18  C    0.166693
    19  C   -0.174563
    20  C   -0.223286
    21  H    0.225454
    22  H    0.223531
    23  H    0.278242
    24  H    0.272890
    25  H    0.222532
    26  N    0.488731
    27  O   -0.463418
    28  O   -0.453950
 Sum of Mulliken charges =  -0.00000

 Dipole moment (field-independent basis, Debye):
    X=             -7.6694    Y=             -5.7530    Z=              1.4513  Tot=              9.6966
 Quadrupole moment (field-independent basis, Debye-Ang):
   XX=           -110.3167   YY=           -107.2326   ZZ=            -97.3616
   XY=              0.1781   XZ=              3.5485   YZ=              3.1456

 Normal termination of Gaussian 16 at Thu May  6 14:30:45 2021.
