 Gaussian 16, Revision A.03,
 Gaussian 16:  EM64L-G16RevA.03 25-Dec-2016

 -------------
 #p 6-31g* mp2
 -------------

 ------------------------------------------------------
 Input file generated by CHIRIPA (05-May-2021 14:53:18)
 ------------------------------------------------------
 Symbolic Z-matrix:
 Charge =  0 Multiplicity = 1

                         Standard orientation:
 ---------------------------------------------------------------------
 Center     Atomic      Atomic             Coordinates (Angstroms)
 Number     Number       Type             X           Y           Z
 ---------------------------------------------------------------------
      1          6           0       -2.432739    0.725890   -0.043489
      2          6           0       -2.504620    1.860951   -1.065475
      3          6           0       -1.946183    3.178199   -0.526214
      4          1           0       -2.986340    1.018263    0.859278
      5          1           0       -1.387240    0.583742    0.263300
      6          1           0       -3.549496    1.999994   -1.371280
      7          1           0       -1.950945    1.565765   -1.965988
      8          1           0       -0.896212    3.062455   -0.238524
      9          1           0       -2.503847    3.499152    0.359563
     10          1           0       -2.007357    3.975886   -1.273083
     11          6           0       -2.987292   -0.597453   -0.567858
     12          6           0       -2.915411   -1.732514    0.454127
     13          6           0       -3.473847   -3.049761   -0.085133
     14          1           0       -4.032791   -0.455304   -0.874648
     15          1           0       -2.433690   -0.889826   -1.470626
     16          1           0       -3.469086   -1.437328    1.354640
     17          1           0       -1.870535   -1.871557    0.759932
     18          1           0       -2.916184   -3.370715   -0.970911
     19          1           0       -4.523818   -2.934018   -0.372824
     20          1           0       -3.412674   -3.847449    0.661735
     21          6           0        1.065824    0.824750    2.358960
     22          6           0        1.487638   -0.506814    2.284599
     23          6           0        2.071479   -1.002384    1.114946
     24          6           0        2.218843   -0.134756    0.033839
     25          6           0        1.808657    1.196849    0.077059
     26          6           0        1.227395    1.670840    1.256895
     27          1           0        0.613285    1.201339    3.271530
     28          1           0        1.363419   -1.166179    3.138913
     29          1           0        2.406926   -2.028885    1.030141
     30          1           0        1.945752    1.830115   -0.791041
     31          1           0        0.900741    2.705407    1.311790
     32          7           0        2.835564   -0.647971   -1.209811
     33          8           0        2.954190    0.136693   -2.148356
     34          8           0        3.188645   -1.825174   -1.222489
 ---------------------------------------------------------------------

 SCF Done:  E(RHF) =  -669.534748456     A.U. after   15 cycles
 E2 =    -0.2094179821D+01 EUMP2 =    -0.67162892827712D+03

 The electronic state is 1-A.
 Alpha  occ. eigenvalues --  -20.60868 -20.60863 -15.85923 -11.31324 -11.27896
 Alpha  occ. eigenvalues --  -11.27881 -11.27609 -11.26915 -11.26869 -11.21878
 Alpha  occ. eigenvalues --  -11.21766 -11.21620 -11.21521 -11.21461 -11.21167
 Alpha  occ. eigenvalues --   -1.59944  -1.39496  -1.19506  -1.08888  -1.08616
 Alpha  occ. eigenvalues --   -1.04916  -1.03780  -0.96240  -0.95709  -0.87267
 Alpha  occ. eigenvalues --   -0.86294  -0.82547  -0.79850  -0.78433  -0.77587
 Alpha  occ. eigenvalues --   -0.72138  -0.71269  -0.70582  -0.65292  -0.65139
 Alpha  occ. eigenvalues --   -0.64901  -0.62300  -0.61162  -0.59604  -0.57848
 Alpha  occ. eigenvalues --   -0.55574  -0.55355  -0.53314  -0.53065  -0.52927
 Alpha  occ. eigenvalues --   -0.52594  -0.50182  -0.48901  -0.48892  -0.48163
 Alpha  occ. eigenvalues --   -0.46871  -0.45966  -0.45831  -0.44893  -0.44001
 Alpha  occ. eigenvalues --   -0.37440  -0.36439
 Alpha virt. eigenvalues --    0.04916   0.11103   0.16278   0.20680   0.22820
 Alpha virt. eigenvalues --    0.24057   0.25905   0.26571   0.27311   0.28162
 Alpha virt. eigenvalues --    0.28625   0.30422   0.31367   0.31611   0.32379

 Mulliken charges:
               1
     1  C   -0.306477
     2  C   -0.299410
     3  C   -0.478034
     4  H    0.144502
     5  H    0.159418
     6  H    0.153324
     7  H    0.155957
     8  H    0.146122
     9  H    0.153439
    10  H    0.163093
    11  C   -0.298397
    12  C   -0.299993
    13  C   -0.476012
    14  H    0.149342
    15  H    0.153093
    16  H    0.148994
    17  H    0.150743
    18  H    0.158339
    19  H    0.155492
    20  H    0.158973
    21  C   -0.170420
    22  C   -0.218175
    23  C   -0.171657
    24  C    0.158875
    25  C   -0.171900
    26  C   -0.218287
    27  H    0.227061
    28  H    0.224573
    29  H    0.276290
    30  H    0.276548
    31  H    0.226597
    32  N    0.488031
    33  O   -0.460010
    34  O   -0.460035
 Sum of Mulliken charges =  -0.00000

 Dipole moment (field-independent basis, Debye):
    X=             -2.0893    Y=              1.7551    Z=              4.3734  Tot=              5.1548
 Quadrupole moment (field-independent basis, Debye-Ang):
   XX=           -104.5873   YY=            -92.5073   ZZ=            -93.8165
   XY=              3.2297   XZ=              9.8279   YZ=             -2.8086

 Normal termination of Gaussian 16 at Wed May  5 18:49:03 2021.
