 Gaussian 16, Revision A.03,
 Gaussian 16:  EM64L-G16RevA.03 25-Dec-2016

 -------------
 #p 6-31g* mp2
 -------------

 ------------------------------------------------------
 Input file generated by CHIRIPA (05-May-2021 14:57:26)
 ------------------------------------------------------
 Symbolic Z-matrix:
 Charge =  0 Multiplicity = 1

                         Standard orientation:
 ---------------------------------------------------------------------
 Center     Atomic      Atomic             Coordinates (Angstroms)
 Number     Number       Type             X           Y           Z
 ---------------------------------------------------------------------
      1          6           0        0.883309   -1.145308   -0.219906
      2          6           0        1.985656   -1.984695   -0.028123
      3          6           0        3.277614   -1.455112    0.042118
      4          6           0        3.431448   -0.075355   -0.083969
      5          6           0        2.353113    0.787019   -0.275788
      6          6           0        1.070226    0.235435   -0.342910
      7          1           0       -0.116792   -1.565247   -0.273259
      8          1           0        1.843491   -3.057377    0.067730
      9          1           0        4.148628   -2.081932    0.189935
     10          1           0        2.526403    1.852338   -0.367895
     11          1           0        0.215974    0.889726   -0.491919
     12          7           0        4.794384    0.496936   -0.011259
     13          8           0        4.903256    1.715866   -0.125250
     14          8           0        5.727975   -0.284268    0.158344
     15          6           0       -2.935021    2.676322    0.189619
     16          6           0       -2.552877    1.889510    1.281137
     17          6           0       -2.698943    0.499709    1.240312
     18          6           0       -3.233096   -0.072658    0.086897
     19          6           0       -3.623113    0.684261   -1.016847
     20          6           0       -3.467980    2.072252   -0.953874
     21          1           0       -2.818032    3.755249    0.229935
     22          1           0       -2.138683    2.355912    2.170495
     23          1           0       -2.411286   -0.133239    2.071003
     24          1           0       -4.032929    0.190596   -1.889636
     25          1           0       -3.765615    2.680803   -1.803064
     26          7           0       -3.392528   -1.543018    0.031954
     27          8           0       -3.865713   -2.023016   -0.995829
     28          8           0       -3.041289   -2.187649    1.017712
 ---------------------------------------------------------------------

 SCF Done:  E(RHF) =  -868.339064465     A.U. after   16 cycles
 E2 =    -0.2600689178D+01 EUMP2 =    -0.87093975364283D+03

 The electronic state is 1-A.
 Alpha  occ. eigenvalues --  -20.61995 -20.61985 -20.60717 -20.60705 -15.87025
 Alpha  occ. eigenvalues --  -15.85764 -11.32342 -11.31057 -11.28879 -11.28863
 Alpha  occ. eigenvalues --  -11.28576 -11.27844 -11.27833 -11.27645 -11.27583
 Alpha  occ. eigenvalues --  -11.27254 -11.26583 -11.26530  -1.61077  -1.59791
 Alpha  occ. eigenvalues --   -1.40621  -1.39347  -1.20513  -1.19209  -1.09904
 Alpha  occ. eigenvalues --   -1.08600  -1.05866  -1.04602  -0.96737  -0.95454
 Alpha  occ. eigenvalues --   -0.87255  -0.85989  -0.83543  -0.82292  -0.78612
 Alpha  occ. eigenvalues --   -0.77365  -0.73220  -0.72460  -0.71982  -0.71546
 Alpha  occ. eigenvalues --   -0.71114  -0.70254  -0.66124  -0.65815  -0.64851
 Alpha  occ. eigenvalues --   -0.64590  -0.63179  -0.61960  -0.56328  -0.55045
 Alpha  occ. eigenvalues --   -0.54276  -0.53911  -0.52936  -0.52630  -0.49998
 Alpha  occ. eigenvalues --   -0.49981  -0.48745  -0.48730  -0.46014  -0.44769
 Alpha  occ. eigenvalues --   -0.38499  -0.37557  -0.37091  -0.36203
 Alpha virt. eigenvalues --    0.03869   0.05164   0.10142   0.11447   0.15370
 Alpha virt. eigenvalues --    0.16696   0.20488   0.21415   0.26454   0.27242
 Alpha virt. eigenvalues --    0.27306   0.27923   0.30151   0.30891   0.31716

 Mulliken charges:
               1
     1  C   -0.173601
     2  C   -0.219339
     3  C   -0.171619
     4  C    0.158303
     5  C   -0.172933
     6  C   -0.223859
     7  H    0.231380
     8  H    0.228087
     9  H    0.275501
    10  H    0.271998
    11  H    0.224638
    12  N    0.488140
    13  O   -0.462671
    14  O   -0.460097
    15  C   -0.173355
    16  C   -0.221373
    17  C   -0.174485
    18  C    0.150185
    19  C   -0.171728
    20  C   -0.219757
    21  H    0.230863
    22  H    0.229341
    23  H    0.279054
    24  H    0.278796
    25  H    0.228288
    26  N    0.485867
    27  O   -0.455490
    28  O   -0.460135
 Sum of Mulliken charges =  -0.00000

 Dipole moment (field-independent basis, Debye):
    X=             -4.5626    Y=              3.1712    Z=             -0.0392  Tot=              5.5566
 Quadrupole moment (field-independent basis, Debye-Ang):
   XX=           -140.8552   YY=           -101.1016   ZZ=           -101.1250
   XY=            -26.3009   XZ=              1.3314   YZ=             -0.3707

 Normal termination of Gaussian 16 at Thu May  6 13:07:19 2021.
