 Gaussian 16, Revision A.03,
 Gaussian 16:  EM64L-G16RevA.03 25-Dec-2016

 -------------
 #p 6-31g* mp2
 -------------

 ------------------------------------------------------
 Input file generated by CHIRIPA (05-May-2021 14:51:11)
 ------------------------------------------------------
 Symbolic Z-matrix:
 Charge =  0 Multiplicity = 1

                         Standard orientation:
 ---------------------------------------------------------------------
 Center     Atomic      Atomic             Coordinates (Angstroms)
 Number     Number       Type             X           Y           Z
 ---------------------------------------------------------------------
      1          6           0       -4.299159   -0.189894   -0.365269
      2          6           0       -5.696076   -0.593763    0.107487
      3          6           0       -6.721912   -0.610679   -1.026166
      4          1           0       -4.349638    0.803892   -0.830871
      5          1           0       -3.969436   -0.885884   -1.149027
      6          1           0       -6.022496    0.101957    0.891093
      7          1           0       -5.642230   -1.586622    0.572189
      8          1           0       -6.422650   -1.318443   -1.805982
      9          1           0       -6.805076    0.379730   -1.485266
     10          1           0       -7.713508   -0.902008   -0.665994
     11          6           0       -3.262576   -0.168347    0.756675
     12          6           0       -1.865659    0.235522    0.283919
     13          6           0       -0.839823    0.252438    1.417572
     14          1           0       -3.592299    0.527643    1.540433
     15          1           0       -3.212097   -1.162133    1.222277
     16          1           0       -1.919504    1.228381   -0.180783
     17          1           0       -1.539238   -0.460198   -0.499687
     18          1           0       -0.756658   -0.737971    1.876673
     19          1           0       -1.139085    0.960202    2.197389
     20          1           0        0.151774    0.543767    1.057400
     21          6           0        3.384529    0.733182    0.149788
     22          6           0        3.035491    1.897712   -0.777588
     23          6           0        2.242574    2.998213   -0.071915
     24          1           0        2.458099    0.311826    0.563469
     25          1           0        3.963093    1.113683    1.002945
     26          1           0        2.458942    1.514914   -1.629453
     27          1           0        3.962849    2.316222   -1.189259
     28          1           0        2.814579    3.407633    0.767006
     29          1           0        1.302127    2.601772    0.324311
     30          1           0        2.003721    3.820777   -0.753234
     31          6           0        4.177205   -0.374940   -0.541194
     32          6           0        4.526243   -1.539471    0.386183
     33          6           0        5.319161   -2.639971   -0.319492
     34          1           0        3.598642   -0.755442   -1.394351
     35          1           0        5.103635    0.046415   -0.954875
     36          1           0        3.598886   -1.957981    0.797853
     37          1           0        5.102793   -1.156674    1.238047
     38          1           0        6.259608   -2.243532   -0.715717
     39          1           0        4.747156   -3.049392   -1.158413
     40          1           0        5.558014   -3.462536    0.361828
 ---------------------------------------------------------------------

 SCF Done:  E(RHF) =  -470.732899312     A.U. after   11 cycles
 E2 =    -0.1583112252D+01 EUMP2 =    -0.47231601156408D+03

 The electronic state is 1-A.
 Alpha  occ. eigenvalues --  -11.21655 -11.21620 -11.21594 -11.21588 -11.21435
 Alpha  occ. eigenvalues --  -11.21392 -11.21375 -11.21332 -11.21111 -11.21086
 Alpha  occ. eigenvalues --  -11.21063 -11.21044  -1.08467  -1.08422  -1.03580
 Alpha  occ. eigenvalues --   -1.03511  -0.96024  -0.95967  -0.87040  -0.86987
 Alpha  occ. eigenvalues --   -0.79655  -0.79560  -0.78277  -0.78237  -0.65092
 Alpha  occ. eigenvalues --   -0.65084  -0.61005  -0.60939  -0.59483  -0.59233
 Alpha  occ. eigenvalues --   -0.57646  -0.57559  -0.55357  -0.55206  -0.52766
 Alpha  occ. eigenvalues --   -0.52650  -0.52452  -0.52394  -0.49991  -0.49879
 Alpha  occ. eigenvalues --   -0.48031  -0.47836  -0.46660  -0.46597  -0.45824
 Alpha  occ. eigenvalues --   -0.45768  -0.45741  -0.45690  -0.43784  -0.43728
 Alpha virt. eigenvalues --    0.20911   0.23082   0.23600   0.25066   0.26261
 Alpha virt. eigenvalues --    0.26573   0.27241   0.27429   0.27772   0.28993
 Alpha virt. eigenvalues --    0.30835   0.31370   0.31646   0.31825   0.31969

 Mulliken charges:
               1
     1  C   -0.298267
     2  C   -0.299683
     3  C   -0.475726
     4  H    0.149794
     5  H    0.149475
     6  H    0.152025
     7  H    0.151961
     8  H    0.155178
     9  H    0.155242
    10  H    0.160329
    11  C   -0.298539
    12  C   -0.299526
    13  C   -0.487488
    14  H    0.149796
    15  H    0.149759
    16  H    0.152504
    17  H    0.151596
    18  H    0.155328
    19  H    0.155952
    20  H    0.170696
    21  C   -0.306322
    22  C   -0.299385
    23  C   -0.480871
    24  H    0.156381
    25  H    0.149776
    26  H    0.151764
    27  H    0.152086
    28  H    0.155285
    29  H    0.160045
    30  H    0.160197
    31  C   -0.297582
    32  C   -0.299780
    33  C   -0.475709
    34  H    0.149354
    35  H    0.149669
    36  H    0.152213
    37  H    0.152003
    38  H    0.155162
    39  H    0.155085
    40  H    0.160225
 Sum of Mulliken charges =  -0.00000

 Dipole moment (field-independent basis, Debye):
    X=             -0.0153    Y=             -0.0003    Z=              0.0109  Tot=              0.0188
 Quadrupole moment (field-independent basis, Debye-Ang):
   XX=            -85.0302   YY=            -84.3868   ZZ=            -85.3413
   XY=              0.6266   XZ=             -0.1877   YZ=             -0.0450

 Normal termination of Gaussian 16 at Thu May  6 03:50:17 2021.
