 Gaussian 16, Revision A.03,
 Gaussian 16:  EM64L-G16RevA.03 25-Dec-2016

 -------------
 #p 6-31g* mp2
 -------------

 ------------------------------------------------------
 Input file generated by CHIRIPA (05-May-2021 14:51:12)
 ------------------------------------------------------
 Symbolic Z-matrix:
 Charge =  0 Multiplicity = 1

                         Standard orientation:
 ---------------------------------------------------------------------
 Center     Atomic      Atomic             Coordinates (Angstroms)
 Number     Number       Type             X           Y           Z
 ---------------------------------------------------------------------
      1          6           0        2.505778   -0.639553   -0.363749
      2          6           0        2.199196   -1.202718   -1.751855
      3          6           0        2.289532   -2.728137   -1.804109
      4          1           0        3.511739   -0.959360   -0.059267
      5          1           0        1.806094   -1.074348    0.363431
      6          1           0        2.898359   -0.765937   -2.476431
      7          1           0        1.193922   -0.881375   -2.053150
      8          1           0        1.580365   -3.180279   -1.103217
      9          1           0        3.294487   -3.064186   -1.528903
     10          1           0        2.066668   -3.109435   -2.805509
     11          6           0        2.419519    0.884138   -0.295547
     12          6           0        2.726101    1.447302    1.092560
     13          6           0        2.635765    2.972721    1.144813
     14          1           0        3.119203    1.318933   -1.022727
     15          1           0        1.413557    1.203944   -0.600029
     16          1           0        3.731375    1.125959    1.393854
     17          1           0        2.026937    1.010522    1.817135
     18          1           0        1.630810    3.308771    0.869607
     19          1           0        3.344932    3.424864    0.443921
     20          1           0        2.858629    3.354020    2.146213
     21          6           0       -2.536584   -0.676608    0.849936
     22          6           0       -1.316815   -0.819939    1.760761
     23          6           0       -1.479840   -1.932960    2.796330
     24          1           0       -3.424828   -0.479331    1.465608
     25          1           0       -2.717213   -1.631764    0.337643
     26          1           0       -1.137709    0.135611    2.270136
     27          1           0       -0.431339   -1.016708    1.142836
     28          1           0       -1.635756   -2.897988    2.303369
     29          1           0       -2.346140   -1.739124    3.437074
     30          1           0       -0.596410   -2.017970    3.436788
     31          6           0       -2.388713    0.432023   -0.190640
     32          6           0       -3.608482    0.575354   -1.101466
     33          6           0       -3.445457    1.688375   -2.137034
     34          1           0       -2.208082    1.387179    0.321653
     35          1           0       -1.500469    0.234746   -0.806312
     36          1           0       -4.493958    0.772123   -0.483541
     37          1           0       -3.787588   -0.380195   -1.610841
     38          1           0       -2.579157    1.494539   -2.777778
     39          1           0       -3.289541    2.653403   -1.644073
     40          1           0       -4.328886    1.773385   -2.777492
 ---------------------------------------------------------------------

 SCF Done:  E(RHF) =  -470.733390150     A.U. after   11 cycles
 E2 =    -0.1583973258D+01 EUMP2 =    -0.47231736340856D+03

 The electronic state is 1-A.
 Alpha  occ. eigenvalues --  -11.21680 -11.21665 -11.21642 -11.21558 -11.21494
 Alpha  occ. eigenvalues --  -11.21433 -11.21385 -11.21322 -11.21141 -11.21118
 Alpha  occ. eigenvalues --  -11.21111 -11.21042  -1.08523  -1.08414  -1.03602
 Alpha  occ. eigenvalues --   -1.03528  -0.96048  -0.95977  -0.87064  -0.86993
 Alpha  occ. eigenvalues --   -0.79679  -0.79587  -0.78344  -0.78222  -0.65308
 Alpha  occ. eigenvalues --   -0.64913  -0.61039  -0.60888  -0.59417  -0.59344
 Alpha  occ. eigenvalues --   -0.57675  -0.57574  -0.55345  -0.55262  -0.52738
 Alpha  occ. eigenvalues --   -0.52675  -0.52472  -0.52404  -0.50032  -0.49892
 Alpha  occ. eigenvalues --   -0.48023  -0.47915  -0.46859  -0.46538  -0.46131
 Alpha  occ. eigenvalues --   -0.45806  -0.45642  -0.45381  -0.43857  -0.43777
 Alpha virt. eigenvalues --    0.19206   0.23087   0.23796   0.23845   0.25366
 Alpha virt. eigenvalues --    0.26396   0.26873   0.27849   0.28348   0.30424
 Alpha virt. eigenvalues --    0.30664   0.31448   0.31693   0.31799   0.32236

 Mulliken charges:
               1
     1  C   -0.304639
     2  C   -0.301090
     3  C   -0.475591
     4  H    0.150070
     5  H    0.155351
     6  H    0.152464
     7  H    0.151770
     8  H    0.154574
     9  H    0.155623
    10  H    0.160289
    11  C   -0.300071
    12  C   -0.300934
    13  C   -0.475774
    14  H    0.149357
    15  H    0.152106
    16  H    0.151560
    17  H    0.153814
    18  H    0.155314
    19  H    0.155036
    20  H    0.159967
    21  C   -0.297668
    22  C   -0.309022
    23  C   -0.475486
    24  H    0.150202
    25  H    0.149716
    26  H    0.152359
    27  H    0.159510
    28  H    0.155244
    29  H    0.155674
    30  H    0.160536
    31  C   -0.301503
    32  C   -0.299692
    33  C   -0.475840
    34  H    0.149585
    35  H    0.151535
    36  H    0.152341
    37  H    0.152200
    38  H    0.155236
    39  H    0.155280
    40  H    0.160596
 Sum of Mulliken charges =  -0.00000

 Dipole moment (field-independent basis, Debye):
    X=             -0.0266    Y=             -0.0049    Z=              0.0096  Tot=              0.0287
 Quadrupole moment (field-independent basis, Debye-Ang):
   XX=            -83.5566   YY=            -86.1338   ZZ=            -84.9621
   XY=             -0.1879   XZ=             -0.5512   YZ=              0.8037

 Normal termination of Gaussian 16 at Thu May  6 07:05:26 2021.
