 Gaussian 16, Revision A.03,
 Gaussian 16:  EM64L-G16RevA.03 25-Dec-2016

 -------------
 #p 6-31g* mp2
 -------------

 ------------------------------------------------------
 Input file generated by CHIRIPA (05-May-2021 14:51:10)
 ------------------------------------------------------
 Symbolic Z-matrix:
 Charge =  0 Multiplicity = 1

                         Standard orientation:
 ---------------------------------------------------------------------
 Center     Atomic      Atomic             Coordinates (Angstroms)
 Number     Number       Type             X           Y           Z
 ---------------------------------------------------------------------
      1          6           0       -3.430836   -0.586005    0.624724
      2          6           0       -2.161299    0.266165    0.632976
      3          6           0       -1.046967   -0.341485    1.485512
      4          1           0       -3.785295   -0.714473    1.656615
      5          1           0       -3.187667   -1.590095    0.250468
      6          1           0       -2.407065    1.268770    1.005801
      7          1           0       -1.809929    0.392779   -0.399072
      8          1           0       -0.773243   -1.333402    1.111642
      9          1           0       -1.373772   -0.452433    2.524497
     10          1           0       -0.148813    0.283905    1.477315
     11          6           0       -4.553942    0.008368   -0.223262
     12          6           0       -5.823479   -0.843803   -0.231514
     13          6           0       -6.937811   -0.236152   -1.084051
     14          1           0       -4.797111    1.012458    0.150993
     15          1           0       -4.199483    0.136835   -1.255154
     16          1           0       -6.174849   -0.970417    0.800534
     17          1           0       -5.577713   -1.846408   -0.604339
     18          1           0       -6.611006   -0.125204   -2.123036
     19          1           0       -7.211535    0.755764   -0.710180
     20          1           0       -7.835965   -0.861542   -1.075853
     21          6           0        4.503135   -0.158586    0.149125
     22          6           0        5.349805   -0.984801   -0.819638
     23          6           0        6.366938   -1.874799   -0.104698
     24          1           0        5.165753    0.462722    0.767073
     25          1           0        3.979038   -0.836486    0.836999
     26          1           0        5.871070   -0.305609   -1.506366
     27          1           0        4.685083   -1.604072   -1.435482
     28          1           0        5.860717   -2.575313    0.567329
     29          1           0        7.053443   -1.269471    0.496042
     30          1           0        6.961379   -2.456582   -0.816055
     31          6           0        3.481643    0.736223   -0.550587
     32          6           0        2.634974    1.562439    0.418176
     33          6           0        1.617839    2.452437   -0.296763
     34          1           0        4.005740    1.414122   -1.238461
     35          1           0        2.819025    0.114916   -1.168534
     36          1           0        3.299695    2.181711    1.034020
     37          1           0        2.113708    0.883247    1.104905
     38          1           0        0.931335    1.847109   -0.897504
     39          1           0        2.124061    3.152950   -0.968792
     40          1           0        1.023399    3.034220    0.414594
 ---------------------------------------------------------------------

 SCF Done:  E(RHF) =  -470.733227544     A.U. after   11 cycles
 E2 =    -0.1582849081D+01 EUMP2 =    -0.47231607662490D+03

 The electronic state is 1-A.
 Alpha  occ. eigenvalues --  -11.21604 -11.21602 -11.21596 -11.21595 -11.21405
 Alpha  occ. eigenvalues --  -11.21398 -11.21346 -11.21338 -11.21077 -11.21070
 Alpha  occ. eigenvalues --  -11.21064 -11.21056  -1.08441  -1.08417  -1.03568
 Alpha  occ. eigenvalues --   -1.03495  -0.96024  -0.95937  -0.87001  -0.86993
 Alpha  occ. eigenvalues --   -0.79649  -0.79540  -0.78255  -0.78226  -0.65094
 Alpha  occ. eigenvalues --   -0.65043  -0.61048  -0.60901  -0.59450  -0.59215
 Alpha  occ. eigenvalues --   -0.57670  -0.57499  -0.55298  -0.55221  -0.52704
 Alpha  occ. eigenvalues --   -0.52641  -0.52404  -0.52391  -0.49949  -0.49895
 Alpha  occ. eigenvalues --   -0.47965  -0.47869  -0.46675  -0.46574  -0.45797
 Alpha  occ. eigenvalues --   -0.45777  -0.45717  -0.45683  -0.43807  -0.43718
 Alpha virt. eigenvalues --    0.20896   0.23097   0.23519   0.25360   0.26239
 Alpha virt. eigenvalues --    0.26426   0.26977   0.27342   0.28005   0.29044
 Alpha virt. eigenvalues --    0.30211   0.30666   0.31532   0.31672   0.32246

 Mulliken charges:
               1
     1  C   -0.298600
     2  C   -0.298896
     3  C   -0.484908
     4  H    0.149693
     5  H    0.149325
     6  H    0.152193
     7  H    0.152069
     8  H    0.154314
     9  H    0.155194
    10  H    0.169680
    11  C   -0.298226
    12  C   -0.299630
    13  C   -0.475703
    14  H    0.149627
    15  H    0.149625
    16  H    0.151938
    17  H    0.151866
    18  H    0.155189
    19  H    0.155221
    20  H    0.160239
    21  C   -0.298546
    22  C   -0.299649
    23  C   -0.475724
    24  H    0.149624
    25  H    0.150052
    26  H    0.151864
    27  H    0.151883
    28  H    0.155275
    29  H    0.155177
    30  H    0.160197
    31  C   -0.297773
    32  C   -0.305871
    33  C   -0.477226
    34  H    0.149497
    35  H    0.149648
    36  H    0.152248
    37  H    0.156437
    38  H    0.156884
    39  H    0.155452
    40  H    0.160337
 Sum of Mulliken charges =  -0.00000

 Dipole moment (field-independent basis, Debye):
    X=              0.0055    Y=              0.0123    Z=              0.0013  Tot=              0.0135
 Quadrupole moment (field-independent basis, Debye-Ang):
   XX=            -85.6443   YY=            -84.5480   ZZ=            -84.5827
   XY=              1.1491   XZ=             -1.1182   YZ=              0.8451

 Normal termination of Gaussian 16 at Wed May  5 23:02:17 2021.
