 Gaussian 16, Revision A.03,
 Gaussian 16:  EM64L-G16RevA.03 25-Dec-2016

 -------------
 #p 6-31g* mp2
 -------------

 ------------------------------------------------------
 Input file generated by CHIRIPA (05-May-2021 14:57:26)
 ------------------------------------------------------
 Symbolic Z-matrix:
 Charge =  0 Multiplicity = 1

                         Standard orientation:
 ---------------------------------------------------------------------
 Center     Atomic      Atomic             Coordinates (Angstroms)
 Number     Number       Type             X           Y           Z
 ---------------------------------------------------------------------
      1          6           0        4.274154   -2.395106    0.354533
      2          6           0        5.003673   -1.628887   -0.560469
      3          6           0        4.657681   -0.296806   -0.806233
      4          6           0        3.571551    0.239465   -0.116287
      5          6           0        2.825170   -0.498226    0.801327
      6          6           0        3.189143   -1.828330    1.031318
      7          1           0        4.549913   -3.429131    0.539322
      8          1           0        5.846779   -2.066424   -1.087516
      9          1           0        5.205206    0.319063   -1.509325
     10          1           0        1.989697   -0.034369    1.311463
     11          1           0        2.620781   -2.421008    1.742473
     12          7           0        3.195747    1.648633   -0.368116
     13          8           0        2.234664    2.097704    0.252603
     14          8           0        3.869390    2.277384   -1.181451
     15          6           0       -1.553487    1.068406    1.014225
     16          6           0       -1.544155   -0.285775    0.664041
     17          6           0       -2.690842   -0.892223    0.142622
     18          6           0       -3.834575   -0.111205   -0.016041
     19          6           0       -3.875275    1.240222    0.323489
     20          6           0       -2.716967    1.825747    0.843133
     21          1           0       -0.658200    1.531383    1.418586
     22          1           0       -0.642012   -0.876382    0.795821
     23          1           0       -2.711324   -1.938623   -0.136745
     24          1           0       -4.789651    1.803181    0.180623
     25          1           0       -2.727119    2.877627    1.114225
     26          7           0       -5.054673   -0.742149   -0.567103
     27          8           0       -6.049576   -0.032300   -0.697174
     28          8           0       -4.992980   -1.934587   -0.858521
 ---------------------------------------------------------------------

 SCF Done:  E(RHF) =  -868.338521189     A.U. after   16 cycles
 E2 =    -0.2599673503D+01 EUMP2 =    -0.87093819469191D+03

 The electronic state is 1-A.
 Alpha  occ. eigenvalues --  -20.61778 -20.61728 -20.60568 -20.60557 -15.86803
 Alpha  occ. eigenvalues --  -15.85620 -11.32103 -11.30903 -11.28761 -11.28586
 Alpha  occ. eigenvalues --  -11.28318 -11.27687 -11.27577 -11.27549 -11.27462
 Alpha  occ. eigenvalues --  -11.27099 -11.26549 -11.26374  -1.60811  -1.59644
 Alpha  occ. eigenvalues --   -1.40375  -1.39200  -1.20251  -1.19076  -1.09640
 Alpha  occ. eigenvalues --   -1.08459  -1.05656  -1.04490  -0.96500  -0.95305
 Alpha  occ. eigenvalues --   -0.87048  -0.85885  -0.83348  -0.82157  -0.78422
 Alpha  occ. eigenvalues --   -0.77243  -0.73036  -0.72120  -0.71840  -0.71353
 Alpha  occ. eigenvalues --   -0.70967  -0.70100  -0.65907  -0.65657  -0.64727
 Alpha  occ. eigenvalues --   -0.64524  -0.63013  -0.61850  -0.56113  -0.54880
 Alpha  occ. eigenvalues --   -0.53963  -0.53746  -0.52796  -0.52584  -0.49793
 Alpha  occ. eigenvalues --   -0.49749  -0.48598  -0.48590  -0.45791  -0.44625
 Alpha  occ. eigenvalues --   -0.38187  -0.37254  -0.36994  -0.36104
 Alpha virt. eigenvalues --    0.04101   0.05331   0.10374   0.11565   0.15608
 Alpha virt. eigenvalues --    0.16853   0.18740   0.22054   0.25259   0.26679
 Alpha virt. eigenvalues --    0.27743   0.29026   0.30502   0.31250   0.32094

 Mulliken charges:
               1
     1  C   -0.169686
     2  C   -0.217607
     3  C   -0.169609
     4  C    0.160246
     5  C   -0.173592
     6  C   -0.219633
     7  H    0.229253
     8  H    0.227242
     9  H    0.278329
    10  H    0.267751
    11  H    0.223991
    12  N    0.491259
    13  O   -0.471045
    14  O   -0.454127
    15  C   -0.171280
    16  C   -0.220385
    17  C   -0.170988
    18  C    0.157540
    19  C   -0.170442
    20  C   -0.219509
    21  H    0.240733
    22  H    0.211926
    23  H    0.272747
    24  H    0.275274
    25  H    0.226471
    26  N    0.488265
    27  O   -0.460540
    28  O   -0.462582
 Sum of Mulliken charges =  -0.00000

 Dipole moment (field-independent basis, Debye):
    X=              6.0081    Y=             -2.6387    Z=              2.7280  Tot=              7.1065
 Quadrupole moment (field-independent basis, Debye-Ang):
   XX=           -123.9549   YY=           -104.1789   ZZ=           -104.1946
   XY=            -29.4537   XZ=             -8.0415   YZ=              0.6194

 Normal termination of Gaussian 16 at Thu May  6 08:21:29 2021.
