 Gaussian 16, Revision A.03,
 Gaussian 16:  EM64L-G16RevA.03 25-Dec-2016

 -------------
 #p 6-31g* mp2
 -------------

 ------------------------------------------------------
 Input file generated by CHIRIPA (05-May-2021 14:55:21)
 ------------------------------------------------------
 Symbolic Z-matrix:
 Charge =  0 Multiplicity = 1

                         Standard orientation:
 ---------------------------------------------------------------------
 Center     Atomic      Atomic             Coordinates (Angstroms)
 Number     Number       Type             X           Y           Z
 ---------------------------------------------------------------------
      1          6           0       -2.035793    2.624627   -0.076699
      2          6           0       -1.357088    1.725095   -0.905387
      3          6           0       -1.778058    0.395697   -1.005559
      4          6           0       -2.886533   -0.001982   -0.259619
      5          6           0       -3.583627    0.870452    0.574772
      6          6           0       -3.144941    2.195191    0.659438
      7          1           0       -1.701892    3.655525   -0.004906
      8          1           0       -0.495395    2.055809   -1.478237
      9          1           0       -1.271055   -0.321683   -1.639381
     10          1           0       -4.439289    0.511370    1.133628
     11          1           0       -3.673963    2.891579    1.303817
     12          7           0       -3.341573   -1.406890   -0.357459
     13          8           0       -4.320940   -1.732415    0.310006
     14          8           0       -2.710249   -2.155929   -1.099758
     15          6           0        4.148003    0.199969    0.116937
     16          6           0        5.473320   -0.475638   -0.236718
     17          6           0        6.562227    0.525343   -0.624164
     18          1           0        3.809308    0.799258   -0.739267
     19          1           0        4.312440    0.903144    0.945129
     20          1           0        5.306158   -1.178347   -1.063079
     21          1           0        5.808803   -1.073540    0.620359
     22          1           0        6.757989    1.219606    0.199411
     23          1           0        6.252488    1.114205   -1.493593
     24          1           0        7.501079    0.020907   -0.873085
     25          6           0        3.049531   -0.787654    0.506408
     26          6           0        1.724214   -0.112046    0.860063
     27          6           0        0.635307   -1.113027    1.247509
     28          1           0        2.885095   -1.490828   -0.321784
     29          1           0        3.388226   -1.386942    1.362612
     30          1           0        1.388732    0.485856    0.002986
     31          1           0        1.891377    0.590663    1.686424
     32          1           0        0.945046   -1.701889    2.116938
     33          1           0        0.439545   -1.807291    0.423934
     34          1           0       -0.303545   -0.608591    1.496430
 ---------------------------------------------------------------------

 SCF Done:  E(RHF) =  -669.534982981     A.U. after   15 cycles
 E2 =    -0.2093422238D+01 EUMP2 =    -0.67162840521894D+03

 The electronic state is 1-A.
 Alpha  occ. eigenvalues --  -20.60792 -20.60785 -15.85838 -11.31198 -11.27801
 Alpha  occ. eigenvalues --  -11.27784 -11.27539 -11.26805 -11.26793 -11.21808
 Alpha  occ. eigenvalues --  -11.21796 -11.21645 -11.21536 -11.21277 -11.20987
 Alpha  occ. eigenvalues --   -1.59859  -1.39413  -1.19404  -1.08787  -1.08631
 Alpha  occ. eigenvalues --   -1.04814  -1.03685  -0.96125  -0.95616  -0.87139
 Alpha  occ. eigenvalues --   -0.86194  -0.82457  -0.79758  -0.78454  -0.77499
 Alpha  occ. eigenvalues --   -0.72060  -0.71182  -0.70504  -0.65281  -0.65047
 Alpha  occ. eigenvalues --   -0.64806  -0.62180  -0.61080  -0.59529  -0.57772
 Alpha  occ. eigenvalues --   -0.55450  -0.55277  -0.53345  -0.52898  -0.52659
 Alpha  occ. eigenvalues --   -0.52369  -0.50056  -0.48818  -0.48813  -0.48068
 Alpha  occ. eigenvalues --   -0.46811  -0.45996  -0.45923  -0.44807  -0.43954
 Alpha  occ. eigenvalues --   -0.37349  -0.36353
 Alpha virt. eigenvalues --    0.05012   0.11210   0.16414   0.20642   0.22813
 Alpha virt. eigenvalues --    0.24072   0.25796   0.26814   0.27544   0.28078
 Alpha virt. eigenvalues --    0.28366   0.30397   0.31272   0.31407   0.32171

 Mulliken charges:
               1
     1  C   -0.171489
     2  C   -0.216386
     3  C   -0.167020
     4  C    0.158616
     5  C   -0.172103
     6  C   -0.218738
     7  H    0.226029
     8  H    0.223415
     9  H    0.275533
    10  H    0.275905
    11  H    0.223639
    12  N    0.488846
    13  O   -0.460289
    14  O   -0.460734
    15  C   -0.297347
    16  C   -0.299811
    17  C   -0.475686
    18  H    0.145030
    19  H    0.149041
    20  H    0.152904
    21  H    0.153344
    22  H    0.154926
    23  H    0.153943
    24  H    0.161370
    25  C   -0.298594
    26  C   -0.299086
    27  C   -0.481337
    28  H    0.150799
    29  H    0.151883
    30  H    0.142239
    31  H    0.150686
    32  H    0.156781
    33  H    0.161611
    34  H    0.162079
 Sum of Mulliken charges =  -0.00000

 Dipole moment (field-independent basis, Debye):
    X=              1.5553    Y=              4.8940    Z=              0.3670  Tot=              5.1483
 Quadrupole moment (field-independent basis, Debye-Ang):
   XX=           -102.3085   YY=            -95.4539   ZZ=            -92.4876
   XY=            -15.9493   XZ=             -3.5836   YZ=             -0.3335

 Normal termination of Gaussian 16 at Thu May  6 04:35:48 2021.
