 Gaussian 16, Revision A.03,
 Gaussian 16:  EM64L-G16RevA.03 25-Dec-2016

 -------------
 #p 6-31g* mp2
 -------------

 ------------------------------------------------------
 Input file generated by CHIRIPA (05-May-2021 14:55:19)
 ------------------------------------------------------
 Symbolic Z-matrix:
 Charge =  0 Multiplicity = 1

                         Standard orientation:
 ---------------------------------------------------------------------
 Center     Atomic      Atomic             Coordinates (Angstroms)
 Number     Number       Type             X           Y           Z
 ---------------------------------------------------------------------
      1          6           0       -0.645816   -0.124672    1.419944
      2          6           0       -1.695361    0.659580    1.909764
      3          6           0       -2.907833    0.735432    1.217879
      4          6           0       -3.036888    0.010749    0.034042
      5          6           0       -2.009725   -0.779418   -0.479633
      6          6           0       -0.806065   -0.840406    0.228909
      7          1           0        0.292639   -0.177822    1.963887
      8          1           0       -1.573741    1.216500    2.834477
      9          1           0       -3.736702    1.334812    1.574444
     10          1           0       -2.160789   -1.323299   -1.404182
     11          1           0        0.007313   -1.450281   -0.153865
     12          7           0       -4.315813    0.083182   -0.707243
     13          8           0       -4.404328   -0.564793   -1.747883
     14          8           0       -5.205503    0.786558   -0.233586
     15          6           0        3.310338   -0.600709    0.155648
     16          6           0        3.774742   -1.942123   -0.412615
     17          6           0        3.151762   -3.137412    0.309170
     18          1           0        3.560171   -0.556305    1.224552
     19          1           0        2.215237   -0.541087    0.087872
     20          1           0        4.868752   -1.998621   -0.345056
     21          1           0        3.523946   -1.983261   -1.480336
     22          1           0        2.060154   -3.108678    0.230637
     23          1           0        3.412602   -3.124125    1.372366
     24          1           0        3.497423   -4.086120   -0.113124
     25          6           0        3.924492    0.603754   -0.555558
     26          6           0        3.460088    1.945167    0.012706
     27          6           0        4.083068    3.140457   -0.709080
     28          1           0        5.019593    0.544131   -0.487782
     29          1           0        3.674658    0.559349   -1.624462
     30          1           0        3.710884    1.986305    1.080425
     31          1           0        2.366077    2.001666   -0.054854
     32          1           0        3.822228    3.127170   -1.772276
     33          1           0        5.174675    3.111722   -0.630547
     34          1           0        3.737406    4.089164   -0.286786
 ---------------------------------------------------------------------

 SCF Done:  E(RHF) =  -669.535201857     A.U. after   15 cycles
 E2 =    -0.2092547599D+01 EUMP2 =    -0.67162774945618D+03

 The electronic state is 1-A.
 Alpha  occ. eigenvalues --  -20.60757 -20.60752 -15.85811 -11.31178 -11.27751
 Alpha  occ. eigenvalues --  -11.27748 -11.27459 -11.26749 -11.26736 -11.22595
 Alpha  occ. eigenvalues --  -11.22500 -11.22339 -11.22201 -11.22151 -11.21635
 Alpha  occ. eigenvalues --   -1.59833  -1.39386  -1.19351  -1.09372  -1.08738
 Alpha  occ. eigenvalues --   -1.04758  -1.04396  -0.96855  -0.95574  -0.87865
 Alpha  occ. eigenvalues --   -0.86162  -0.82408  -0.80473  -0.79207  -0.77459
 Alpha  occ. eigenvalues --   -0.72029  -0.71156  -0.70442  -0.66085  -0.64996
 Alpha  occ. eigenvalues --   -0.64726  -0.62171  -0.61717  -0.60219  -0.58466
 Alpha  occ. eigenvalues --   -0.56165  -0.55230  -0.53508  -0.53292  -0.53066
 Alpha  occ. eigenvalues --   -0.52864  -0.50802  -0.48830  -0.48784  -0.48738
 Alpha  occ. eigenvalues --   -0.47495  -0.46704  -0.46620  -0.44792  -0.44663
 Alpha  occ. eigenvalues --   -0.37308  -0.36356
 Alpha virt. eigenvalues --    0.05067   0.11165   0.16538   0.19073   0.22675
 Alpha virt. eigenvalues --    0.23361   0.25169   0.25745   0.26657   0.28151
 Alpha virt. eigenvalues --    0.29461   0.29881   0.30939   0.31383   0.31795

 Mulliken charges:
               1
     1  C   -0.172404
     2  C   -0.219113
     3  C   -0.170883
     4  C    0.158577
     5  C   -0.172062
     6  C   -0.225029
     7  H    0.229111
     8  H    0.223590
     9  H    0.275600
    10  H    0.275842
    11  H    0.230041
    12  N    0.488041
    13  O   -0.460455
    14  O   -0.460433
    15  C   -0.306501
    16  C   -0.300890
    17  C   -0.478455
    18  H    0.148893
    19  H    0.145164
    20  H    0.156932
    21  H    0.154168
    22  H    0.147981
    23  H    0.157252
    24  H    0.166474
    25  C   -0.297563
    26  C   -0.302131
    27  C   -0.476080
    28  H    0.152689
    29  H    0.152503
    30  H    0.150139
    31  H    0.152977
    32  H    0.157547
    33  H    0.156434
    34  H    0.162046
 Sum of Mulliken charges =  -0.00000

 Dipole moment (field-independent basis, Debye):
    X=              4.7069    Y=             -0.2239    Z=              2.5655  Tot=              5.3653
 Quadrupole moment (field-independent basis, Debye-Ang):
   XX=           -120.7500   YY=            -93.9285   ZZ=            -92.2123
   XY=             -0.9628   XZ=             -8.8621   YZ=              2.9163

 Normal termination of Gaussian 16 at Thu May  6 02:54:47 2021.
