 Gaussian 16, Revision A.03,
 Gaussian 16:  EM64L-G16RevA.03 25-Dec-2016

 -------------
 #p 6-31g* mp2
 -------------

 ------------------------------------------------------
 Input file generated by CHIRIPA (05-May-2021 14:51:09)
 ------------------------------------------------------
 Symbolic Z-matrix:
 Charge =  0 Multiplicity = 1

                         Standard orientation:
 ---------------------------------------------------------------------
 Center     Atomic      Atomic             Coordinates (Angstroms)
 Number     Number       Type             X           Y           Z
 ---------------------------------------------------------------------
      1          6           0        2.738403   -0.141734    0.232271
      2          6           0        3.610186    0.060594   -1.007504
      3          6           0        4.510291    1.292104   -0.902673
      4          1           0        2.120844    0.753342    0.388494
      5          1           0        3.385219   -0.233315    1.115808
      6          1           0        2.961974    0.150383   -1.888625
      7          1           0        4.225602   -0.835144   -1.160904
      8          1           0        5.180571    1.207160   -0.041214
      9          1           0        3.909762    2.198287   -0.773070
     10          1           0        5.124808    1.417744   -1.799581
     11          6           0        1.833008   -1.368897    0.142512
     12          6           0        0.961225   -1.571225    1.382287
     13          6           0        0.061120   -2.802734    1.277457
     14          1           0        1.186192   -1.277315   -0.741025
     15          1           0        2.450567   -2.263973   -0.013711
     16          1           0        0.345809   -0.675487    1.535687
     17          1           0        1.609437   -1.661014    2.263408
     18          1           0        0.661649   -3.708918    1.147854
     19          1           0       -0.609159   -2.717791    0.415998
     20          1           0       -0.553397   -2.928375    2.174364
     21          6           0       -2.167104    0.006663   -0.281654
     22          6           0       -3.344646   -0.716066   -0.936667
     23          6           0       -3.092296   -2.213078   -1.118522
     24          1           0       -1.266944   -0.143240   -0.893362
     25          1           0       -1.961345   -0.452746    0.695076
     26          1           0       -3.549008   -0.254535   -1.911265
     27          1           0       -4.242149   -0.564266   -0.323429
     28          1           0       -2.910040   -2.693271   -0.151672
     29          1           0       -2.212961   -2.381781   -1.748530
     30          1           0       -3.946718   -2.710061   -1.588448
     31          6           0       -2.404307    1.503968   -0.093130
     32          6           0       -1.226766    2.226697    0.561884
     33          6           0       -1.479115    3.723708    0.743739
     34          1           0       -2.610065    1.963376   -1.069860
     35          1           0       -3.304467    1.653870    0.518579
     36          1           0       -0.329262    2.074897   -0.051354
     37          1           0       -1.022403    1.765167    1.536482
     38          1           0       -2.358451    3.892412    1.373747
     39          1           0       -1.661372    4.203901   -0.223111
     40          1           0       -0.624693    4.220691    1.213665
 ---------------------------------------------------------------------

 SCF Done:  E(RHF) =  -470.731429980     A.U. after   11 cycles
 E2 =    -0.1586400583D+01 EUMP2 =    -0.47231783056309D+03

 The electronic state is 1-A.
 Alpha  occ. eigenvalues --  -11.21715 -11.21664 -11.21577 -11.21477 -11.21435
 Alpha  occ. eigenvalues --  -11.21409 -11.21332 -11.21271 -11.21150 -11.21110
 Alpha  occ. eigenvalues --  -11.21057 -11.20871  -1.08558  -1.08325  -1.03638
 Alpha  occ. eigenvalues --   -1.03436  -0.96067  -0.95908  -0.87102  -0.86908
 Alpha  occ. eigenvalues --   -0.79732  -0.79489  -0.78397  -0.78155  -0.65168
 Alpha  occ. eigenvalues --   -0.64994  -0.61037  -0.60879  -0.59446  -0.59264
 Alpha  occ. eigenvalues --   -0.57802  -0.57429  -0.55355  -0.55211  -0.52756
 Alpha  occ. eigenvalues --   -0.52669  -0.52553  -0.52233  -0.50014  -0.49854
 Alpha  occ. eigenvalues --   -0.48136  -0.47772  -0.46779  -0.46471  -0.46187
 Alpha  occ. eigenvalues --   -0.45860  -0.45442  -0.45231  -0.43859  -0.43706
 Alpha virt. eigenvalues --    0.20172   0.22483   0.23408   0.24015   0.25116
 Alpha virt. eigenvalues --    0.25979   0.26858   0.27855   0.28976   0.29687
 Alpha virt. eigenvalues --    0.30622   0.31432   0.31612   0.31650   0.32566

 Mulliken charges:
               1
     1  C   -0.302411
     2  C   -0.299367
     3  C   -0.475583
     4  H    0.153405
     5  H    0.149492
     6  H    0.150936
     7  H    0.151987
     8  H    0.155279
     9  H    0.154857
    10  H    0.160087
    11  C   -0.299593
    12  C   -0.304751
    13  C   -0.484935
    14  H    0.150048
    15  H    0.149439
    16  H    0.158365
    17  H    0.150919
    18  H    0.154458
    19  H    0.167063
    20  H    0.157235
    21  C   -0.307088
    22  C   -0.298295
    23  C   -0.480973
    24  H    0.152075
    25  H    0.156514
    26  H    0.151837
    27  H    0.152137
    28  H    0.159952
    29  H    0.154741
    30  H    0.161305
    31  C   -0.297798
    32  C   -0.304830
    33  C   -0.475657
    34  H    0.149589
    35  H    0.149996
    36  H    0.154133
    37  H    0.153678
    38  H    0.155612
    39  H    0.155474
    40  H    0.160668
 Sum of Mulliken charges =  -0.00000

 Dipole moment (field-independent basis, Debye):
    X=             -0.0846    Y=              0.0279    Z=             -0.0079  Tot=              0.0895
 Quadrupole moment (field-independent basis, Debye-Ang):
   XX=            -84.5599   YY=            -86.3853   ZZ=            -83.8978
   XY=             -0.8397   XZ=             -0.0551   YZ=             -0.4467

 Normal termination of Gaussian 16 at Thu May  6 00:35:28 2021.
