 Gaussian 16, Revision A.03,
 Gaussian 16:  EM64L-G16RevA.03 25-Dec-2016

 -------------
 #p 6-31g* mp2
 -------------

 ------------------------------------------------------
 Input file generated by CHIRIPA (05-May-2021 14:57:27)
 ------------------------------------------------------
 Symbolic Z-matrix:
 Charge =  0 Multiplicity = 1

                         Standard orientation:
 ---------------------------------------------------------------------
 Center     Atomic      Atomic             Coordinates (Angstroms)
 Number     Number       Type             X           Y           Z
 ---------------------------------------------------------------------
      1          6           0       -2.724282    2.138352    1.433501
      2          6           0       -3.868881    1.413524    1.781406
      3          6           0       -4.232294    0.271612    1.061326
      4          6           0       -3.424595   -0.118768   -0.005686
      5          6           0       -2.278255    0.582297   -0.376771
      6          6           0       -1.934015    1.721161    0.357419
      7          1           0       -2.449421    3.024233    1.998357
      8          1           0       -4.484493    1.735182    2.616632
      9          1           0       -5.113156   -0.308144    1.309082
     10          1           0       -1.684402    0.237016   -1.214350
     11          1           0       -1.044555    2.282120    0.084969
     12          7           0       -3.799175   -1.326046   -0.775472
     13          8           0       -3.070858   -1.649172   -1.711304
     14          8           0       -4.813994   -1.926324   -0.428422
     15          6           0        2.437062    1.572456   -1.787776
     16          6           0        1.728160    0.403000   -1.493921
     17          6           0        2.231561   -0.519761   -0.572157
     18          6           0        3.452362   -0.239979    0.039937
     19          6           0        4.182209    0.916217   -0.231772
     20          6           0        3.659668    1.824887   -1.156876
     21          1           0        2.038575    2.283807   -2.505122
     22          1           0        0.778420    0.204343   -1.982360
     23          1           0        1.703533   -1.433022   -0.326074
     24          1           0        5.126337    1.086688    0.271198
     25          1           0        4.212389    2.732273   -1.383140
     26          7           0        3.995421   -1.209406    1.017535
     27          8           0        5.073160   -0.939651    1.543223
     28          8           0        3.333048   -2.220642    1.239577
 ---------------------------------------------------------------------

 SCF Done:  E(RHF) =  -868.337350477     A.U. after   16 cycles
 E2 =    -0.2599970500D+01 EUMP2 =    -0.87093732097692D+03

 The electronic state is 1-A.
 Alpha  occ. eigenvalues --  -20.61229 -20.61200 -20.61040 -20.61029 -15.86271
 Alpha  occ. eigenvalues --  -15.86097 -11.31662 -11.31593 -11.28319 -11.28196
 Alpha  occ. eigenvalues --  -11.28181 -11.28163 -11.28016 -11.27915 -11.27294
 Alpha  occ. eigenvalues --  -11.27256 -11.27228 -11.27181  -1.60288  -1.60112
 Alpha  occ. eigenvalues --   -1.39845  -1.39660  -1.19820  -1.19800  -1.09197
 Alpha  occ. eigenvalues --   -1.09181  -1.05263  -1.05194  -0.96040  -0.95981
 Alpha  occ. eigenvalues --   -0.86645  -0.86603  -0.82888  -0.82798  -0.77967
 Alpha  occ. eigenvalues --   -0.77795  -0.72489  -0.72310  -0.71608  -0.71439
 Alpha  occ. eigenvalues --   -0.70944  -0.70899  -0.65486  -0.65455  -0.65322
 Alpha  occ. eigenvalues --   -0.65152  -0.62753  -0.62391  -0.55761  -0.55684
 Alpha  occ. eigenvalues --   -0.53591  -0.53512  -0.53430  -0.53191  -0.49257
 Alpha  occ. eigenvalues --   -0.49235  -0.49084  -0.49055  -0.45245  -0.45035
 Alpha  occ. eigenvalues --   -0.37821  -0.37768  -0.36955  -0.36701
 Alpha virt. eigenvalues --    0.04574   0.04747   0.10716   0.10820   0.16011
 Alpha virt. eigenvalues --    0.16226   0.18936   0.21874   0.24615   0.27147
 Alpha virt. eigenvalues --    0.27975   0.28969   0.29697   0.31166   0.31993

 Mulliken charges:
               1
     1  C   -0.170272
     2  C   -0.217706
     3  C   -0.169736
     4  C    0.160817
     5  C   -0.175771
     6  C   -0.217939
     7  H    0.227325
     8  H    0.225757
     9  H    0.277498
    10  H    0.268595
    11  H    0.222249
    12  N    0.488022
    13  O   -0.463927
    14  O   -0.456853
    15  C   -0.174511
    16  C   -0.227598
    17  C   -0.170134
    18  C    0.158311
    19  C   -0.170220
    20  C   -0.218992
    21  H    0.225823
    22  H    0.225896
    23  H    0.281426
    24  H    0.277032
    25  H    0.224435
    26  N    0.487888
    27  O   -0.460031
    28  O   -0.457385
 Sum of Mulliken charges =  -0.00000

 Dipole moment (field-independent basis, Debye):
    X=             -0.6001    Y=              7.6174    Z=             -0.5559  Tot=              7.6612
 Quadrupole moment (field-independent basis, Debye-Ang):
   XX=           -120.1178   YY=           -106.6386   ZZ=           -104.4920
   XY=              0.6753   XZ=            -23.8597   YZ=              0.8008

 Normal termination of Gaussian 16 at Wed May  5 21:16:07 2021.
