 Gaussian 16, Revision A.03,
 Gaussian 16:  EM64L-G16RevA.03 25-Dec-2016

 -------------
 #p 6-31g* mp2
 -------------

 ------------------------------------------------------
 Input file generated by CHIRIPA (05-May-2021 14:51:13)
 ------------------------------------------------------
 Symbolic Z-matrix:
 Charge =  0 Multiplicity = 1

                         Standard orientation:
 ---------------------------------------------------------------------
 Center     Atomic      Atomic             Coordinates (Angstroms)
 Number     Number       Type             X           Y           Z
 ---------------------------------------------------------------------
      1          6           0        2.590481    0.224047   -0.187194
      2          6           0        4.071218   -0.155619   -0.222657
      3          6           0        4.296817   -1.622012   -0.592236
      4          1           0        2.070147   -0.421463    0.533579
      5          1           0        2.143061    0.019567   -1.169741
      6          1           0        4.516033    0.050812    0.759251
      7          1           0        4.588124    0.490999   -0.943288
      8          1           0        3.879311   -1.838767   -1.580824
      9          1           0        3.806811   -2.281454    0.131388
     10          1           0        5.362222   -1.871798   -0.611705
     11          6           0        2.348794    1.686889    0.180786
     12          6           0        0.868057    2.066555    0.216248
     13          6           0        0.642458    3.532949    0.585827
     14          1           0        2.796214    1.891369    1.163332
     15          1           0        2.869128    2.332400   -0.539987
     16          1           0        0.351152    1.419938    0.936880
     17          1           0        0.423242    1.860124   -0.765659
     18          1           0        1.132465    4.192391   -0.137796
     19          1           0        1.059964    3.749703    1.574416
     20          1           0       -0.422947    3.782735    0.605296
     21          6           0       -2.242156   -1.588403    0.365250
     22          6           0       -0.837323   -2.042675   -0.032322
     23          6           0       -0.396388   -3.310141    0.700415
     24          1           0       -2.271562   -1.415681    1.449801
     25          1           0       -2.954388   -2.399175    0.158440
     26          1           0       -0.128155   -1.230780    0.173890
     27          1           0       -0.811206   -2.214152   -1.116078
     28          1           0       -1.081037   -4.137078    0.485865
     29          1           0       -0.394104   -3.148119    1.783163
     30          1           0        0.610637   -3.617098    0.401185
     31          6           0       -2.697119   -0.322534   -0.358842
     32          6           0       -4.101953    0.131739    0.038730
     33          6           0       -4.542887    1.399204   -0.694007
     34          1           0       -1.984887    0.488239   -0.152031
     35          1           0       -2.667713   -0.495255   -1.443392
     36          1           0       -4.128069    0.303216    1.122487
     37          1           0       -4.811120   -0.680156   -0.167482
     38          1           0       -4.545172    1.237183   -1.776755
     39          1           0       -3.858239    2.226141   -0.479457
     40          1           0       -5.549912    1.706162   -0.394777
 ---------------------------------------------------------------------

 SCF Done:  E(RHF) =  -470.732701509     A.U. after   11 cycles
 E2 =    -0.1584573148D+01 EUMP2 =    -0.47231727465781D+03

 The electronic state is 1-A.
 Alpha  occ. eigenvalues --  -11.21691 -11.21634 -11.21551 -11.21457 -11.21446
 Alpha  occ. eigenvalues --  -11.21387 -11.21314 -11.21251 -11.21153 -11.21100
 Alpha  occ. eigenvalues --  -11.21046 -11.21022  -1.08510  -1.08341  -1.03593
 Alpha  occ. eigenvalues --   -1.03465  -0.96042  -0.95919  -0.87057  -0.86935
 Alpha  occ. eigenvalues --   -0.79682  -0.79531  -0.78496  -0.77983  -0.65197
 Alpha  occ. eigenvalues --   -0.64929  -0.60989  -0.60879  -0.59425  -0.59279
 Alpha  occ. eigenvalues --   -0.57704  -0.57482  -0.55339  -0.55199  -0.52745
 Alpha  occ. eigenvalues --   -0.52615  -0.52481  -0.52326  -0.49986  -0.49865
 Alpha  occ. eigenvalues --   -0.48034  -0.47840  -0.46780  -0.46689  -0.46233
 Alpha  occ. eigenvalues --   -0.45788  -0.45646  -0.44940  -0.43834  -0.43705
 Alpha virt. eigenvalues --    0.20918   0.22258   0.23599   0.24412   0.25769
 Alpha virt. eigenvalues --    0.26298   0.26765   0.27206   0.27999   0.29676
 Alpha virt. eigenvalues --    0.30737   0.31171   0.31755   0.31939   0.32789

 Mulliken charges:
               1
     1  C   -0.302831
     2  C   -0.299048
     3  C   -0.476279
     4  H    0.153590
     5  H    0.151044
     6  H    0.151850
     7  H    0.152028
     8  H    0.155408
     9  H    0.155466
    10  H    0.160470
    11  C   -0.298006
    12  C   -0.304092
    13  C   -0.475967
    14  H    0.149383
    15  H    0.149960
    16  H    0.153187
    17  H    0.154643
    18  H    0.155856
    19  H    0.155446
    20  H    0.160007
    21  C   -0.297120
    22  C   -0.309202
    23  C   -0.476387
    24  H    0.148336
    25  H    0.148972
    26  H    0.163222
    27  H    0.150972
    28  H    0.155223
    29  H    0.153976
    30  H    0.160458
    31  C   -0.304977
    32  C   -0.299262
    33  C   -0.475521
    34  H    0.157383
    35  H    0.148798
    36  H    0.151504
    37  H    0.151749
    38  H    0.155049
    39  H    0.154605
    40  H    0.160110
 Sum of Mulliken charges =  -0.00000

 Dipole moment (field-independent basis, Debye):
    X=              0.0711    Y=              0.0456    Z=             -0.0160  Tot=              0.0860
 Quadrupole moment (field-independent basis, Debye-Ang):
   XX=            -85.0687   YY=            -86.3785   ZZ=            -83.4968
   XY=              0.9770   XZ=              0.1239   YZ=              0.3411

 Normal termination of Gaussian 16 at Thu May  6 05:34:08 2021.
