 Gaussian 16, Revision A.03,
 Gaussian 16:  EM64L-G16RevA.03 25-Dec-2016

 -------------
 #p 6-31g* mp2
 -------------

 ------------------------------------------------------
 Input file generated by CHIRIPA (05-May-2021 14:51:12)
 ------------------------------------------------------
 Symbolic Z-matrix:
 Charge =  0 Multiplicity = 1

                         Standard orientation:
 ---------------------------------------------------------------------
 Center     Atomic      Atomic             Coordinates (Angstroms)
 Number     Number       Type             X           Y           Z
 ---------------------------------------------------------------------
      1          6           0        4.731163    0.020611    0.190505
      2          6           0        5.704605   -0.666075   -0.768066
      3          6           0        7.094414   -0.028827   -0.756162
      4          1           0        4.651221    1.083138   -0.077061
      5          1           0        5.143273   -0.015219    1.208481
      6          1           0        5.290134   -0.630179   -1.783714
      7          1           0        5.782092   -1.727131   -0.498307
      8          1           0        7.532177   -0.077973    0.246110
      9          1           0        7.037423    1.025212   -1.046601
     10          1           0        7.774202   -0.535223   -1.448486
     11          6           0        3.337544   -0.605132    0.189876
     12          6           0        2.364102    0.081553    1.148447
     13          6           0        0.974293   -0.555694    1.136543
     14          1           0        2.925434   -0.569302   -0.828101
     15          1           0        3.417486   -1.667659    0.457442
     16          1           0        2.286615    1.142610    0.878687
     17          1           0        2.778573    0.045658    2.164095
     18          1           0        1.031284   -1.609733    1.426982
     19          1           0        0.536530   -0.506548    0.134270
     20          1           0        0.294506   -0.049299    1.828867
     21          6           0       -4.407473   -0.368684   -0.276019
     22          6           0       -5.921050   -0.237416   -0.103277
     23          6           0       -6.653579   -1.568093   -0.277907
     24          1           0       -4.192747   -0.779100   -1.272209
     25          1           0       -4.024246   -1.097501    0.451551
     26          1           0       -6.301112    0.491966   -0.830032
     27          1           0       -6.132189    0.172915    0.892545
     28          1           0       -6.302390   -2.300411    0.456243
     29          1           0       -6.472273   -1.979548   -1.276121
     30          1           0       -7.734279   -1.451217   -0.150281
     31          6           0       -3.661235    0.953205   -0.104362
     32          6           0       -2.147658    0.821937   -0.277102
     33          6           0       -1.415128    2.152614   -0.102474
     34          1           0       -4.044462    1.682022   -0.831932
     35          1           0       -3.875960    1.363622    0.891828
     36          1           0       -1.936518    0.411606   -1.272925
     37          1           0       -1.767595    0.092556    0.449651
     38          1           0       -1.596435    2.564070    0.895741
     39          1           0       -1.766317    2.884933   -0.836624
     40          1           0       -0.334429    2.035738   -0.230099
 ---------------------------------------------------------------------

 SCF Done:  E(RHF) =  -470.731914361     A.U. after   11 cycles
 E2 =    -0.1583667388D+01 EUMP2 =    -0.47231558174895D+03

 The electronic state is 1-A.
 Alpha  occ. eigenvalues --  -11.21605 -11.21604 -11.21565 -11.21450 -11.21412
 Alpha  occ. eigenvalues --  -11.21352 -11.21345 -11.21281 -11.21073 -11.21043
 Alpha  occ. eigenvalues --  -11.21017 -11.21015  -1.08446  -1.08363  -1.03595
 Alpha  occ. eigenvalues --   -1.03422  -0.96069  -0.95855  -0.87016  -0.86946
 Alpha  occ. eigenvalues --   -0.79729  -0.79438  -0.78278  -0.78146  -0.65106
 Alpha  occ. eigenvalues --   -0.64989  -0.61121  -0.60827  -0.59461  -0.59160
 Alpha  occ. eigenvalues --   -0.57607  -0.57560  -0.55320  -0.55105  -0.52706
 Alpha  occ. eigenvalues --   -0.52582  -0.52411  -0.52346  -0.49961  -0.49833
 Alpha  occ. eigenvalues --   -0.47964  -0.47818  -0.46740  -0.46468  -0.45837
 Alpha  occ. eigenvalues --   -0.45751  -0.45689  -0.45535  -0.43791  -0.43668
 Alpha virt. eigenvalues --    0.21326   0.22991   0.23530   0.25302   0.26246
 Alpha virt. eigenvalues --    0.26571   0.27004   0.27460   0.27835   0.29358
 Alpha virt. eigenvalues --    0.29633   0.31023   0.31174   0.31922   0.32443

 Mulliken charges:
               1
     1  C   -0.298309
     2  C   -0.299643
     3  C   -0.475712
     4  H    0.149661
     5  H    0.149587
     6  H    0.151915
     7  H    0.151945
     8  H    0.155192
     9  H    0.155214
    10  H    0.160264
    11  C   -0.298555
    12  C   -0.301933
    13  C   -0.479537
    14  H    0.149479
    15  H    0.149769
    16  H    0.152811
    17  H    0.151916
    18  H    0.154532
    19  H    0.161280
    20  H    0.161203
    21  C   -0.298220
    22  C   -0.299555
    23  C   -0.475664
    24  H    0.149403
    25  H    0.149582
    26  H    0.151831
    27  H    0.151807
    28  H    0.155147
    29  H    0.155093
    30  H    0.160105
    31  C   -0.297686
    32  C   -0.305372
    33  C   -0.478231
    34  H    0.148786
    35  H    0.149050
    36  H    0.149739
    37  H    0.161007
    38  H    0.154373
    39  H    0.154859
    40  H    0.162869
 Sum of Mulliken charges =  -0.00000

 Dipole moment (field-independent basis, Debye):
    X=              0.0289    Y=             -0.0248    Z=              0.0155  Tot=              0.0411
 Quadrupole moment (field-independent basis, Debye-Ang):
   XX=            -86.5006   YY=            -85.3336   ZZ=            -83.2463
   XY=             -1.1026   XZ=              0.3014   YZ=             -0.7132

 Normal termination of Gaussian 16 at Thu May  6 02:19:11 2021.
