 Gaussian 16, Revision A.03,
 Gaussian 16:  EM64L-G16RevA.03 25-Dec-2016

 -------------
 #p 6-31g* mp2
 -------------

 ------------------------------------------------------
 Input file generated by CHIRIPA (05-May-2021 14:55:19)
 ------------------------------------------------------
 Symbolic Z-matrix:
 Charge =  0 Multiplicity = 1

                         Standard orientation:
 ---------------------------------------------------------------------
 Center     Atomic      Atomic             Coordinates (Angstroms)
 Number     Number       Type             X           Y           Z
 ---------------------------------------------------------------------
      1          6           0        1.254718    0.779152    1.618593
      2          6           0        1.636698   -0.557830    1.770549
      3          6           0        2.677264   -1.090507    1.003721
      4          6           0        3.317005   -0.254057    0.090281
      5          6           0        2.959514    1.082008   -0.084134
      6          6           0        1.916179    1.593369    0.693368
      7          1           0        0.445306    1.184669    2.218430
      8          1           0        1.124783   -1.192494    2.488316
      9          1           0        2.993351   -2.122028    1.101049
     10          1           0        3.488616    1.690088   -0.807811
     11          1           0        1.621663    2.632056    0.573229
     12          7           0        4.420072   -0.806695   -0.727176
     13          8           0        4.967814   -0.049025   -1.525018
     14          8           0        4.716027   -1.987058   -0.554577
     15          6           0       -4.473204   -0.308647   -0.610734
     16          6           0       -5.456950   -0.942812    0.373167
     17          6           0       -6.370704   -1.975536   -0.287387
     18          1           0       -5.035200    0.165675   -1.426897
     19          1           0       -3.863242   -1.099178   -1.069431
     20          1           0       -6.063935   -0.151187    0.830897
     21          1           0       -4.892553   -1.415515    1.187183
     22          1           0       -5.780907   -2.785434   -0.728756
     23          1           0       -6.958944   -1.513922   -1.087067
     24          1           0       -7.065836   -2.416281    0.433996
     25          6           0       -3.552925    0.725864    0.034714
     26          6           0       -2.569178    1.360029   -0.949186
     27          6           0       -1.655425    2.392752   -0.288633
     28          1           0       -4.162887    1.516396    0.493411
     29          1           0       -2.990929    0.251542    0.850878
     30          1           0       -3.133576    1.832732   -1.763204
     31          1           0       -1.962195    0.568404   -1.406917
     32          1           0       -1.067184    1.931140    0.511048
     33          1           0       -2.245221    3.202651    0.152736
     34          1           0       -0.960293    2.833497   -1.010016
 ---------------------------------------------------------------------

 SCF Done:  E(RHF) =  -669.534412724     A.U. after   15 cycles
 E2 =    -0.2092395748D+01 EUMP2 =    -0.67162680847196D+03

 The electronic state is 1-A.
 Alpha  occ. eigenvalues --  -20.60776 -20.60770 -15.85829 -11.31204 -11.27768
 Alpha  occ. eigenvalues --  -11.27747 -11.27498 -11.26797 -11.26754 -11.22236
 Alpha  occ. eigenvalues --  -11.22052 -11.22021 -11.21911 -11.21857 -11.21429
 Alpha  occ. eigenvalues --   -1.59851  -1.39404  -1.19376  -1.08998  -1.08774
 Alpha  occ. eigenvalues --   -1.04777  -1.04100  -0.96582  -0.95607  -0.87610
 Alpha  occ. eigenvalues --   -0.86168  -0.82438  -0.80178  -0.78797  -0.77475
 Alpha  occ. eigenvalues --   -0.72047  -0.71174  -0.70526  -0.65632  -0.65030
 Alpha  occ. eigenvalues --   -0.64780  -0.62134  -0.61486  -0.59943  -0.58180
 Alpha  occ. eigenvalues --   -0.55954  -0.55255  -0.53339  -0.53139  -0.52913
 Alpha  occ. eigenvalues --   -0.52830  -0.50488  -0.48806  -0.48801  -0.48485
 Alpha  occ. eigenvalues --   -0.47189  -0.46348  -0.46249  -0.44808  -0.44357
 Alpha  occ. eigenvalues --   -0.37306  -0.36362
 Alpha virt. eigenvalues --    0.05009   0.11230   0.16395   0.20615   0.22507
 Alpha virt. eigenvalues --    0.24012   0.25781   0.26336   0.26703   0.27766
 Alpha virt. eigenvalues --    0.28840   0.29847   0.31216   0.31635   0.32285

 Mulliken charges:
               1
     1  C   -0.172849
     2  C   -0.219937
     3  C   -0.171323
     4  C    0.158763
     5  C   -0.172541
     6  C   -0.213848
     7  H    0.226112
     8  H    0.223339
     9  H    0.275556
    10  H    0.275600
    11  H    0.226312
    12  N    0.488061
    13  O   -0.460307
    14  O   -0.460444
    15  C   -0.298948
    16  C   -0.299716
    17  C   -0.476047
    18  H    0.151471
    19  H    0.151246
    20  H    0.152168
    21  H    0.150372
    22  H    0.156144
    23  H    0.156270
    24  H    0.161074
    25  C   -0.297807
    26  C   -0.299513
    27  C   -0.479150
    28  H    0.149890
    29  H    0.144532
    30  H    0.154832
    31  H    0.156181
    32  H    0.149199
    33  H    0.155278
    34  H    0.160034
 Sum of Mulliken charges =  -0.00000

 Dipole moment (field-independent basis, Debye):
    X=             -3.9750    Y=              1.9193    Z=              2.8052  Tot=              5.2301
 Quadrupole moment (field-independent basis, Debye-Ang):
   XX=           -120.9512   YY=            -92.0631   ZZ=            -93.9208
   XY=              7.1704   XZ=              9.0669   YZ=             -3.3144

 Normal termination of Gaussian 16 at Thu May  6 14:04:46 2021.
