 Gaussian 16, Revision A.03,
 Gaussian 16:  EM64L-G16RevA.03 25-Dec-2016

 -------------
 #p 6-31g* mp2
 -------------

 ------------------------------------------------------
 Input file generated by CHIRIPA (05-May-2021 14:53:13)
 ------------------------------------------------------
 Symbolic Z-matrix:
 Charge =  0 Multiplicity = 1

                         Standard orientation:
 ---------------------------------------------------------------------
 Center     Atomic      Atomic             Coordinates (Angstroms)
 Number     Number       Type             X           Y           Z
 ---------------------------------------------------------------------
      1          6           0       -2.639633    1.117807   -0.565608
      2          6           0       -1.196895    1.593041   -0.740663
      3          6           0       -1.105931    3.039842   -1.226755
      4          1           0       -3.170854    1.218906   -1.521918
      5          1           0       -3.151836    1.778173    0.147807
      6          1           0       -0.687166    0.931147   -1.452483
      7          1           0       -0.668994    1.490619    0.216127
      8          1           0       -1.589622    3.716537   -0.514906
      9          1           0       -1.607897    3.153886   -2.192997
     10          1           0       -0.065727    3.358957   -1.345080
     11          6           0       -2.746975   -0.326667   -0.080118
     12          6           0       -4.189713   -0.801900    0.094936
     13          6           0       -4.280678   -2.248702    0.581028
     14          1           0       -2.234772   -0.987032   -0.793533
     15          1           0       -2.215755   -0.427766    0.876192
     16          1           0       -4.717614   -0.699479   -0.861854
     17          1           0       -4.699442   -0.140006    0.806757
     18          1           0       -3.778711   -2.362745    1.547271
     19          1           0       -3.796986   -2.925396   -0.130820
     20          1           0       -5.320882   -2.567817    0.699353
     21          6           0        1.677395    1.705405    1.710256
     22          6           0        1.307117    0.430792    2.151588
     23          6           0        1.538729   -0.692475    1.352102
     24          6           0        2.145400   -0.503788    0.111281
     25          6           0        2.525765    0.753168   -0.356346
     26          6           0        2.284467    1.862249    0.459903
     27          1           0        1.493711    2.572476    2.337827
     28          1           0        0.835488    0.305986    3.122172
     29          1           0        1.262172   -1.690687    1.669133
     30          1           0        2.994125    0.845985   -1.328684
     31          1           0        2.573088    2.850931    0.114577
     32          7           0        2.395725   -1.685432   -0.743971
     33          8           0        2.931709   -1.492524   -1.833075
     34          8           0        2.051206   -2.782137   -0.309021
 ---------------------------------------------------------------------

 SCF Done:  E(RHF) =  -669.534156864     A.U. after   15 cycles
 E2 =    -0.2095260217D+01 EUMP2 =    -0.67162941708167D+03

 The electronic state is 1-A.
 Alpha  occ. eigenvalues --  -20.60838 -20.60833 -15.85893 -11.31289 -11.27876
 Alpha  occ. eigenvalues --  -11.27861 -11.27579 -11.26880 -11.26851 -11.21633
 Alpha  occ. eigenvalues --  -11.21506 -11.21444 -11.21387 -11.21339 -11.21062
 Alpha  occ. eigenvalues --   -1.59913  -1.39466  -1.19477  -1.08873  -1.08468
 Alpha  occ. eigenvalues --   -1.04878  -1.03591  -0.96072  -0.95688  -0.87087
 Alpha  occ. eigenvalues --   -0.86269  -0.82517  -0.79659  -0.78296  -0.77557
 Alpha  occ. eigenvalues --   -0.72110  -0.71235  -0.70573  -0.65138  -0.65112
 Alpha  occ. eigenvalues --   -0.64877  -0.62222  -0.61025  -0.59497  -0.57720
 Alpha  occ. eigenvalues --   -0.55381  -0.55368  -0.53325  -0.52983  -0.52681
 Alpha  occ. eigenvalues --   -0.52476  -0.50005  -0.48873  -0.48863  -0.47900
 Alpha  occ. eigenvalues --   -0.46684  -0.45782  -0.45724  -0.44864  -0.43848
 Alpha  occ. eigenvalues --   -0.37350  -0.36452
 Alpha virt. eigenvalues --    0.04948   0.11105   0.16365   0.20967   0.22939
 Alpha virt. eigenvalues --    0.24061   0.26327   0.26791   0.27389   0.28149
 Alpha virt. eigenvalues --    0.28401   0.30162   0.31350   0.31917   0.32064

 Mulliken charges:
               1
     1  C   -0.297653
     2  C   -0.306523
     3  C   -0.475061
     4  H    0.150044
     5  H    0.145856
     6  H    0.152678
     7  H    0.160374
     8  H    0.151552
     9  H    0.157354
    10  H    0.151851
    11  C   -0.298078
    12  C   -0.299651
    13  C   -0.475669
    14  H    0.154009
    15  H    0.144006
    16  H    0.153167
    17  H    0.149828
    18  H    0.152357
    19  H    0.159140
    20  H    0.160246
    21  C   -0.175217
    22  C   -0.218658
    23  C   -0.168741
    24  C    0.161036
    25  C   -0.170001
    26  C   -0.212644
    27  H    0.226461
    28  H    0.223966
    29  H    0.276433
    30  H    0.276085
    31  H    0.224116
    32  N    0.487657
    33  O   -0.460344
    34  O   -0.459977
 Sum of Mulliken charges =  -0.00000

 Dipole moment (field-independent basis, Debye):
    X=             -0.7490    Y=              4.0576    Z=              3.0282  Tot=              5.1181
 Quadrupole moment (field-independent basis, Debye-Ang):
   XX=            -98.5925   YY=            -98.8982   ZZ=            -91.1583
   XY=             10.8725   XZ=              5.0565   YZ=             -2.5210

 Normal termination of Gaussian 16 at Wed May  5 17:04:00 2021.
