 Gaussian 16, Revision A.03,
 Gaussian 16:  EM64L-G16RevA.03 25-Dec-2016

 -------------
 #p 6-31g* mp2
 -------------

 ------------------------------------------------------
 Input file generated by CHIRIPA (05-May-2021 14:51:08)
 ------------------------------------------------------
 Symbolic Z-matrix:
 Charge =  0 Multiplicity = 1

                         Standard orientation:
 ---------------------------------------------------------------------
 Center     Atomic      Atomic             Coordinates (Angstroms)
 Number     Number       Type             X           Y           Z
 ---------------------------------------------------------------------
      1          6           0       -3.416510   -0.685539   -0.463836
      2          6           0       -2.344254   -1.757661   -0.660832
      3          6           0       -2.930805   -3.163840   -0.788936
      4          1           0       -4.002800   -0.923048    0.434383
      5          1           0       -4.115885   -0.716348   -1.310784
      6          1           0       -1.646316   -1.723916    0.185548
      7          1           0       -1.760325   -1.517469   -1.558579
      8          1           0       -3.611902   -3.220703   -1.644199
      9          1           0       -3.497245   -3.428324    0.109839
     10          1           0       -2.146854   -3.914607   -0.929047
     11          6           0       -2.845696    0.725516   -0.334127
     12          6           0       -3.917952    1.797637   -0.137131
     13          6           0       -3.331402    3.203817   -0.009027
     14          1           0       -2.146321    0.756325    0.512821
     15          1           0       -2.259406    0.963024   -1.232346
     16          1           0       -4.501881    1.557445    0.760616
     17          1           0       -4.615891    1.763893   -0.983511
     18          1           0       -2.764962    3.468300   -0.907802
     19          1           0       -2.650304    3.260680    0.846236
     20          1           0       -4.115352    3.954583    0.131084
     21          6           0        2.670774   -0.517824    0.750675
     22          6           0        1.676070    0.145141    1.704104
     23          6           0        0.762063   -0.863783    2.400133
     24          1           0        2.117654   -1.094630   -0.003181
     25          1           0        3.280117   -1.239934    1.311614
     26          1           0        1.069718    0.866788    1.141807
     27          1           0        2.231617    0.720591    2.455663
     28          1           0        1.351005   -1.577354    2.985423
     29          1           0        0.182505   -1.430326    1.664101
     30          1           0        0.059024   -0.368344    3.076990
     31          6           0        3.591433    0.477848    0.047288
     32          6           0        4.586137   -0.185118   -0.906141
     33          6           0        5.500143    0.823807   -1.602170
     34          1           0        2.982090    1.199957   -0.513651
     35          1           0        4.144553    1.054653    0.801145
     36          1           0        4.030589   -0.760568   -1.657700
     37          1           0        5.192489   -0.906765   -0.343844
     38          1           0        6.079701    1.390349   -0.866138
     39          1           0        4.911201    1.537378   -2.187459
     40          1           0        6.203182    0.328366   -2.279027
 ---------------------------------------------------------------------

 SCF Done:  E(RHF) =  -470.733391076     A.U. after   11 cycles
 E2 =    -0.1582977162D+01 EUMP2 =    -0.47231636823798D+03

 The electronic state is 1-A.
 Alpha  occ. eigenvalues --  -11.21621 -11.21619 -11.21605 -11.21595 -11.21426
 Alpha  occ. eigenvalues --  -11.21396 -11.21366 -11.21336 -11.21093 -11.21089
 Alpha  occ. eigenvalues --  -11.21088 -11.21066  -1.08456  -1.08421  -1.03559
 Alpha  occ. eigenvalues --   -1.03525  -0.95997  -0.95986  -0.87026  -0.86991
 Alpha  occ. eigenvalues --   -0.79661  -0.79555  -0.78275  -0.78230  -0.65156
 Alpha  occ. eigenvalues --   -0.64991  -0.61049  -0.60844  -0.59383  -0.59338
 Alpha  occ. eigenvalues --   -0.57645  -0.57560  -0.55305  -0.55263  -0.52697
 Alpha  occ. eigenvalues --   -0.52678  -0.52454  -0.52385  -0.50050  -0.49852
 Alpha  occ. eigenvalues --   -0.48025  -0.47849  -0.46803  -0.46460  -0.45890
 Alpha  occ. eigenvalues --   -0.45769  -0.45701  -0.45558  -0.43803  -0.43787
 Alpha virt. eigenvalues --    0.20595   0.23272   0.23747   0.24124   0.26087
 Alpha virt. eigenvalues --    0.26713   0.27125   0.27595   0.27990   0.29505
 Alpha virt. eigenvalues --    0.29842   0.31578   0.31703   0.31855   0.32018

 Mulliken charges:
               1
     1  C   -0.297428
     2  C   -0.308901
     3  C   -0.475099
     4  H    0.149880
     5  H    0.149643
     6  H    0.160148
     7  H    0.151302
     8  H    0.155279
     9  H    0.155456
    10  H    0.160146
    11  C   -0.300610
    12  C   -0.299643
    13  C   -0.475773
    14  H    0.151846
    15  H    0.149137
    16  H    0.152117
    17  H    0.152034
    18  H    0.155020
    19  H    0.155247
    20  H    0.160387
    21  C   -0.298554
    22  C   -0.300475
    23  C   -0.483020
    24  H    0.150273
    25  H    0.149396
    26  H    0.153313
    27  H    0.151945
    28  H    0.155545
    29  H    0.161939
    30  H    0.159436
    31  C   -0.298388
    32  C   -0.299671
    33  C   -0.475701
    34  H    0.149777
    35  H    0.149581
    36  H    0.151962
    37  H    0.151883
    38  H    0.155177
    39  H    0.155180
    40  H    0.160212
 Sum of Mulliken charges =  -0.00000

 Dipole moment (field-independent basis, Debye):
    X=             -0.0070    Y=             -0.0037    Z=              0.0018  Tot=              0.0082
 Quadrupole moment (field-independent basis, Debye-Ang):
   XX=            -84.9077   YY=            -86.2909   ZZ=            -83.5470
   XY=             -0.7964   XZ=              0.9624   YZ=              0.0328

 Normal termination of Gaussian 16 at Thu May  6 02:07:21 2021.
