 Gaussian 16, Revision A.03,
 Gaussian 16:  EM64L-G16RevA.03 25-Dec-2016

 -------------
 #p 6-31g* mp2
 -------------

 ------------------------------------------------------
 Input file generated by CHIRIPA (05-May-2021 14:55:19)
 ------------------------------------------------------
 Symbolic Z-matrix:
 Charge =  0 Multiplicity = 1

                         Standard orientation:
 ---------------------------------------------------------------------
 Center     Atomic      Atomic             Coordinates (Angstroms)
 Number     Number       Type             X           Y           Z
 ---------------------------------------------------------------------
      1          6           0        3.444765   -2.399094   -0.296347
      2          6           0        4.429590   -1.452793   -0.598266
      3          6           0        4.133489   -0.086713   -0.571826
      4          6           0        2.836371    0.299557   -0.237803
      5          6           0        1.833446   -0.619122    0.067910
      6          6           0        2.152116   -1.979977    0.035193
      7          1           0        3.683550   -3.458268   -0.319324
      8          1           0        5.434332   -1.775389   -0.856086
      9          1           0        4.876742    0.667186   -0.801234
     10          1           0        0.840854   -0.267033    0.321311
     11          1           0        1.385279   -2.712654    0.270121
     12          7           0        2.510956    1.742999   -0.206490
     13          8           0        1.360609    2.057545    0.090830
     14          8           0        3.412404    2.532491   -0.479859
     15          6           0       -3.877713   -0.030274   -0.430086
     16          6           0       -5.372245   -0.198152   -0.706087
     17          6           0       -5.713644   -0.098342   -2.193123
     18          1           0       -3.546408    0.942174   -0.819351
     19          1           0       -3.320740   -0.796210   -0.987327
     20          1           0       -5.926337    0.567006   -0.147399
     21          1           0       -5.700071   -1.170232   -0.315949
     22          1           0       -5.186639   -0.871096   -2.762085
     23          1           0       -5.414192    0.876012   -2.592578
     24          1           0       -6.787087   -0.221212   -2.367716
     25          6           0       -3.520695   -0.127576    1.052074
     26          6           0       -2.026163    0.040300    1.328075
     27          6           0       -1.684764   -0.059509    2.815111
     28          1           0       -4.077669    0.638360    1.609316
     29          1           0       -3.852000   -1.100025    1.441339
     30          1           0       -1.698337    1.012380    0.937937
     31          1           0       -1.472072   -0.724858    0.769388
     32          1           0       -1.984217   -1.033863    3.214566
     33          1           0       -2.211769    0.713246    3.384073
     34          1           0       -0.611321    0.063362    2.989704
 ---------------------------------------------------------------------

 SCF Done:  E(RHF) =  -669.535722149     A.U. after   15 cycles
 E2 =    -0.2091799088D+01 EUMP2 =    -0.67162752123668D+03

 The electronic state is 1-A.
 Alpha  occ. eigenvalues --  -20.60774 -20.60769 -15.85821 -11.31143 -11.27729
 Alpha  occ. eigenvalues --  -11.27659 -11.27474 -11.26741 -11.26723 -11.21733
 Alpha  occ. eigenvalues --  -11.21584 -11.21445 -11.21351 -11.21158 -11.21033
 Alpha  occ. eigenvalues --   -1.59845  -1.39399  -1.19323  -1.08730  -1.08469
 Alpha  occ. eigenvalues --   -1.04724  -1.03578  -0.96012  -0.95566  -0.87024
 Alpha  occ. eigenvalues --   -0.86125  -0.82401  -0.79666  -0.78303  -0.77427
 Alpha  occ. eigenvalues --   -0.72042  -0.71165  -0.70441  -0.65115  -0.64968
 Alpha  occ. eigenvalues --   -0.64731  -0.62115  -0.60954  -0.59367  -0.57624
 Alpha  occ. eigenvalues --   -0.55301  -0.55214  -0.53058  -0.52833  -0.52687
 Alpha  occ. eigenvalues --   -0.52432  -0.49946  -0.48802  -0.48796  -0.47950
 Alpha  occ. eigenvalues --   -0.46667  -0.45822  -0.45717  -0.44812  -0.43821
 Alpha  occ. eigenvalues --   -0.37313  -0.36324
 Alpha virt. eigenvalues --    0.05072   0.11309   0.16574   0.20355   0.22969
 Alpha virt. eigenvalues --    0.23957   0.25891   0.26670   0.27664   0.27912
 Alpha virt. eigenvalues --    0.29246   0.30337   0.31548   0.31606   0.32049

 Mulliken charges:
               1
     1  C   -0.170361
     2  C   -0.219306
     3  C   -0.169796
     4  C    0.157112
     5  C   -0.182237
     6  C   -0.223149
     7  H    0.225421
     8  H    0.223295
     9  H    0.275403
    10  H    0.294953
    11  H    0.223200
    12  N    0.487893
    13  O   -0.462204
    14  O   -0.460240
    15  C   -0.298985
    16  C   -0.299755
    17  C   -0.475786
    18  H    0.155174
    19  H    0.146014
    20  H    0.153069
    21  H    0.150514
    22  H    0.154014
    23  H    0.157154
    24  H    0.160135
    25  C   -0.296733
    26  C   -0.309153
    27  C   -0.476796
    28  H    0.152585
    29  H    0.147320
    30  H    0.172956
    31  H    0.134999
    32  H    0.151699
    33  H    0.160283
    34  H    0.161309
 Sum of Mulliken charges =  -0.00000

 Dipole moment (field-independent basis, Debye):
    X=              1.0687    Y=             -4.9152    Z=             -0.0924  Tot=              5.0309
 Quadrupole moment (field-independent basis, Debye-Ang):
   XX=            -83.8685   YY=            -97.1547   ZZ=            -96.2271
   XY=            -13.6556   XZ=             -2.5499   YZ=              1.1905

 Normal termination of Gaussian 16 at Thu May  6 20:39:12 2021.
