 Gaussian 16, Revision A.03,
 Gaussian 16:  EM64L-G16RevA.03 25-Dec-2016

 -------------
 #p 6-31g* mp2
 -------------

 ------------------------------------------------------
 Input file generated by CHIRIPA (05-May-2021 14:57:25)
 ------------------------------------------------------
 Symbolic Z-matrix:
 Charge =  0 Multiplicity = 1

                         Standard orientation:
 ---------------------------------------------------------------------
 Center     Atomic      Atomic             Coordinates (Angstroms)
 Number     Number       Type             X           Y           Z
 ---------------------------------------------------------------------
      1          6           0        1.157762   -0.908242   -1.301895
      2          6           0        1.272014    0.461349   -1.041724
      3          6           0        2.451904    0.986318   -0.506175
      4          6           0        3.502461    0.108993   -0.241749
      5          6           0        3.419224   -1.260223   -0.489962
      6          6           0        2.229842   -1.763149   -1.025671
      7          1           0        0.237508   -1.307489   -1.717985
      8          1           0        0.441049    1.127645   -1.255247
      9          1           0        2.567349    2.042499   -0.295053
     10          1           0        4.264706   -1.899510   -0.266605
     11          1           0        2.143942   -2.827222   -1.226705
     12          7           0        4.756582    0.653087    0.325298
     13          8           0        5.667656   -0.140868    0.549386
     14          8           0        4.804741    1.863201    0.534923
     15          6           0       -5.301706    1.107397   -0.700477
     16          6           0       -5.255478   -0.287108   -0.601788
     17          6           0       -4.149073   -0.922126   -0.029802
     18          6           0       -3.101839   -0.128247    0.435330
     19          6           0       -3.118366    1.263136    0.351237
     20          6           0       -4.234884    1.876712   -0.224488
     21          1           0       -6.165117    1.592366   -1.146261
     22          1           0       -6.082537   -0.887101   -0.970605
     23          1           0       -4.087225   -1.999938    0.059157
     24          1           0       -2.278642    1.834544    0.727766
     25          1           0       -4.268055    2.959888   -0.299814
     26          7           0       -1.925185   -0.789162    1.042846
     27          8           0       -1.015463   -0.067216    1.445135
     28          8           0       -1.934925   -2.016619    1.105223
 ---------------------------------------------------------------------

 SCF Done:  E(RHF) =  -868.337543161     A.U. after   16 cycles
 E2 =    -0.2600967917D+01 EUMP2 =    -0.87093851107764D+03

 The electronic state is 1-A.
 Alpha  occ. eigenvalues --  -20.61636 -20.61578 -20.60011 -20.60005 -15.86622
 Alpha  occ. eigenvalues --  -15.85059 -11.32009 -11.30257 -11.28568 -11.28541
 Alpha  occ. eigenvalues --  -11.28245 -11.27546 -11.27530 -11.26818 -11.26794
 Alpha  occ. eigenvalues --  -11.26550 -11.25867 -11.25795  -1.60678  -1.59087
 Alpha  occ. eigenvalues --   -1.40231  -1.38647  -1.20164  -1.18404  -1.09549
 Alpha  occ. eigenvalues --   -1.07844  -1.05553  -1.03806  -0.96385  -0.94715
 Alpha  occ. eigenvalues --   -0.86948  -0.85232  -0.83209  -0.81568  -0.78274
 Alpha  occ. eigenvalues --   -0.76630  -0.72843  -0.72049  -0.71289  -0.71240
 Alpha  occ. eigenvalues --   -0.70401  -0.69563  -0.65802  -0.65534  -0.64091
 Alpha  occ. eigenvalues --   -0.63860  -0.62895  -0.61195  -0.56021  -0.54365
 Alpha  occ. eigenvalues --   -0.53898  -0.53629  -0.52097  -0.51949  -0.49615
 Alpha  occ. eigenvalues --   -0.49596  -0.48048  -0.48032  -0.45623  -0.44091
 Alpha  occ. eigenvalues --   -0.38141  -0.37164  -0.36304  -0.35330
 Alpha virt. eigenvalues --    0.04220   0.05918   0.10444   0.12299   0.15760
 Alpha virt. eigenvalues --    0.17461   0.20608   0.22057   0.26380   0.27241
 Alpha virt. eigenvalues --    0.28246   0.28910   0.30390   0.30998   0.32517

 Mulliken charges:
               1
     1  C   -0.164642
     2  C   -0.202284
     3  C   -0.170335
     4  C    0.159143
     5  C   -0.171136
     6  C   -0.214672
     7  H    0.220029
     8  H    0.213045
     9  H    0.270901
    10  H    0.273042
    11  H    0.222219
    12  N    0.488293
    13  O   -0.462365
    14  O   -0.463410
    15  C   -0.170598
    16  C   -0.218042
    17  C   -0.172442
    18  C    0.155663
    19  C   -0.175639
    20  C   -0.218079
    21  H    0.228430
    22  H    0.225900
    23  H    0.276263
    24  H    0.275095
    25  H    0.225944
    26  N    0.485376
    27  O   -0.454571
    28  O   -0.461131
 Sum of Mulliken charges =  -0.00000

 Dipole moment (field-independent basis, Debye):
    X=             -8.8693    Y=              0.3599    Z=             -4.0424  Tot=              9.7538
 Quadrupole moment (field-independent basis, Debye-Ang):
   XX=           -109.3839   YY=            -97.8191   ZZ=           -107.3587
   XY=            -14.3157   XZ=             -0.3774   YZ=              2.3181

 Normal termination of Gaussian 16 at Fri May  7 09:37:00 2021.
