 Gaussian 16, Revision A.03,
 Gaussian 16:  EM64L-G16RevA.03 25-Dec-2016

 -------------
 #p 6-31g* mp2
 -------------

 ------------------------------------------------------
 Input file generated by CHIRIPA (05-May-2021 14:55:21)
 ------------------------------------------------------
 Symbolic Z-matrix:
 Charge =  0 Multiplicity = 1

                         Standard orientation:
 ---------------------------------------------------------------------
 Center     Atomic      Atomic             Coordinates (Angstroms)
 Number     Number       Type             X           Y           Z
 ---------------------------------------------------------------------
      1          6           0        5.665400   -1.532038   -0.232248
      2          6           0        5.985201   -0.182180   -0.052995
      3          6           0        4.975886    0.781610    0.030316
      4          6           0        3.651442    0.358454   -0.070066
      5          6           0        3.300859   -0.978861   -0.248872
      6          6           0        4.326610   -1.925377   -0.329443
      7          1           0        6.455844   -2.274023   -0.295901
      8          1           0        7.024051    0.126184    0.022816
      9          1           0        5.195268    1.833315    0.168901
     10          1           0        2.256096   -1.255785   -0.320990
     11          1           0        4.075292   -2.972993   -0.468673
     12          7           0        2.574225    1.369631    0.016681
     13          8           0        1.415143    0.971108   -0.074671
     14          8           0        2.909382    2.541568    0.174383
     15          6           0       -5.455308    0.207003   -0.159441
     16          6           0       -6.842942   -0.432204   -0.097205
     17          6           0       -7.941127    0.485285   -0.635720
     18          1           0       -5.464660    1.144936    0.412519
     19          1           0       -5.230384    0.477870   -1.200323
     20          1           0       -7.064611   -0.703044    0.943048
     21          1           0       -6.830235   -1.368821   -0.669221
     22          1           0       -7.747105    0.745865   -1.681212
     23          1           0       -7.982812    1.415425   -0.059784
     24          1           0       -8.924820    0.008519   -0.581841
     25          6           0       -4.346880   -0.698010    0.375410
     26          6           0       -2.959246   -0.058803    0.313174
     27          6           0       -1.861062   -0.976293    0.851689
     28          1           0       -4.571804   -0.968877    1.416292
     29          1           0       -4.337529   -1.635943   -0.196549
     30          1           0       -2.971953    0.877814    0.885190
     31          1           0       -2.737579    0.212036   -0.727079
     32          1           0       -1.819377   -1.906432    0.275753
     33          1           0       -2.055084   -1.236872    1.897182
     34          1           0       -0.877369   -0.499526    0.797810
 ---------------------------------------------------------------------

 SCF Done:  E(RHF) =  -669.536193902     A.U. after   15 cycles
 E2 =    -0.2090693874D+01 EUMP2 =    -0.67162688777647D+03

 The electronic state is 1-A.
 Alpha  occ. eigenvalues --  -20.60921 -20.60905 -15.85958 -11.31266 -11.27831
 Alpha  occ. eigenvalues --  -11.27824 -11.27569 -11.26838 -11.26827 -11.21156
 Alpha  occ. eigenvalues --  -11.20818 -11.20729 -11.20682 -11.20670 -11.20092
 Alpha  occ. eigenvalues --   -1.59980  -1.39537  -1.19436  -1.08842  -1.07794
 Alpha  occ. eigenvalues --   -1.04831  -1.02856  -0.95688  -0.95317  -0.86347
 Alpha  occ. eigenvalues --   -0.86232  -0.82521  -0.78940  -0.77594  -0.77570
 Alpha  occ. eigenvalues --   -0.72187  -0.71294  -0.70546  -0.65094  -0.64834
 Alpha  occ. eigenvalues --   -0.64435  -0.62178  -0.60268  -0.58676  -0.56886
 Alpha  occ. eigenvalues --   -0.55337  -0.54636  -0.53164  -0.52923  -0.51981
 Alpha  occ. eigenvalues --   -0.51743  -0.49301  -0.48935  -0.48924  -0.47240
 Alpha  occ. eigenvalues --   -0.45989  -0.45139  -0.45061  -0.44948  -0.43094
 Alpha  occ. eigenvalues --   -0.37416  -0.36432
 Alpha virt. eigenvalues --    0.04941   0.11222   0.16427   0.21206   0.23447
 Alpha virt. eigenvalues --    0.24787   0.26960   0.27258   0.27690   0.28125
 Alpha virt. eigenvalues --    0.29019   0.30591   0.31763   0.32006   0.32424

 Mulliken charges:
               1
     1  C   -0.170579
     2  C   -0.218605
     3  C   -0.170882
     4  C    0.157756
     5  C   -0.170886
     6  C   -0.218727
     7  H    0.225908
     8  H    0.223703
     9  H    0.275730
    10  H    0.276908
    11  H    0.223989
    12  N    0.494021
    13  O   -0.466406
    14  O   -0.458999
    15  C   -0.297863
    16  C   -0.299059
    17  C   -0.475379
    18  H    0.150223
    19  H    0.149461
    20  H    0.150950
    21  H    0.150452
    22  H    0.154890
    23  H    0.155258
    24  H    0.158583
    25  C   -0.297805
    26  C   -0.296658
    27  C   -0.488365
    28  H    0.147324
    29  H    0.146361
    30  H    0.154921
    31  H    0.154124
    32  H    0.145499
    33  H    0.149626
    34  H    0.184526
 Sum of Mulliken charges =  -0.00000

 Dipole moment (field-independent basis, Debye):
    X=              4.0549    Y=             -3.4445    Z=             -0.3212  Tot=              5.3301
 Quadrupole moment (field-independent basis, Debye-Ang):
   XX=            -66.5412   YY=            -95.3280   ZZ=            -94.8949
   XY=             -8.9531   XZ=             -1.3480   YZ=              1.3074

 Normal termination of Gaussian 16 at Thu May  6 02:59:57 2021.
