 Gaussian 16, Revision A.03,
 Gaussian 16:  EM64L-G16RevA.03 25-Dec-2016

 -------------
 #p 6-31g* mp2
 -------------

 ------------------------------------------------------
 Input file generated by CHIRIPA (05-May-2021 14:57:23)
 ------------------------------------------------------
 Symbolic Z-matrix:
 Charge =  0 Multiplicity = 1

                         Standard orientation:
 ---------------------------------------------------------------------
 Center     Atomic      Atomic             Coordinates (Angstroms)
 Number     Number       Type             X           Y           Z
 ---------------------------------------------------------------------
      1          6           0        3.845143   -2.214157    0.532739
      2          6           0        2.553695   -1.682667    0.453993
      3          6           0        2.360083   -0.324166    0.186530
      4          6           0        3.485479    0.477596    0.002274
      5          6           0        4.784793   -0.022255    0.074528
      6          6           0        4.954615   -1.383719    0.343090
      7          1           0        3.986305   -3.270624    0.740938
      8          1           0        1.690215   -2.325226    0.600843
      9          1           0        1.371416    0.113489    0.120094
     10          1           0        5.626059    0.643252   -0.076437
     11          1           0        5.958737   -1.793736    0.403671
     12          7           0        3.293104    1.917349   -0.281459
     13          8           0        4.301037    2.602619   -0.439925
     14          8           0        2.138029    2.333295   -0.340011
     15          6           0       -5.429104    1.201486    0.745772
     16          6           0       -4.430764    0.806212    1.642207
     17          6           0       -3.366762    0.007383    1.212884
     18          6           0       -3.332348   -0.379695   -0.125876
     19          6           0       -4.311833   -0.002183   -1.043144
     20          6           0       -5.366563    0.796740   -0.591685
     21          1           0       -6.252045    1.822072    1.087879
     22          1           0       -4.476754    1.119047    2.681469
     23          1           0       -2.580481   -0.313015    1.885584
     24          1           0       -4.238800   -0.329801   -2.073072
     25          1           0       -6.140483    1.102206   -1.290100
     26          7           0       -2.210845   -1.225430   -0.592098
     27          8           0       -2.203479   -1.553133   -1.776663
     28          8           0       -1.360410   -1.544599    0.235869
 ---------------------------------------------------------------------

 SCF Done:  E(RHF) =  -868.341001685     A.U. after   16 cycles
 E2 =    -0.2598459965D+01 EUMP2 =    -0.87093946165009D+03

 The electronic state is 1-A.
 Alpha  occ. eigenvalues --  -20.61534 -20.61466 -20.60055 -20.60050 -15.86514
 Alpha  occ. eigenvalues --  -15.85095 -11.31517 -11.30208 -11.28060 -11.28034
 Alpha  occ. eigenvalues --  -11.27729 -11.26987 -11.26975 -11.26813 -11.26592
 Alpha  occ. eigenvalues --  -11.26452 -11.25820 -11.25496  -1.60547  -1.59133
 Alpha  occ. eigenvalues --   -1.40115  -1.38693  -1.19656  -1.18351  -1.09120
 Alpha  occ. eigenvalues --   -1.07808  -1.05009  -1.03677  -0.96016  -0.94681
 Alpha  occ. eigenvalues --   -0.86427  -0.85108  -0.82871  -0.81492  -0.77950
 Alpha  occ. eigenvalues --   -0.76565  -0.72758  -0.71833  -0.71323  -0.70771
 Alpha  occ. eigenvalues --   -0.70450  -0.69475  -0.65321  -0.65015  -0.63989
 Alpha  occ. eigenvalues --   -0.63654  -0.62366  -0.60998  -0.55530  -0.54245
 Alpha  occ. eigenvalues --   -0.53348  -0.53103  -0.52077  -0.51739  -0.49521
 Alpha  occ. eigenvalues --   -0.49462  -0.48087  -0.48054  -0.45590  -0.44153
 Alpha  occ. eigenvalues --   -0.37611  -0.36589  -0.36365  -0.35279
 Alpha virt. eigenvalues --    0.04541   0.05908   0.11069   0.12353   0.16091
 Alpha virt. eigenvalues --    0.17459   0.21177   0.22568   0.27134   0.27814
 Alpha virt. eigenvalues --    0.28716   0.29274   0.30872   0.32033   0.32314

 Mulliken charges:
               1
     1  C   -0.172078
     2  C   -0.223149
     3  C   -0.172682
     4  C    0.158143
     5  C   -0.173172
     6  C   -0.218974
     7  H    0.223084
     8  H    0.242609
     9  H    0.279474
    10  H    0.271627
    11  H    0.219296
    12  N    0.488275
    13  O   -0.463912
    14  O   -0.463081
    15  C   -0.169201
    16  C   -0.217857
    17  C   -0.169267
    18  C    0.158325
    19  C   -0.169280
    20  C   -0.218270
    21  H    0.227549
    22  H    0.225150
    23  H    0.273752
    24  H    0.276453
    25  H    0.225191
    26  N    0.491538
    27  O   -0.454290
    28  O   -0.475252
 Sum of Mulliken charges =  -0.00000

 Dipole moment (field-independent basis, Debye):
    X=             -3.8564    Y=             -2.1615    Z=              2.5943  Tot=              5.1259
 Quadrupole moment (field-independent basis, Debye-Ang):
   XX=            -69.0206   YY=           -113.4072   ZZ=           -101.7316
   XY=            -25.9714   XZ=              0.3042   YZ=             -0.3737

 Normal termination of Gaussian 16 at Fri May  7 03:23:43 2021.
