 Gaussian 16, Revision A.03,
 Gaussian 16:  EM64L-G16RevA.03 25-Dec-2016

 -------------
 #p 6-31g* mp2
 -------------

 ------------------------------------------------------
 Input file generated by CHIRIPA (05-May-2021 14:53:13)
 ------------------------------------------------------
 Symbolic Z-matrix:
 Charge =  0 Multiplicity = 1

                         Standard orientation:
 ---------------------------------------------------------------------
 Center     Atomic      Atomic             Coordinates (Angstroms)
 Number     Number       Type             X           Y           Z
 ---------------------------------------------------------------------
      1          6           0       -3.946361    0.350295    0.374243
      2          6           0       -3.421792    1.683699   -0.159468
      3          6           0       -2.204508    2.192105    0.613537
      4          1           0       -4.205583    0.463963    1.435765
      5          1           0       -3.142471   -0.397325    0.327118
      6          1           0       -4.226841    2.428225   -0.112638
      7          1           0       -3.163968    1.566894   -1.219892
      8          1           0       -1.383104    1.470542    0.556597
      9          1           0       -2.452016    2.336767    1.670142
     10          1           0       -1.845961    3.146435    0.215342
     11          6           0       -5.163145   -0.170935   -0.388307
     12          6           0       -5.687713   -1.504339    0.145404
     13          6           0       -6.904997   -2.012746   -0.627601
     14          1           0       -5.967035    0.576684   -0.341182
     15          1           0       -4.903922   -0.284603   -1.449829
     16          1           0       -5.945537   -1.387535    1.205828
     17          1           0       -4.882664   -2.248866    0.098574
     18          1           0       -6.657490   -2.157407   -1.684206
     19          1           0       -7.726402   -1.291182   -0.570661
     20          1           0       -7.263544   -2.967075   -0.229406
     21          6           0        1.660105    1.585721    0.149645
     22          6           0        1.662055    0.450192    0.966402
     23          6           0        2.708673   -0.473953    0.895019
     24          6           0        3.741921   -0.230137   -0.008442
     25          6           0        3.768495    0.891748   -0.835460
     26          6           0        2.711478    1.802493   -0.747098
     27          1           0        0.843029    2.298415    0.211691
     28          1           0        0.846864    0.279270    1.663750
     29          1           0        2.735343   -1.361398    1.515622
     30          1           0        4.595014    1.035000   -1.520851
     31          1           0        2.712601    2.683484   -1.382627
     32          7           0        4.855432   -1.201395   -0.093000
     33          8           0        5.753992   -0.963686   -0.897189
     34          8           0        4.808559   -2.181986    0.646516
 ---------------------------------------------------------------------

 SCF Done:  E(RHF) =  -669.535273911     A.U. after   15 cycles
 E2 =    -0.2091452225D+01 EUMP2 =    -0.67162672613593D+03

 The electronic state is 1-A.
 Alpha  occ. eigenvalues --  -20.60725 -20.60720 -15.85779 -11.31131 -11.27708
 Alpha  occ. eigenvalues --  -11.27704 -11.27364 -11.26699 -11.26688 -11.22546
 Alpha  occ. eigenvalues --  -11.22390 -11.22148 -11.22070 -11.21948 -11.21443
 Alpha  occ. eigenvalues --   -1.59801  -1.39355  -1.19302  -1.09143  -1.08692
 Alpha  occ. eigenvalues --   -1.04707  -1.04285  -0.96772  -0.95528  -0.87800
 Alpha  occ. eigenvalues --   -0.86101  -0.82367  -0.80369  -0.78907  -0.77421
 Alpha  occ. eigenvalues --   -0.71997  -0.71125  -0.70414  -0.65771  -0.64953
 Alpha  occ. eigenvalues --   -0.64720  -0.62074  -0.61661  -0.60170  -0.58341
 Alpha  occ. eigenvalues --   -0.56141  -0.55143  -0.53434  -0.53210  -0.53014
 Alpha  occ. eigenvalues --   -0.52787  -0.50678  -0.48758  -0.48753  -0.48666
 Alpha  occ. eigenvalues --   -0.47364  -0.46462  -0.46349  -0.44764  -0.44521
 Alpha  occ. eigenvalues --   -0.37261  -0.36317
 Alpha virt. eigenvalues --    0.05108   0.11265   0.16589   0.20424   0.22404
 Alpha virt. eigenvalues --    0.23848   0.25533   0.26254   0.26467   0.27515
 Alpha virt. eigenvalues --    0.29198   0.29524   0.30973   0.31324   0.31962

 Mulliken charges:
               1
     1  C   -0.299535
     2  C   -0.298886
     3  C   -0.484925
     4  H    0.150414
     5  H    0.149406
     6  H    0.155666
     7  H    0.154500
     8  H    0.151440
     9  H    0.159445
    10  H    0.158322
    11  C   -0.298966
    12  C   -0.300288
    13  C   -0.476135
    14  H    0.150711
    15  H    0.151109
    16  H    0.152338
    17  H    0.152761
    18  H    0.156090
    19  H    0.155680
    20  H    0.161894
    21  C   -0.174268
    22  C   -0.222444
    23  C   -0.170922
    24  C    0.158017
    25  C   -0.170722
    26  C   -0.220168
    27  H    0.234185
    28  H    0.224439
    29  H    0.275368
    30  H    0.275328
    31  H    0.223298
    32  N    0.488107
    33  O   -0.460608
    34  O   -0.460650
 Sum of Mulliken charges =  -0.00000

 Dipole moment (field-independent basis, Debye):
    X=             -4.1676    Y=              3.4144    Z=              0.2724  Tot=              5.3946
 Quadrupole moment (field-independent basis, Debye-Ang):
   XX=           -123.3730   YY=            -95.2352   ZZ=            -92.4792
   XY=             14.4696   XZ=             -1.3732   YZ=             -2.3346

 Normal termination of Gaussian 16 at Wed May  5 21:48:26 2021.
