 Gaussian 16, Revision A.03,
 Gaussian 16:  EM64L-G16RevA.03 25-Dec-2016

 -------------
 #p 6-31g* mp2
 -------------

 ------------------------------------------------------
 Input file generated by CHIRIPA (05-May-2021 14:51:12)
 ------------------------------------------------------
 Symbolic Z-matrix:
 Charge =  0 Multiplicity = 1

                         Standard orientation:
 ---------------------------------------------------------------------
 Center     Atomic      Atomic             Coordinates (Angstroms)
 Number     Number       Type             X           Y           Z
 ---------------------------------------------------------------------
      1          6           0       -4.822917    0.063286   -0.346064
      2          6           0       -6.278654   -0.364483   -0.156777
      3          6           0       -7.257587    0.503951   -0.947541
      4          1           0       -4.713197    1.112934   -0.040867
      5          1           0       -4.571521    0.020630   -1.414883
      6          1           0       -6.526818   -0.322360    0.911519
      7          1           0       -6.384880   -1.413292   -0.462280
      8          1           0       -7.038151    0.453963   -2.018965
      9          1           0       -7.180896    1.551093   -0.637361
     10          1           0       -8.292432    0.180665   -0.797738
     11          6           0       -3.832294   -0.795411    0.438176
     12          6           0       -2.376557   -0.367642    0.248890
     13          6           0       -1.397624   -1.236076    1.039653
     14          1           0       -4.083690   -0.752756    1.506996
     15          1           0       -3.942013   -1.845060    0.132979
     16          1           0       -2.270331    0.681167    0.554392
     17          1           0       -2.128392   -0.409765   -0.819406
     18          1           0       -1.474315   -2.283219    0.729474
     19          1           0       -1.617060   -1.186089    2.111078
     20          1           0       -0.362778   -0.912790    0.889851
     21          6           0        3.684588    0.469687    0.352970
     22          6           0        2.898791    1.709717   -0.074622
     23          6           0        1.614947    1.903518    0.732832
     24          1           0        3.044883   -0.416999    0.245673
     25          1           0        3.930600    0.550251    1.420855
     26          1           0        2.655530    1.627482   -1.141710
     27          1           0        3.540504    2.593530    0.033523
     28          1           0        1.842517    2.011212    1.798296
     29          1           0        0.952516    1.039675    0.616386
     30          1           0        1.068889    2.795652    0.410686
     31          6           0        4.970623    0.262439   -0.445082
     32          6           0        5.756420   -0.977591   -0.017491
     33          6           0        7.040263   -1.171394   -0.824945
     34          1           0        4.724610    0.181874   -1.512969
     35          1           0        5.610328    1.149124   -0.337786
     36          1           0        5.114707   -1.861405   -0.125636
     37          1           0        5.999681   -0.895358    1.049597
     38          1           0        7.702695   -0.307551   -0.708499
     39          1           0        6.812693   -1.279087   -1.890409
     40          1           0        7.586322   -2.063526   -0.502800
 ---------------------------------------------------------------------

 SCF Done:  E(RHF) =  -470.733297864     A.U. after   11 cycles
 E2 =    -0.1582392928D+01 EUMP2 =    -0.47231569079143D+03

 The electronic state is 1-A.
 Alpha  occ. eigenvalues --  -11.21598 -11.21598 -11.21596 -11.21595 -11.21406
 Alpha  occ. eigenvalues --  -11.21401 -11.21347 -11.21342 -11.21072 -11.21068
 Alpha  occ. eigenvalues --  -11.21066 -11.21048  -1.08433  -1.08422  -1.03548
 Alpha  occ. eigenvalues --   -1.03507  -0.96015  -0.95943  -0.87034  -0.86956
 Alpha  occ. eigenvalues --   -0.79602  -0.79575  -0.78244  -0.78234  -0.65068
 Alpha  occ. eigenvalues --   -0.65050  -0.60970  -0.60907  -0.59418  -0.59299
 Alpha  occ. eigenvalues --   -0.57722  -0.57477  -0.55293  -0.55226  -0.52758
 Alpha  occ. eigenvalues --   -0.52666  -0.52479  -0.52256  -0.49920  -0.49890
 Alpha  occ. eigenvalues --   -0.47988  -0.47818  -0.46630  -0.46597  -0.45781
 Alpha  occ. eigenvalues --   -0.45778  -0.45712  -0.45696  -0.43793  -0.43756
 Alpha virt. eigenvalues --    0.21326   0.23009   0.23425   0.24927   0.26170
 Alpha virt. eigenvalues --    0.26628   0.27077   0.27421   0.27831   0.28914
 Alpha virt. eigenvalues --    0.30439   0.31367   0.31760   0.31797   0.32024

 Mulliken charges:
               1
     1  C   -0.298296
     2  C   -0.299665
     3  C   -0.475709
     4  H    0.149804
     5  H    0.149455
     6  H    0.151965
     7  H    0.151899
     8  H    0.155149
     9  H    0.155214
    10  H    0.160242
    11  C   -0.298303
    12  C   -0.300205
    13  C   -0.480763
    14  H    0.149663
    15  H    0.149586
    16  H    0.153500
    17  H    0.151488
    18  H    0.155115
    19  H    0.155812
    20  H    0.163848
    21  C   -0.298622
    22  C   -0.299342
    23  C   -0.483217
    24  H    0.149335
    25  H    0.149699
    26  H    0.151878
    27  H    0.151975
    28  H    0.155216
    29  H    0.162762
    30  H    0.160327
    31  C   -0.298293
    32  C   -0.299690
    33  C   -0.475714
    34  H    0.149523
    35  H    0.149729
    36  H    0.152072
    37  H    0.151971
    38  H    0.155157
    39  H    0.155161
    40  H    0.160274
 Sum of Mulliken charges =  -0.00000

 Dipole moment (field-independent basis, Debye):
    X=             -0.0060    Y=              0.0047    Z=              0.0067  Tot=              0.0101
 Quadrupole moment (field-independent basis, Debye-Ang):
   XX=            -86.1349   YY=            -84.4520   ZZ=            -84.1718
   XY=              0.9268   XZ=              0.3286   YZ=              1.0563

 Normal termination of Gaussian 16 at Wed May  5 18:19:44 2021.
