 Gaussian 16, Revision A.03,
 Gaussian 16:  EM64L-G16RevA.03 25-Dec-2016

 -------------
 #p 6-31g* mp2
 -------------

 ------------------------------------------------------
 Input file generated by CHIRIPA (05-May-2021 14:55:23)
 ------------------------------------------------------
 Symbolic Z-matrix:
 Charge =  0 Multiplicity = 1

                         Standard orientation:
 ---------------------------------------------------------------------
 Center     Atomic      Atomic             Coordinates (Angstroms)
 Number     Number       Type             X           Y           Z
 ---------------------------------------------------------------------
      1          6           0       -1.082117   -0.264317    2.551599
      2          6           0       -0.605709   -1.146978    1.576681
      3          6           0       -1.138886   -1.132529    0.284372
      4          6           0       -2.152064   -0.218179    0.000252
      5          6           0       -2.647862    0.673861    0.949851
      6          6           0       -2.099879    0.641688    2.235630
      7          1           0       -0.662182   -0.282425    3.552959
      8          1           0        0.184620   -1.851673    1.819229
      9          1           0       -0.788721   -1.804717   -0.489556
     10          1           0       -3.436524    1.364958    0.678160
     11          1           0       -2.471819    1.328342    2.990754
     12          7           0       -2.724352   -0.193500   -1.364401
     13          8           0       -3.616268    0.621649   -1.589462
     14          8           0       -2.270158   -0.989775   -2.183115
     15          6           0        2.516371   -0.408540   -0.587117
     16          6           0        3.179164   -1.532867    0.209487
     17          6           0        2.934998   -2.913272   -0.400973
     18          1           0        1.435979   -0.598344   -0.647731
     19          1           0        2.895249   -0.426651   -1.618387
     20          1           0        2.800180   -1.511773    1.239314
     21          1           0        4.258077   -1.340264    0.268375
     22          1           0        3.329123   -2.958428   -1.421379
     23          1           0        1.862943   -3.130911   -0.444923
     24          1           0        3.417616   -3.702160    0.184343
     25          6           0        2.751454    0.977489    0.010699
     26          6           0        2.088661    2.101817   -0.785904
     27          6           0        2.332826    3.482221   -0.175443
     28          1           0        2.372575    0.995600    1.041970
     29          1           0        3.831845    1.167294    0.071314
     30          1           0        1.009748    1.909214   -0.844791
     31          1           0        2.467644    2.080723   -1.815730
     32          1           0        3.404881    3.699860   -0.131493
     33          1           0        1.938701    3.527378    0.844962
     34          1           0        1.850208    4.271109   -0.760760
 ---------------------------------------------------------------------

 SCF Done:  E(RHF) =  -669.534579807     A.U. after   15 cycles
 E2 =    -0.2094572530D+01 EUMP2 =    -0.67162915233726D+03

 The electronic state is 1-A.
 Alpha  occ. eigenvalues --  -20.60839 -20.60834 -15.85896 -11.31307 -11.27870
 Alpha  occ. eigenvalues --  -11.27863 -11.27610 -11.26881 -11.26871 -11.22203
 Alpha  occ. eigenvalues --  -11.21738 -11.21704 -11.21658 -11.21598 -11.21198
 Alpha  occ. eigenvalues --   -1.59915  -1.39467  -1.19484  -1.08868  -1.08757
 Alpha  occ. eigenvalues --   -1.04895  -1.03891  -0.96332  -0.95693  -0.87353
 Alpha  occ. eigenvalues --   -0.86281  -0.82526  -0.79958  -0.78552  -0.77565
 Alpha  occ. eigenvalues --   -0.72111  -0.71242  -0.70588  -0.65510  -0.65103
 Alpha  occ. eigenvalues --   -0.64865  -0.62287  -0.61215  -0.59709  -0.57930
 Alpha  occ. eigenvalues --   -0.55677  -0.55371  -0.53224  -0.53044  -0.52973
 Alpha  occ. eigenvalues --   -0.52724  -0.50302  -0.48875  -0.48865  -0.48265
 Alpha  occ. eigenvalues --   -0.47004  -0.46078  -0.46001  -0.44857  -0.44110
 Alpha  occ. eigenvalues --   -0.37449  -0.36398
 Alpha virt. eigenvalues --    0.04940   0.11041   0.16335   0.19098   0.23039
 Alpha virt. eigenvalues --    0.23648   0.25411   0.26002   0.27579   0.28346
 Alpha virt. eigenvalues --    0.29027   0.29844   0.31295   0.31364   0.32202

 Mulliken charges:
               1
     1  C   -0.171984
     2  C   -0.217810
     3  C   -0.175673
     4  C    0.158562
     5  C   -0.171179
     6  C   -0.218267
     7  H    0.226295
     8  H    0.228420
     9  H    0.278125
    10  H    0.276174
    11  H    0.224063
    12  N    0.488132
    13  O   -0.460066
    14  O   -0.459904
    15  C   -0.303499
    16  C   -0.302070
    17  C   -0.476265
    18  H    0.153474
    19  H    0.153626
    20  H    0.142462
    21  H    0.155940
    22  H    0.162287
    23  H    0.147016
    24  H    0.161536
    25  C   -0.297178
    26  C   -0.300173
    27  C   -0.475789
    28  H    0.145743
    29  H    0.149517
    30  H    0.154182
    31  H    0.154566
    32  H    0.154854
    33  H    0.152444
    34  H    0.162439
 Sum of Mulliken charges =  -0.00000

 Dipole moment (field-independent basis, Debye):
    X=              2.0024    Y=             -0.0436    Z=              4.7256  Tot=              5.1325
 Quadrupole moment (field-independent basis, Debye-Ang):
   XX=           -101.1059   YY=            -93.5255   ZZ=            -94.6321
   XY=             -2.9998   XZ=            -12.2534   YZ=             -0.2436

 Normal termination of Gaussian 16 at Thu May  6 10:59:21 2021.
