 Gaussian 16, Revision A.03,
 Gaussian 16:  EM64L-G16RevA.03 25-Dec-2016

 -------------
 #p 6-31g* mp2
 -------------

 ------------------------------------------------------
 Input file generated by CHIRIPA (05-May-2021 14:55:20)
 ------------------------------------------------------
 Symbolic Z-matrix:
 Charge =  0 Multiplicity = 1

                         Standard orientation:
 ---------------------------------------------------------------------
 Center     Atomic      Atomic             Coordinates (Angstroms)
 Number     Number       Type             X           Y           Z
 ---------------------------------------------------------------------
      1          6           0        4.712888    1.499565    0.660354
      2          6           0        5.019341    0.187857    0.283488
      3          6           0        4.043436   -0.632386   -0.290410
      4          6           0        2.765649   -0.106146   -0.473773
      5          6           0        2.429462    1.196546   -0.108723
      6          6           0        3.421203    1.998843    0.463393
      7          1           0        5.477145    2.129779    1.105479
      8          1           0        6.021634   -0.202553    0.435260
      9          1           0        4.253452   -1.651569   -0.591369
     10          1           0        1.421409    1.557661   -0.272562
     11          1           0        3.180353    3.017145    0.755107
     12          7           0        1.724119   -0.965001   -1.080390
     13          8           0        0.605917   -0.477689   -1.231341
     14          8           0        2.045693   -2.109222   -1.393419
     15          6           0       -4.471684   -0.101071    0.207394
     16          6           0       -4.872991    1.071308   -0.688410
     17          6           0       -6.299939    0.945401   -1.222975
     18          1           0       -4.571521   -1.037493   -0.358373
     19          1           0       -5.174956   -0.167882    1.049024
     20          1           0       -4.168353    1.136737   -1.527350
     21          1           0       -4.772003    2.005064   -0.120505
     22          1           0       -7.018121    0.902898   -0.397742
     23          1           0       -6.411041    0.029638   -1.812581
     24          1           0       -6.566005    1.793996   -1.860905
     25          6           0       -3.047819    0.010437    0.749522
     26          6           0       -2.646513   -1.161942    1.645327
     27          6           0       -1.219564   -1.036035    2.179891
     28          1           0       -2.344547    0.077247   -0.092106
     29          1           0       -2.947982    0.946859    1.315289
     30          1           0       -2.747500   -2.095698    1.077421
     31          1           0       -3.351150   -1.227371    2.484266
     32          1           0       -1.108462   -0.120272    2.769498
     33          1           0       -0.501382   -0.993533    1.354659
     34          1           0       -0.953498   -1.884631    2.817822
 ---------------------------------------------------------------------

 SCF Done:  E(RHF) =  -669.536584232     A.U. after   15 cycles
 E2 =    -0.2091524660D+01 EUMP2 =    -0.67162810889206D+03

 The electronic state is 1-A.
 Alpha  occ. eigenvalues --  -20.61032 -20.61025 -15.86040 -11.31296 -11.27856
 Alpha  occ. eigenvalues --  -11.27848 -11.27587 -11.26852 -11.26841 -11.20978
 Alpha  occ. eigenvalues --  -11.20749 -11.20639 -11.20550 -11.20437 -11.20235
 Alpha  occ. eigenvalues --   -1.60079  -1.39639  -1.19461  -1.08880  -1.07642
 Alpha  occ. eigenvalues --   -1.04849  -1.02793  -0.95732  -0.95251  -0.86278
 Alpha  occ. eigenvalues --   -0.86252  -0.82570  -0.78878  -0.77643  -0.77434
 Alpha  occ. eigenvalues --   -0.72270  -0.71389  -0.70573  -0.65122  -0.64854
 Alpha  occ. eigenvalues --   -0.64251  -0.62197  -0.60177  -0.58628  -0.56869
 Alpha  occ. eigenvalues --   -0.55361  -0.54527  -0.53181  -0.52942  -0.51979
 Alpha  occ. eigenvalues --   -0.51692  -0.49197  -0.49037  -0.49019  -0.47215
 Alpha  occ. eigenvalues --   -0.45950  -0.45194  -0.44995  -0.44616  -0.43038
 Alpha  occ. eigenvalues --   -0.37438  -0.36444
 Alpha virt. eigenvalues --    0.04871   0.11195   0.16331   0.21268   0.23655
 Alpha virt. eigenvalues --    0.24942   0.27059   0.27386   0.27877   0.28613
 Alpha virt. eigenvalues --    0.28723   0.30835   0.31894   0.32354   0.32597

 Mulliken charges:
               1
     1  C   -0.170353
     2  C   -0.218614
     3  C   -0.170582
     4  C    0.157992
     5  C   -0.170327
     6  C   -0.218575
     7  H    0.226052
     8  H    0.223826
     9  H    0.275757
    10  H    0.276409
    11  H    0.224011
    12  N    0.489487
    13  O   -0.461268
    14  O   -0.457468
    15  C   -0.297729
    16  C   -0.299688
    17  C   -0.475287
    18  H    0.151649
    19  H    0.145932
    20  H    0.154958
    21  H    0.148323
    22  H    0.153423
    23  H    0.155881
    24  H    0.158046
    25  C   -0.305147
    26  C   -0.296355
    27  C   -0.482415
    28  H    0.168410
    29  H    0.141766
    30  H    0.155810
    31  H    0.146722
    32  H    0.146757
    33  H    0.166197
    34  H    0.156403
 Sum of Mulliken charges =  -0.00000

 Dipole moment (field-independent basis, Debye):
    X=              3.9281    Y=              2.9668    Z=              1.9441  Tot=              5.2926
 Quadrupole moment (field-independent basis, Debye-Ang):
   XX=            -74.0968   YY=            -92.6237   ZZ=            -97.6828
   XY=              5.4299   XZ=              3.6658   YZ=             -0.6901

 Normal termination of Gaussian 16 at Thu May  6 20:41:53 2021.
