 Gaussian 16, Revision A.03,
 Gaussian 16:  EM64L-G16RevA.03 25-Dec-2016

 -------------
 #p 6-31g* mp2
 -------------

 ------------------------------------------------------
 Input file generated by CHIRIPA (05-May-2021 14:57:23)
 ------------------------------------------------------
 Symbolic Z-matrix:
 Charge =  0 Multiplicity = 1

                         Standard orientation:
 ---------------------------------------------------------------------
 Center     Atomic      Atomic             Coordinates (Angstroms)
 Number     Number       Type             X           Y           Z
 ---------------------------------------------------------------------
      1          6           0        0.888249   -1.584149    1.063604
      2          6           0        0.991665   -0.259888    1.501963
      3          6           0        2.047325    0.549814    1.072415
      4          6           0        2.986052    0.000348    0.200538
      5          6           0        2.910372   -1.315312   -0.253998
      6          6           0        1.846244   -2.106713    0.188566
      7          1           0        0.064897   -2.206036    1.402343
      8          1           0        0.249130    0.148609    2.181535
      9          1           0        2.151525    1.578308    1.396082
     10          1           0        3.665916   -1.694432   -0.931376
     11          1           0        1.768460   -3.134806   -0.153515
     12          7           0        4.108115    0.847856   -0.261095
     13          8           0        4.922177    0.340060   -1.029264
     14          8           0        4.152279    2.003880    0.153987
     15          6           0       -3.141136    2.624917   -0.007954
     16          6           0       -2.390868    2.132985   -1.081091
     17          6           0       -2.195970    0.757719   -1.239849
     18          6           0       -2.768251   -0.100965   -0.302595
     19          6           0       -3.520842    0.358468    0.777135
     20          6           0       -3.702739    1.737652    0.916105
     21          1           0       -3.287487    3.694779    0.107686
     22          1           0       -1.953540    2.819705   -1.800261
     23          1           0       -1.619619    0.349802   -2.061337
     24          1           0       -3.944374   -0.350763    1.477871
     25          1           0       -4.285877    2.116855    1.750490
     26          7           0       -2.568804   -1.558972   -0.460189
     27          8           0       -3.083466   -2.294641    0.379186
     28          8           0       -1.901590   -1.938482   -1.420104
 ---------------------------------------------------------------------

 SCF Done:  E(RHF) =  -868.339737399     A.U. after   16 cycles
 E2 =    -0.2600454574D+01 EUMP2 =    -0.87094019197267D+03

 The electronic state is 1-A.
 Alpha  occ. eigenvalues --  -20.61709 -20.61670 -20.60614 -20.60596 -15.86706
 Alpha  occ. eigenvalues --  -15.85655 -11.31874 -11.30877 -11.28451 -11.28366
 Alpha  occ. eigenvalues --  -11.28096 -11.27466 -11.27399 -11.27364 -11.27319
 Alpha  occ. eigenvalues --  -11.27006 -11.26434 -11.26274  -1.60768  -1.59688
 Alpha  occ. eigenvalues --   -1.40319  -1.39245  -1.20027  -1.19017  -1.09456
 Alpha  occ. eigenvalues --   -1.08417  -1.05387  -1.04394  -0.96322  -0.95283
 Alpha  occ. eigenvalues --   -0.86790  -0.85784  -0.83153  -0.82123  -0.78231
 Alpha  occ. eigenvalues --   -0.77210  -0.72929  -0.72144  -0.71874  -0.71110
 Alpha  occ. eigenvalues --   -0.71013  -0.70019  -0.65669  -0.65370  -0.64654
 Alpha  occ. eigenvalues --   -0.64371  -0.62726  -0.61748  -0.55880  -0.54816
 Alpha  occ. eigenvalues --   -0.53756  -0.53460  -0.52721  -0.52463  -0.49706
 Alpha  occ. eigenvalues --   -0.49680  -0.48640  -0.48617  -0.45766  -0.44683
 Alpha  occ. eigenvalues --   -0.38030  -0.37029  -0.36893  -0.35973
 Alpha virt. eigenvalues --    0.04245   0.05314   0.10649   0.11664   0.15799
 Alpha virt. eigenvalues --    0.16844   0.20888   0.21885   0.26830   0.27695
 Alpha virt. eigenvalues --    0.27749   0.28742   0.30524   0.31488   0.31999

 Mulliken charges:
               1
     1  C   -0.177468
     2  C   -0.220762
     3  C   -0.173384
     4  C    0.157000
     5  C   -0.172969
     6  C   -0.212975
     7  H    0.237445
     8  H    0.220571
     9  H    0.271610
    10  H    0.274951
    11  H    0.230017
    12  N    0.488006
    13  O   -0.460488
    14  O   -0.463734
    15  C   -0.170810
    16  C   -0.219063
    17  C   -0.167780
    18  C    0.156485
    19  C   -0.175896
    20  C   -0.219922
    21  H    0.228824
    22  H    0.228257
    23  H    0.278553
    24  H    0.274692
    25  H    0.225009
    26  N    0.486165
    27  O   -0.465171
    28  O   -0.457163
 Sum of Mulliken charges =  -0.00000

 Dipole moment (field-independent basis, Debye):
    X=             -4.8055    Y=              2.0860    Z=              2.0164  Tot=              5.6134
 Quadrupole moment (field-independent basis, Debye-Ang):
   XX=           -124.1884   YY=           -103.0629   ZZ=           -100.4065
   XY=            -25.0856   XZ=             -0.8537   YZ=             -0.7196

 Normal termination of Gaussian 16 at Thu May  6 16:18:19 2021.
