 Gaussian 16, Revision A.03,
 Gaussian 16:  EM64L-G16RevA.03 25-Dec-2016

 -------------
 #p 6-31g* mp2
 -------------

 ------------------------------------------------------
 Input file generated by CHIRIPA (05-May-2021 14:55:21)
 ------------------------------------------------------
 Symbolic Z-matrix:
 Charge =  0 Multiplicity = 1

                         Standard orientation:
 ---------------------------------------------------------------------
 Center     Atomic      Atomic             Coordinates (Angstroms)
 Number     Number       Type             X           Y           Z
 ---------------------------------------------------------------------
      1          6           0        3.854270   -0.319138   -1.606040
      2          6           0        3.472497    0.881127   -0.997653
      3          6           0        2.564557    0.880899    0.065452
      4          6           0        2.055787   -0.343250    0.496617
      5          6           0        2.416685   -1.555739   -0.088971
      6          6           0        3.326076   -1.531602   -1.150560
      7          1           0        4.560143   -0.309674   -2.431297
      8          1           0        3.881082    1.824236   -1.349290
      9          1           0        2.251820    1.795425    0.554590
     10          1           0        1.992349   -2.480147    0.283624
     11          1           0        3.620765   -2.465282   -1.621140
     12          7           0        1.093823   -0.356147    1.621277
     13          8           0        0.659981   -1.447904    1.982505
     14          8           0        0.791893    0.725744    2.120261
     15          6           0       -2.207244    0.855534   -0.519680
     16          6           0       -2.357613    2.312940   -0.082254
     17          6           0       -1.094775    3.138184   -0.331263
     18          1           0       -1.360934    0.404056    0.015923
     19          1           0       -1.952983    0.825081   -1.588239
     20          1           0       -2.612875    2.340591    0.984842
     21          1           0       -3.203784    2.760948   -0.618818
     22          1           0       -0.839723    3.140385   -1.395944
     23          1           0       -0.245457    2.717640    0.216828
     24          1           0       -1.224315    4.176786   -0.011288
     25          6           0       -3.461441    0.017745   -0.277144
     26          6           0       -3.311073   -1.439661   -0.714571
     27          6           0       -4.573911   -2.264905   -0.465562
     28          1           0       -3.715702    0.048198    0.791415
     29          1           0       -4.307751    0.469223   -0.812748
     30          1           0       -2.464902   -1.887669   -0.178006
     31          1           0       -3.055811   -1.467312   -1.781666
     32          1           0       -5.423228   -1.844361   -1.013653
     33          1           0       -4.828962   -2.267106    0.599119
     34          1           0       -4.444370   -3.303508   -0.785536
 ---------------------------------------------------------------------

 SCF Done:  E(RHF) =  -669.536161175     A.U. after   15 cycles
 E2 =    -0.2093108629D+01 EUMP2 =    -0.67162926980393D+03

 The electronic state is 1-A.
 Alpha  occ. eigenvalues --  -20.61024 -20.61017 -15.86026 -11.31285 -11.27845
 Alpha  occ. eigenvalues --  -11.27838 -11.27574 -11.26840 -11.26827 -11.20996
 Alpha  occ. eigenvalues --  -11.20951 -11.20773 -11.20705 -11.20544 -11.20543
 Alpha  occ. eigenvalues --   -1.60080  -1.39636  -1.19451  -1.08871  -1.07795
 Alpha  occ. eigenvalues --   -1.04837  -1.02930  -0.95727  -0.95404  -0.86437
 Alpha  occ. eigenvalues --   -0.86240  -0.82559  -0.79013  -0.77683  -0.77579
 Alpha  occ. eigenvalues --   -0.72260  -0.71408  -0.70567  -0.65111  -0.64848
 Alpha  occ. eigenvalues --   -0.64381  -0.62199  -0.60295  -0.58777  -0.57029
 Alpha  occ. eigenvalues --   -0.55352  -0.54683  -0.53169  -0.52937  -0.52117
 Alpha  occ. eigenvalues --   -0.51849  -0.49395  -0.49020  -0.48956  -0.47346
 Alpha  occ. eigenvalues --   -0.46053  -0.45282  -0.45114  -0.44801  -0.43191
 Alpha  occ. eigenvalues --   -0.37425  -0.36424
 Alpha virt. eigenvalues --    0.04855   0.11162   0.16348   0.21115   0.23499
 Alpha virt. eigenvalues --    0.24693   0.26308   0.27137   0.27781   0.28102
 Alpha virt. eigenvalues --    0.29048   0.30481   0.31496   0.32207   0.32468

 Mulliken charges:
               1
     1  C   -0.170289
     2  C   -0.219070
     3  C   -0.170058
     4  C    0.156283
     5  C   -0.170486
     6  C   -0.218542
     7  H    0.226032
     8  H    0.224282
     9  H    0.277407
    10  H    0.275657
    11  H    0.223813
    12  N    0.488756
    13  O   -0.458544
    14  O   -0.459721
    15  C   -0.299462
    16  C   -0.296282
    17  C   -0.484563
    18  H    0.152717
    19  H    0.143596
    20  H    0.159781
    21  H    0.148059
    22  H    0.147761
    23  H    0.164306
    24  H    0.158082
    25  C   -0.297844
    26  C   -0.301644
    27  C   -0.475331
    28  H    0.155211
    29  H    0.146344
    30  H    0.158546
    31  H    0.146894
    32  H    0.152801
    33  H    0.157747
    34  H    0.157760
 Sum of Mulliken charges =  -0.00000

 Dipole moment (field-independent basis, Debye):
    X=              3.5168    Y=             -0.0353    Z=             -3.7783  Tot=              5.1618
 Quadrupole moment (field-independent basis, Debye-Ang):
   XX=            -82.1457   YY=            -90.6542   ZZ=            -98.6836
   XY=             -1.4305   XZ=             -6.8254   YZ=              1.8015

 Normal termination of Gaussian 16 at Wed May  5 20:35:03 2021.
