 Gaussian 16, Revision A.03,
 Gaussian 16:  EM64L-G16RevA.03 25-Dec-2016

 -------------
 #p 6-31g* mp2
 -------------

 ------------------------------------------------------
 Input file generated by CHIRIPA (05-May-2021 14:53:11)
 ------------------------------------------------------
 Symbolic Z-matrix:
 Charge =  0 Multiplicity = 1

                         Standard orientation:
 ---------------------------------------------------------------------
 Center     Atomic      Atomic             Coordinates (Angstroms)
 Number     Number       Type             X           Y           Z
 ---------------------------------------------------------------------
      1          6           0       -3.339408    0.541713   -0.508964
      2          6           0       -4.403622   -0.309668    0.184279
      3          6           0       -5.445607   -0.861499   -0.789139
      4          1           0       -3.829038    1.373097   -1.034330
      5          1           0       -2.839762   -0.063200   -1.278268
      6          1           0       -4.900166    0.296258    0.952988
      7          1           0       -3.911386   -1.139012    0.708214
      8          1           0       -4.968622   -1.488472   -1.549396
      9          1           0       -5.963020   -0.045048   -1.303232
     10          1           0       -6.196710   -1.467068   -0.272427
     11          6           0       -2.290656    1.100495    0.451041
     12          6           0       -1.226442    1.951875   -0.242202
     13          6           0       -0.184457    2.503707    0.731216
     14          1           0       -2.790302    1.705408    1.220344
     15          1           0       -1.801026    0.269111    0.976407
     16          1           0       -1.718678    2.781220   -0.766137
     17          1           0       -0.729898    1.345950   -1.010911
     18          1           0        0.332957    1.687256    1.245308
     19          1           0       -0.661442    3.130680    1.491473
     20          1           0        0.566646    3.109276    0.214504
     21          6           0        0.332413   -2.085056    0.915364
     22          6           0        1.066454   -1.272581    1.785761
     23          6           0        2.102979   -0.468640    1.302187
     24          6           0        2.379722   -0.501929   -0.063680
     25          6           0        1.666477   -1.300748   -0.956126
     26          6           0        0.634235   -2.096525   -0.450394
     27          1           0       -0.471120   -2.706406    1.299621
     28          1           0        0.834272   -1.261653    2.846900
     29          1           0        2.687217    0.169763    1.953743
     30          1           0        1.921287   -1.290338   -2.008922
     31          1           0        0.065843   -2.726517   -1.128691
     32          7           0        3.474777    0.344846   -0.587346
     33          8           0        3.698866    0.297532   -1.794899
     34          8           0        4.088256    1.039830    0.219672
 ---------------------------------------------------------------------

 SCF Done:  E(RHF) =  -669.534781930     A.U. after   15 cycles
 E2 =    -0.2094902681D+01 EUMP2 =    -0.67162968461171D+03

 The electronic state is 1-A.
 Alpha  occ. eigenvalues --  -20.60858 -20.60850 -15.85914 -11.31336 -11.27937
 Alpha  occ. eigenvalues --  -11.27898 -11.27687 -11.26955 -11.26935 -11.22081
 Alpha  occ. eigenvalues --  -11.21718 -11.21623 -11.21535 -11.21521 -11.20917
 Alpha  occ. eigenvalues --   -1.59931  -1.39483  -1.19541  -1.08916  -1.08682
 Alpha  occ. eigenvalues --   -1.04956  -1.03748  -0.96201  -0.95732  -0.87216
 Alpha  occ. eigenvalues --   -0.86332  -0.82564  -0.79838  -0.78496  -0.77597
 Alpha  occ. eigenvalues --   -0.72132  -0.71257  -0.70636  -0.65347  -0.65185
 Alpha  occ. eigenvalues --   -0.64933  -0.62286  -0.61200  -0.59572  -0.57805
 Alpha  occ. eigenvalues --   -0.55573  -0.55428  -0.53243  -0.53027  -0.52868
 Alpha  occ. eigenvalues --   -0.52592  -0.50167  -0.48896  -0.48882  -0.48129
 Alpha  occ. eigenvalues --   -0.46904  -0.46010  -0.45977  -0.44870  -0.43998
 Alpha  occ. eigenvalues --   -0.37461  -0.36444
 Alpha virt. eigenvalues --    0.04891   0.11030   0.16313   0.20771   0.22748
 Alpha virt. eigenvalues --    0.23973   0.26174   0.26570   0.27064   0.27989
 Alpha virt. eigenvalues --    0.28699   0.30688   0.31264   0.31546   0.32069

 Mulliken charges:
               1
     1  C   -0.297791
     2  C   -0.298183
     3  C   -0.475400
     4  H    0.151846
     5  H    0.146347
     6  H    0.153591
     7  H    0.144159
     8  H    0.153107
     9  H    0.157690
    10  H    0.160262
    11  C   -0.300467
    12  C   -0.298791
    13  C   -0.482969
    14  H    0.148457
    15  H    0.147825
    16  H    0.152402
    17  H    0.151915
    18  H    0.156918
    19  H    0.152809
    20  H    0.165786
    21  C   -0.170152
    22  C   -0.217090
    23  C   -0.175896
    24  C    0.164879
    25  C   -0.171693
    26  C   -0.218262
    27  H    0.227030
    28  H    0.225272
    29  H    0.277399
    30  H    0.276552
    31  H    0.224435
    32  N    0.487954
    33  O   -0.460263
    34  O   -0.459677
 Sum of Mulliken charges =  -0.00000

 Dipole moment (field-independent basis, Debye):
    X=             -3.7144    Y=             -3.0151    Z=              1.8306  Tot=              5.1224
 Quadrupole moment (field-independent basis, Debye-Ang):
   XX=           -114.0571   YY=            -91.3070   ZZ=            -91.1299
   XY=             -5.7930   XZ=              5.1860   YZ=              0.7875

 Normal termination of Gaussian 16 at Wed May  5 18:29:04 2021.
