 Gaussian 16, Revision A.03,
 Gaussian 16:  EM64L-G16RevA.03 25-Dec-2016

 -------------
 #p 6-31g* mp2
 -------------

 ------------------------------------------------------
 Input file generated by CHIRIPA (05-May-2021 14:53:17)
 ------------------------------------------------------
 Symbolic Z-matrix:
 Charge =  0 Multiplicity = 1

                         Standard orientation:
 ---------------------------------------------------------------------
 Center     Atomic      Atomic             Coordinates (Angstroms)
 Number     Number       Type             X           Y           Z
 ---------------------------------------------------------------------
      1          6           0       -2.643819   -0.490481    0.127975
      2          6           0       -1.869110   -1.777780   -0.156054
      3          6           0       -0.371906   -1.640243    0.121903
      4          1           0       -2.228971    0.322185   -0.483922
      5          1           0       -2.489680   -0.201888    1.176951
      6          1           0       -2.025782   -2.064613   -1.203812
      7          1           0       -2.285975   -2.587520    0.456450
      8          1           0       -0.197265   -1.377364    1.170233
      9          1           0        0.064407   -0.851486   -0.499461
     10          1           0        0.162605   -2.572007   -0.087793
     11          6           0       -4.141923   -0.612213   -0.145145
     12          6           0       -4.916633    0.675085    0.138884
     13          6           0       -6.413836    0.537548   -0.139073
     14          1           0       -4.296062   -0.900807   -1.194120
     15          1           0       -4.556772   -1.424880    0.466753
     16          1           0       -4.499767    1.484825   -0.473619
     17          1           0       -4.759960    0.961918    1.186642
     18          1           0       -6.850149   -0.251209    0.482292
     19          1           0       -6.588477    0.274669   -1.187403
     20          1           0       -6.948347    1.469313    0.070623
     21          6           0        1.622671    2.734571    0.045221
     22          6           0        2.023382    2.167054   -1.168812
     23          6           0        2.594131    0.891246   -1.202077
     24          6           0        2.750065    0.208015    0.002983
     25          6           0        2.360840    0.746515    1.228468
     26          6           0        1.792380    2.023743    1.237883
     27          1           0        1.180188    3.726201    0.061799
     28          1           0        1.892800    2.716782   -2.096601
     29          1           0        2.913183    0.428131   -2.127900
     30          1           0        2.503828    0.174171    2.136980
     31          1           0        1.482110    2.461994    2.182189
     32          7           0        3.353080   -1.143379   -0.019609
     33          8           0        3.479637   -1.724750    1.055858
     34          8           0        3.687747   -1.595640   -1.112354
 ---------------------------------------------------------------------

 SCF Done:  E(RHF) =  -669.534830313     A.U. after   15 cycles
 E2 =    -0.2093284575D+01 EUMP2 =    -0.67162811488866D+03

 The electronic state is 1-A.
 Alpha  occ. eigenvalues --  -20.60736 -20.60724 -15.85778 -11.31127 -11.27732
 Alpha  occ. eigenvalues --  -11.27709 -11.27497 -11.26788 -11.26760 -11.21788
 Alpha  occ. eigenvalues --  -11.21521 -11.21486 -11.21424 -11.21233 -11.20818
 Alpha  occ. eigenvalues --   -1.59800  -1.39355  -1.19348  -1.08737  -1.08493
 Alpha  occ. eigenvalues --   -1.04756  -1.03556  -0.96007  -0.95566  -0.87032
 Alpha  occ. eigenvalues --   -0.86149  -0.82403  -0.79646  -0.78317  -0.77444
 Alpha  occ. eigenvalues --   -0.72005  -0.71111  -0.70456  -0.65131  -0.64998
 Alpha  occ. eigenvalues --   -0.64762  -0.62104  -0.60962  -0.59367  -0.57640
 Alpha  occ. eigenvalues --   -0.55329  -0.55257  -0.53361  -0.52848  -0.52665
 Alpha  occ. eigenvalues --   -0.52178  -0.49943  -0.48764  -0.48758  -0.47911
 Alpha  occ. eigenvalues --   -0.46676  -0.45841  -0.45784  -0.44750  -0.43809
 Alpha  occ. eigenvalues --   -0.37261  -0.36349
 Alpha virt. eigenvalues --    0.05076   0.11236   0.16576   0.21382   0.22785
 Alpha virt. eigenvalues --    0.24264   0.26506   0.27144   0.27454   0.27718
 Alpha virt. eigenvalues --    0.28438   0.30877   0.31221   0.31748   0.32050

 Mulliken charges:
               1
     1  C   -0.297105
     2  C   -0.300057
     3  C   -0.483417
     4  H    0.147114
     5  H    0.147076
     6  H    0.152190
     7  H    0.152936
     8  H    0.152903
     9  H    0.155385
    10  H    0.170093
    11  C   -0.298239
    12  C   -0.299107
    13  C   -0.475626
    14  H    0.149937
    15  H    0.150710
    16  H    0.149568
    17  H    0.150720
    18  H    0.156086
    19  H    0.155596
    20  H    0.159519
    21  C   -0.171107
    22  C   -0.218139
    23  C   -0.174280
    24  C    0.162598
    25  C   -0.169338
    26  C   -0.217664
    27  H    0.225598
    28  H    0.223366
    29  H    0.275569
    30  H    0.275226
    31  H    0.223343
    32  N    0.490426
    33  O   -0.460729
    34  O   -0.461149
 Sum of Mulliken charges =  -0.00000

 Dipole moment (field-independent basis, Debye):
    X=             -2.0728    Y=              4.7068    Z=              0.0879  Tot=              5.1438
 Quadrupole moment (field-independent basis, Debye-Ang):
   XX=           -108.6480   YY=            -93.1867   ZZ=            -88.9315
   XY=             12.9285   XZ=             -0.6149   YZ=             -0.5832

 Normal termination of Gaussian 16 at Thu May  6 15:37:13 2021.
