 Gaussian 16, Revision A.03,
 Gaussian 16:  EM64L-G16RevA.03 25-Dec-2016

 -------------
 #p 6-31g* mp2
 -------------

 ------------------------------------------------------
 Input file generated by CHIRIPA (05-May-2021 14:57:23)
 ------------------------------------------------------
 Symbolic Z-matrix:
 Charge =  0 Multiplicity = 1

                         Standard orientation:
 ---------------------------------------------------------------------
 Center     Atomic      Atomic             Coordinates (Angstroms)
 Number     Number       Type             X           Y           Z
 ---------------------------------------------------------------------
      1          6           0       -4.413645    1.629946    0.862624
      2          6           0       -3.049564    1.517239    1.150898
      3          6           0       -2.306620    0.439816    0.659224
      4          6           0       -2.962723   -0.510960   -0.121061
      5          6           0       -4.320428   -0.426488   -0.425678
      6          6           0       -5.043612    0.659434    0.076641
      7          1           0       -4.983107    2.470215    1.248703
      8          1           0       -2.557692    2.269456    1.761042
      9          1           0       -1.249393    0.328013    0.867040
     10          1           0       -4.783024   -1.192093   -1.036638
     11          1           0       -6.102849    0.744391   -0.148846
     12          7           0       -2.186660   -1.656078   -0.647209
     13          8           0       -2.788096   -2.480410   -1.332329
     14          8           0       -0.991642   -1.707607   -0.364522
     15          6           0        4.148551   -1.770974    0.964513
     16          6           0        2.877563   -1.377706    1.396311
     17          6           0        2.281697   -0.219750    0.887755
     18          6           0        2.988351    0.524594   -0.055580
     19          6           0        4.256028    0.158902   -0.505643
     20          6           0        4.832521   -1.002769    0.016585
     21          1           0        4.603910   -2.671945    1.364882
     22          1           0        2.344052   -1.972358    2.132383
     23          1           0        1.298940    0.107762    1.204522
     24          1           0        4.763300    0.772184   -1.240475
     25          1           0        5.819713   -1.305769   -0.320591
     26          7           0        2.367788    1.752437   -0.601203
     27          8           0        3.011084    2.390896   -1.431370
     28          8           0        1.249846    2.053112   -0.188364
 ---------------------------------------------------------------------

 SCF Done:  E(RHF) =  -868.339286362     A.U. after   16 cycles
 E2 =    -0.2599736513D+01 EUMP2 =    -0.87093902287537D+03

 The electronic state is 1-A.
 Alpha  occ. eigenvalues --  -20.60718 -20.60692 -20.60689 -20.60652 -15.85749
 Alpha  occ. eigenvalues --  -15.85711 -11.30896 -11.30802 -11.27466 -11.27438
 Alpha  occ. eigenvalues --  -11.27394 -11.27357 -11.27157 -11.27048 -11.26448
 Alpha  occ. eigenvalues --  -11.26364 -11.26333 -11.26277  -1.59775  -1.59732
 Alpha  occ. eigenvalues --   -1.39340  -1.39302  -1.19052  -1.18951  -1.08491
 Alpha  occ. eigenvalues --   -1.08399  -1.04419  -1.04321  -0.95373  -0.95277
 Alpha  occ. eigenvalues --   -0.85844  -0.85743  -0.82219  -0.82121  -0.77361
 Alpha  occ. eigenvalues --   -0.77140  -0.72017  -0.71931  -0.71084  -0.71024
 Alpha  occ. eigenvalues --   -0.70190  -0.70088  -0.64715  -0.64624  -0.64479
 Alpha  occ. eigenvalues --   -0.64299  -0.61896  -0.61582  -0.54961  -0.54851
 Alpha  occ. eigenvalues --   -0.52758  -0.52636  -0.52592  -0.52359  -0.48759
 Alpha  occ. eigenvalues --   -0.48717  -0.48697  -0.48662  -0.44805  -0.44752
 Alpha  occ. eigenvalues --   -0.37029  -0.36909  -0.35995  -0.35872
 Alpha virt. eigenvalues --    0.05215   0.05352   0.11649   0.11752   0.16791
 Alpha virt. eigenvalues --    0.16879   0.20148   0.22379   0.25225   0.28003
 Alpha virt. eigenvalues --    0.28225   0.29782   0.30860   0.31673   0.31976

 Mulliken charges:
               1
     1  C   -0.170162
     2  C   -0.221079
     3  C   -0.168294
     4  C    0.154914
     5  C   -0.170072
     6  C   -0.219240
     7  H    0.225540
     8  H    0.227743
     9  H    0.283168
    10  H    0.274215
    11  H    0.222389
    12  N    0.488476
    13  O   -0.460001
    14  O   -0.468492
    15  C   -0.169633
    16  C   -0.217608
    17  C   -0.157914
    18  C    0.155573
    19  C   -0.169966
    20  C   -0.218730
    21  H    0.225362
    22  H    0.225416
    23  H    0.273365
    24  H    0.274092
    25  H    0.222254
    26  N    0.489773
    27  O   -0.459031
    28  O   -0.472057
 Sum of Mulliken charges =  -0.00000

 Dipole moment (field-independent basis, Debye):
    X=             -0.5152    Y=             -0.3135    Z=              3.7752  Tot=              3.8230
 Quadrupole moment (field-independent basis, Debye-Ang):
   XX=            -69.2264   YY=           -114.0122   ZZ=           -104.0761
   XY=            -20.8969   XZ=             -0.1351   YZ=              0.1687

 Normal termination of Gaussian 16 at Thu May  6 06:37:48 2021.
