 Gaussian 16, Revision A.03,
 Gaussian 16:  EM64L-G16RevA.03 25-Dec-2016

 -------------
 #p 6-31g* mp2
 -------------

 ------------------------------------------------------
 Input file generated by CHIRIPA (05-May-2021 14:55:22)
 ------------------------------------------------------
 Symbolic Z-matrix:
 Charge =  0 Multiplicity = 1

                         Standard orientation:
 ---------------------------------------------------------------------
 Center     Atomic      Atomic             Coordinates (Angstroms)
 Number     Number       Type             X           Y           Z
 ---------------------------------------------------------------------
      1          6           0       -3.670862    1.581431   -1.086715
      2          6           0       -4.218577    0.310326   -0.884669
      3          6           0       -3.502542   -0.669106   -0.190007
      4          6           0       -2.235783   -0.341728    0.291071
      5          6           0       -1.662966    0.915605    0.105912
      6          6           0       -2.397051    1.879488   -0.591653
      7          1           0       -4.234106    2.336238   -1.627473
      8          1           0       -5.207616    0.076038   -1.268016
      9          1           0       -3.902637   -1.661182   -0.019344
     10          1           0       -0.674731    1.119513    0.499907
     11          1           0       -1.969181    2.865803   -0.747071
     12          7           0       -1.468194   -1.370378    1.028015
     13          8           0       -0.354130   -1.056932    1.441837
     14          8           0       -1.995157   -2.470603    1.177856
     15          6           0        3.419631   -0.430932   -0.266632
     16          6           0        2.664063   -1.546272   -0.989901
     17          6           0        3.469085   -2.842975   -1.080990
     18          1           0        4.367087   -0.240062   -0.788973
     19          1           0        3.683141   -0.771785    0.744197
     20          1           0        2.400846   -1.202910   -1.998581
     21          1           0        1.718206   -1.734376   -0.465888
     22          1           0        3.719552   -3.211961   -0.081132
     23          1           0        4.406070   -2.677475   -1.622533
     24          1           0        2.910167   -3.626764   -1.601706
     25          6           0        2.627833    0.871747   -0.167579
     26          6           0        3.383402    1.987089    0.555689
     27          6           0        2.578380    3.283791    0.646780
     28          1           0        2.364323    1.212601   -1.178409
     29          1           0        1.680377    0.680879    0.354761
     30          1           0        4.329258    2.175193    0.031677
     31          1           0        3.646617    1.643727    1.564369
     32          1           0        1.641394    3.118292    1.188322
     33          1           0        2.327913    3.652778   -0.353079
     34          1           0        3.137297    4.067581    1.167495
 ---------------------------------------------------------------------

 SCF Done:  E(RHF) =  -669.536201907     A.U. after   15 cycles
 E2 =    -0.2093083348D+01 EUMP2 =    -0.67162928525468D+03

 The electronic state is 1-A.
 Alpha  occ. eigenvalues --  -20.61037 -20.61032 -15.86042 -11.31278 -11.27841
 Alpha  occ. eigenvalues --  -11.27808 -11.27565 -11.26833 -11.26809 -11.21414
 Alpha  occ. eigenvalues --  -11.21243 -11.20985 -11.20758 -11.20687 -11.20305
 Alpha  occ. eigenvalues --   -1.60085  -1.39646  -1.19443  -1.08866  -1.07946
 Alpha  occ. eigenvalues --   -1.04826  -1.03085  -0.95726  -0.95574  -0.86604
 Alpha  occ. eigenvalues --   -0.86235  -0.82561  -0.79188  -0.77873  -0.77491
 Alpha  occ. eigenvalues --   -0.72279  -0.71385  -0.70562  -0.65114  -0.64872
 Alpha  occ. eigenvalues --   -0.64504  -0.62183  -0.60459  -0.58987  -0.57177
 Alpha  occ. eigenvalues --   -0.55346  -0.54874  -0.53163  -0.52935  -0.52287
 Alpha  occ. eigenvalues --   -0.52014  -0.49554  -0.49046  -0.49016  -0.47499
 Alpha  occ. eigenvalues --   -0.46188  -0.45563  -0.45240  -0.44573  -0.43317
 Alpha  occ. eigenvalues --   -0.37421  -0.36419
 Alpha virt. eigenvalues --    0.04856   0.11211   0.16340   0.20250   0.23290
 Alpha virt. eigenvalues --    0.24285   0.25986   0.27305   0.27761   0.28372
 Alpha virt. eigenvalues --    0.29667   0.31072   0.31447   0.32075   0.32463

 Mulliken charges:
               1
     1  C   -0.170101
     2  C   -0.219033
     3  C   -0.169935
     4  C    0.155324
     5  C   -0.171648
     6  C   -0.222039
     7  H    0.226038
     8  H    0.223713
     9  H    0.275613
    10  H    0.284831
    11  H    0.225130
    12  N    0.489066
    13  O   -0.463719
    14  O   -0.457681
    15  C   -0.294339
    16  C   -0.308679
    17  C   -0.475091
    18  H    0.145403
    19  H    0.154287
    20  H    0.144056
    21  H    0.171191
    22  H    0.158160
    23  H    0.150424
    24  H    0.159085
    25  C   -0.314020
    26  C   -0.298390
    27  C   -0.476761
    28  H    0.142629
    29  H    0.166784
    30  H    0.151663
    31  H    0.156046
    32  H    0.148767
    33  H    0.151150
    34  H    0.162076
 Sum of Mulliken charges =  -0.00000

 Dipole moment (field-independent basis, Debye):
    X=             -2.8586    Y=              3.4855    Z=             -2.4475  Tot=              5.1294
 Quadrupole moment (field-independent basis, Debye-Ang):
   XX=            -80.2735   YY=            -96.6511   ZZ=            -96.4470
   XY=             -4.0052   XZ=              5.9745   YZ=              1.7227

 Normal termination of Gaussian 16 at Thu May  6 04:38:31 2021.
