 Gaussian 16, Revision A.03,
 Gaussian 16:  EM64L-G16RevA.03 25-Dec-2016

 -------------
 #p 6-31g* mp2
 -------------

 ------------------------------------------------------
 Input file generated by CHIRIPA (05-May-2021 14:55:19)
 ------------------------------------------------------
 Symbolic Z-matrix:
 Charge =  0 Multiplicity = 1

                         Standard orientation:
 ---------------------------------------------------------------------
 Center     Atomic      Atomic             Coordinates (Angstroms)
 Number     Number       Type             X           Y           Z
 ---------------------------------------------------------------------
      1          6           0       -1.149597   -2.844496    0.718902
      2          6           0       -1.596344   -1.905804    1.654742
      3          6           0       -2.040966   -0.646657    1.240727
      4          6           0       -2.025201   -0.358397   -0.123072
      5          6           0       -1.586031   -1.272305   -1.079729
      6          6           0       -1.145873   -2.525313   -0.642946
      7          1           0       -0.805938   -3.820247    1.049362
      8          1           0       -1.600351   -2.150935    2.713014
      9          1           0       -2.392061    0.098870    1.943820
     10          1           0       -1.593786   -0.998954   -2.127888
     11          1           0       -0.799472   -3.252339   -1.371975
     12          7           0       -2.493539    0.971356   -0.573423
     13          8           0       -2.469731    1.200837   -1.780655
     14          8           0       -2.875564    1.758957    0.289351
     15          6           0        2.495008   -0.021353   -0.007330
     16          6           0        3.878171   -0.599872   -0.307600
     17          6           0        3.865026   -2.122654   -0.444548
     18          1           0        2.109565   -0.470837    0.918057
     19          1           0        1.801674   -0.312398   -0.808564
     20          1           0        4.569021   -0.306662    0.493256
     21          1           0        4.260447   -0.148817   -1.232278
     22          1           0        3.197882   -2.430715   -1.256102
     23          1           0        3.508209   -2.589458    0.479236
     24          1           0        4.863943   -2.515084   -0.659081
     25          6           0        2.491904    1.499896    0.132382
     26          6           0        1.108742    2.078416    0.432652
     27          6           0        1.121887    3.601198    0.569600
     28          1           0        3.185238    1.790941    0.933616
     29          1           0        2.877348    1.949381   -0.793005
     30          1           0        0.726466    1.627360    1.357330
     31          1           0        0.417892    1.785205   -0.368204
     32          1           0        1.478704    4.068002   -0.354185
     33          1           0        1.789031    3.909259    1.381154
     34          1           0        0.122970    3.993628    0.784133
 ---------------------------------------------------------------------

 SCF Done:  E(RHF) =  -669.536124091     A.U. after   15 cycles
 E2 =    -0.2093533206D+01 EUMP2 =    -0.67162965729705D+03

 The electronic state is 1-A.
 Alpha  occ. eigenvalues --  -20.60841 -20.60833 -15.85871 -11.31209 -11.27786
 Alpha  occ. eigenvalues --  -11.27777 -11.27520 -11.26806 -11.26796 -11.21724
 Alpha  occ. eigenvalues --  -11.21391 -11.21368 -11.21295 -11.21194 -11.20499
 Alpha  occ. eigenvalues --   -1.59904  -1.39459  -1.19383  -1.08785  -1.08345
 Alpha  occ. eigenvalues --   -1.04789  -1.03419  -0.95861  -0.95626  -0.86885
 Alpha  occ. eigenvalues --   -0.86187  -0.82462  -0.79516  -0.78156  -0.77511
 Alpha  occ. eigenvalues --   -0.72099  -0.71222  -0.70495  -0.65045  -0.64980
 Alpha  occ. eigenvalues --   -0.64795  -0.62141  -0.60821  -0.59252  -0.57449
 Alpha  occ. eigenvalues --   -0.55291  -0.55167  -0.53141  -0.52885  -0.52516
 Alpha  occ. eigenvalues --   -0.52292  -0.49830  -0.48859  -0.48856  -0.47826
 Alpha  occ. eigenvalues --   -0.46557  -0.45653  -0.45624  -0.44845  -0.43656
 Alpha  occ. eigenvalues --   -0.37328  -0.36364
 Alpha virt. eigenvalues --    0.05009   0.11205   0.16496   0.21295   0.22894
 Alpha virt. eigenvalues --    0.24289   0.26372   0.27125   0.27436   0.28067
 Alpha virt. eigenvalues --    0.28349   0.30566   0.31343   0.31834   0.32337

 Mulliken charges:
               1
     1  C   -0.170013
     2  C   -0.218972
     3  C   -0.170364
     4  C    0.159578
     5  C   -0.172304
     6  C   -0.217078
     7  H    0.225914
     8  H    0.223403
     9  H    0.275537
    10  H    0.275414
    11  H    0.223701
    12  N    0.490407
    13  O   -0.460804
    14  O   -0.459596
    15  C   -0.298326
    16  C   -0.299531
    17  C   -0.474179
    18  H    0.147408
    19  H    0.148622
    20  H    0.152195
    21  H    0.153134
    22  H    0.151210
    23  H    0.151736
    24  H    0.160792
    25  C   -0.298312
    26  C   -0.301117
    27  C   -0.477182
    28  H    0.148295
    29  H    0.150804
    30  H    0.148185
    31  H    0.153293
    32  H    0.155724
    33  H    0.150985
    34  H    0.171441
 Sum of Mulliken charges =  -0.00000

 Dipole moment (field-independent basis, Debye):
    X=              1.5337    Y=             -4.6090    Z=              1.5861  Tot=              5.1099
 Quadrupole moment (field-independent basis, Debye-Ang):
   XX=           -102.3433   YY=            -92.5848   ZZ=            -89.7658
   XY=              8.8602   XZ=             -4.3654   YZ=              1.0778

 Normal termination of Gaussian 16 at Wed May  5 22:07:09 2021.
