 Gaussian 16, Revision A.03,
 Gaussian 16:  EM64L-G16RevA.03 25-Dec-2016

 -------------
 #p 6-31g* mp2
 -------------

 ------------------------------------------------------
 Input file generated by CHIRIPA (05-May-2021 14:55:21)
 ------------------------------------------------------
 Symbolic Z-matrix:
 Charge =  0 Multiplicity = 1

                         Standard orientation:
 ---------------------------------------------------------------------
 Center     Atomic      Atomic             Coordinates (Angstroms)
 Number     Number       Type             X           Y           Z
 ---------------------------------------------------------------------
      1          6           0       -4.240419   -1.736609    0.377480
      2          6           0       -3.633830   -1.518911   -0.863962
      3          6           0       -2.883797   -0.361837   -1.094563
      4          6           0       -2.760465    0.560666   -0.056745
      5          6           0       -3.352774    0.372308    1.191046
      6          6           0       -4.098205   -0.791970    1.399220
      7          1           0       -4.821275   -2.638250    0.547906
      8          1           0       -3.742577   -2.250804   -1.659294
      9          1           0       -2.403564   -0.168121   -2.046019
     10          1           0       -3.226477    1.120084    1.964543
     11          1           0       -4.568175   -0.958397    2.364350
     12          7           0       -1.968874    1.789422   -0.289001
     13          8           0       -1.875324    2.586792    0.641636
     14          8           0       -1.456964    1.931885   -1.397284
     15          6           0        4.443121   -0.636271    0.036060
     16          6           0        5.351327    0.569459    0.279701
     17          6           0        6.834253    0.197660    0.301818
     18          1           0        4.622850   -1.386631    0.818111
     19          1           0        4.718339   -1.106988   -0.917920
     20          1           0        5.073566    1.038583    1.232271
     21          1           0        5.169278    1.317116   -0.502912
     22          1           0        7.133324   -0.250426   -0.651270
     23          1           0        7.037068   -0.530542    1.093771
     24          1           0        7.465390    1.074419    0.477369
     25          6           0        2.957656   -0.280599    0.011214
     26          6           0        2.049450   -1.486331   -0.232427
     27          6           0        0.566525   -1.114530   -0.254544
     28          1           0        2.682439    0.190117    0.965193
     29          1           0        2.777928    0.469759   -0.770837
     30          1           0        2.231499   -2.233987    0.550186
     31          1           0        2.327212   -1.955453   -1.184996
     32          1           0        0.363709   -0.386329   -1.046496
     33          1           0        0.267453   -0.666445    0.698545
     34          1           0       -0.064613   -1.991290   -0.430095
 ---------------------------------------------------------------------

 SCF Done:  E(RHF) =  -669.535652317     A.U. after   15 cycles
 E2 =    -0.2092871918D+01 EUMP2 =    -0.67162852423501D+03

 The electronic state is 1-A.
 Alpha  occ. eigenvalues --  -20.60824 -20.60818 -15.85844 -11.31145 -11.27739
 Alpha  occ. eigenvalues --  -11.27727 -11.27484 -11.26742 -11.26733 -11.21303
 Alpha  occ. eigenvalues --  -11.21216 -11.21024 -11.20909 -11.20768 -11.20762
 Alpha  occ. eigenvalues --   -1.59875  -1.39436  -1.19337  -1.08742  -1.08058
 Alpha  occ. eigenvalues --   -1.04741  -1.03201  -0.95673  -0.95572  -0.86696
 Alpha  occ. eigenvalues --   -0.86133  -0.82426  -0.79281  -0.77860  -0.77473
 Alpha  occ. eigenvalues --   -0.72079  -0.71179  -0.70459  -0.65000  -0.64760
 Alpha  occ. eigenvalues --   -0.64678  -0.62097  -0.60597  -0.59032  -0.57263
 Alpha  occ. eigenvalues --   -0.55256  -0.54938  -0.53233  -0.52838  -0.52235
 Alpha  occ. eigenvalues --   -0.52051  -0.49611  -0.48835  -0.48826  -0.47593
 Alpha  occ. eigenvalues --   -0.46312  -0.45427  -0.45333  -0.44742  -0.43451
 Alpha  occ. eigenvalues --   -0.37285  -0.36302
 Alpha virt. eigenvalues --    0.05041   0.11282   0.16511   0.21346   0.23235
 Alpha virt. eigenvalues --    0.24549   0.26909   0.27193   0.27695   0.28057
 Alpha virt. eigenvalues --    0.28674   0.30623   0.31534   0.31996   0.32117

 Mulliken charges:
               1
     1  C   -0.170484
     2  C   -0.219767
     3  C   -0.166544
     4  C    0.162339
     5  C   -0.171981
     6  C   -0.218612
     7  H    0.225434
     8  H    0.223229
     9  H    0.275103
    10  H    0.275285
    11  H    0.223163
    12  N    0.489518
    13  O   -0.459736
    14  O   -0.460882
    15  C   -0.298144
    16  C   -0.299730
    17  C   -0.475551
    18  H    0.147511
    19  H    0.148205
    20  H    0.152659
    21  H    0.154148
    22  H    0.154373
    23  H    0.153871
    24  H    0.160114
    25  C   -0.299519
    26  C   -0.299648
    27  C   -0.484752
    28  H    0.151027
    29  H    0.156327
    30  H    0.149081
    31  H    0.149867
    32  H    0.166398
    33  H    0.153595
    34  H    0.154101
 Sum of Mulliken charges =  -0.00000

 Dipole moment (field-independent basis, Debye):
    X=             -2.8664    Y=             -4.2088    Z=              0.7839  Tot=              5.1522
 Quadrupole moment (field-independent basis, Debye-Ang):
   XX=            -81.3930   YY=           -100.0179   ZZ=            -89.5448
   XY=             10.6623   XZ=             -3.3506   YZ=              2.1709

 Normal termination of Gaussian 16 at Thu May  6 17:30:14 2021.
