 Gaussian 16, Revision A.03,
 Gaussian 16:  EM64L-G16RevA.03 25-Dec-2016

 -------------
 #p 6-31g* mp2
 -------------

 ------------------------------------------------------
 Input file generated by CHIRIPA (05-May-2021 14:51:09)
 ------------------------------------------------------
 Symbolic Z-matrix:
 Charge =  0 Multiplicity = 1

                         Standard orientation:
 ---------------------------------------------------------------------
 Center     Atomic      Atomic             Coordinates (Angstroms)
 Number     Number       Type             X           Y           Z
 ---------------------------------------------------------------------
      1          6           0        2.466239    0.071883   -0.641296
      2          6           0        3.205756   -1.176987   -0.160229
      3          6           0        3.094954   -2.344341   -1.141453
      4          1           0        1.407820   -0.175312   -0.801264
      5          1           0        2.867883    0.373710   -1.618525
      6          1           0        2.803782   -1.475561    0.816442
      7          1           0        4.262498   -0.926743   -0.001204
      8          1           0        3.513875   -2.070275   -2.115103
      9          1           0        2.046870   -2.622212   -1.292812
     10          1           0        3.630754   -3.226692   -0.777812
     11          6           0        2.567788    1.247480    0.328955
     12          6           0        1.828272    2.496350   -0.152112
     13          6           0        1.939074    3.663704    0.829113
     14          1           0        2.166145    0.945654    1.306185
     15          1           0        3.626207    1.494675    0.488923
     16          1           0        0.771529    2.246106   -0.311137
     17          1           0        2.230246    2.794924   -1.128783
     18          1           0        2.987157    3.941575    0.980471
     19          1           0        1.520153    3.389638    1.802763
     20          1           0        1.403273    4.546055    0.465471
     21          6           0       -2.881462   -0.000140    0.281131
     22          6           0       -3.798806    0.413332   -0.870175
     23          6           0       -4.520909    1.734780   -0.605344
     24          1           0       -3.474299   -0.082818    1.202356
     25          1           0       -2.142410    0.794136    0.455264
     26          1           0       -4.535039   -0.382099   -1.042993
     27          1           0       -3.203751    0.494848   -1.788804
     28          1           0       -3.799597    2.544402   -0.454273
     29          1           0       -5.138450    1.662472    0.295775
     30          1           0       -5.171278    2.011383   -1.441030
     31          6           0       -2.152566   -1.319223    0.031209
     32          6           0       -1.235222   -1.732695    1.182515
     33          6           0       -0.513119   -3.054143    0.917685
     34          1           0       -2.891617   -2.113500   -0.142923
     35          1           0       -1.559729   -1.236545   -0.890015
     36          1           0       -1.830276   -1.814212    2.101145
     37          1           0       -0.498988   -0.937264    1.355334
     38          1           0        0.104423   -2.981835    0.016565
     39          1           0       -1.234430   -3.863765    0.766614
     40          1           0        0.137251   -3.330746    1.753371
 ---------------------------------------------------------------------

 SCF Done:  E(RHF) =  -470.733235292     A.U. after   11 cycles
 E2 =    -0.1584107134D+01 EUMP2 =    -0.47231734242571D+03

 The electronic state is 1-A.
 Alpha  occ. eigenvalues --  -11.21671 -11.21664 -11.21638 -11.21615 -11.21471
 Alpha  occ. eigenvalues --  -11.21456 -11.21411 -11.21396 -11.21112 -11.21106
 Alpha  occ. eigenvalues --  -11.21095 -11.21076  -1.08513  -1.08452  -1.03612
 Alpha  occ. eigenvalues --   -1.03535  -0.96058  -0.95987  -0.87078  -0.86999
 Alpha  occ. eigenvalues --   -0.79656  -0.79615  -0.78311  -0.78280  -0.65383
 Alpha  occ. eigenvalues --   -0.64876  -0.61238  -0.60710  -0.59419  -0.59358
 Alpha  occ. eigenvalues --   -0.57692  -0.57584  -0.55535  -0.55106  -0.52719
 Alpha  occ. eigenvalues --   -0.52700  -0.52516  -0.52386  -0.50172  -0.49739
 Alpha  occ. eigenvalues --   -0.48040  -0.47878  -0.46732  -0.46587  -0.45993
 Alpha  occ. eigenvalues --   -0.45808  -0.45721  -0.45619  -0.43836  -0.43822
 Alpha virt. eigenvalues --    0.18314   0.22184   0.23494   0.25173   0.25432
 Alpha virt. eigenvalues --    0.26152   0.26721   0.27841   0.28724   0.29557
 Alpha virt. eigenvalues --    0.30878   0.31360   0.31811   0.31913   0.32111

 Mulliken charges:
               1
     1  C   -0.301059
     2  C   -0.300806
     3  C   -0.479068
     4  H    0.151200
     5  H    0.149797
     6  H    0.153905
     7  H    0.152174
     8  H    0.155105
     9  H    0.158058
    10  H    0.160799
    11  C   -0.299139
    12  C   -0.300478
    13  C   -0.475766
    14  H    0.150045
    15  H    0.150144
    16  H    0.151584
    17  H    0.152264
    18  H    0.155442
    19  H    0.155404
    20  H    0.160382
    21  C   -0.299265
    22  C   -0.299735
    23  C   -0.475768
    24  H    0.150018
    25  H    0.149738
    26  H    0.152104
    27  H    0.152207
    28  H    0.155293
    29  H    0.155231
    30  H    0.160456
    31  C   -0.299541
    32  C   -0.301805
    33  C   -0.481482
    34  H    0.150141
    35  H    0.149964
    36  H    0.152436
    37  H    0.153014
    38  H    0.161081
    39  H    0.155538
    40  H    0.160387
 Sum of Mulliken charges =  -0.00000

 Dipole moment (field-independent basis, Debye):
    X=              0.0032    Y=             -0.0107    Z=              0.0034  Tot=              0.0117
 Quadrupole moment (field-independent basis, Debye-Ang):
   XX=            -83.6734   YY=            -86.1060   ZZ=            -84.7497
   XY=              1.2585   XZ=             -0.6924   YZ=             -0.9909

 Normal termination of Gaussian 16 at Wed May  5 22:57:18 2021.
