 Gaussian 16, Revision A.03,
 Gaussian 16:  EM64L-G16RevA.03 25-Dec-2016

 -------------
 #p 6-31g* mp2
 -------------

 ------------------------------------------------------
 Input file generated by CHIRIPA (05-May-2021 14:53:18)
 ------------------------------------------------------
 Symbolic Z-matrix:
 Charge =  0 Multiplicity = 1

                         Standard orientation:
 ---------------------------------------------------------------------
 Center     Atomic      Atomic             Coordinates (Angstroms)
 Number     Number       Type             X           Y           Z
 ---------------------------------------------------------------------
      1          6           0       -4.697055    0.316405    0.457024
      2          6           0       -3.394698    0.117766   -0.319116
      3          6           0       -2.188639    0.746919    0.379012
      4          1           0       -4.872544    1.391812    0.597195
      5          1           0       -4.586856   -0.115816    1.461233
      6          1           0       -3.507793    0.549008   -1.322040
      7          1           0       -3.222388   -0.957288   -0.457623
      8          1           0       -2.047586    0.309927    1.372865
      9          1           0       -2.334614    1.824781    0.503536
     10          1           0       -1.268311    0.593047   -0.192984
     11          6           0       -5.911772   -0.306995   -0.228222
     12          6           0       -7.214129   -0.108356    0.547918
     13          6           0       -8.420188   -0.737509   -0.150210
     14          1           0       -6.021971    0.125226   -1.232431
     15          1           0       -5.736283   -1.382403   -0.368394
     16          1           0       -7.386439    0.966698    0.686425
     17          1           0       -7.101034   -0.539598    1.550842
     18          1           0       -8.274213   -1.815371   -0.274734
     19          1           0       -8.561240   -0.300517   -1.144063
     20          1           0       -9.340516   -0.583637    0.421786
     21          6           0        1.872588    0.921142   -0.681818
     22          6           0        2.900731    1.785995   -0.292625
     23          6           0        4.163270    1.284681    0.037866
     24          6           0        4.363672   -0.093084   -0.032101
     25          6           0        3.359494   -0.980413   -0.416242
     26          6           0        2.104842   -0.456872   -0.742278
     27          1           0        0.894880    1.319208   -0.936821
     28          1           0        2.723226    2.856625   -0.244771
     29          1           0        4.977036    1.931585    0.342362
     30          1           0        3.566650   -2.042977   -0.454464
     31          1           0        1.308239   -1.130901   -1.044197
     32          7           0        5.696091   -0.635569    0.315417
     33          8           0        5.847140   -1.853341    0.245772
     34          8           0        6.564163    0.167278    0.650868
 ---------------------------------------------------------------------

 SCF Done:  E(RHF) =  -669.535383123     A.U. after   15 cycles
 E2 =    -0.2090831223D+01 EUMP2 =    -0.67162621434556D+03

 The electronic state is 1-A.
 Alpha  occ. eigenvalues --  -20.60733 -20.60728 -15.85787 -11.31148 -11.27719
 Alpha  occ. eigenvalues --  -11.27715 -11.27434 -11.26731 -11.26719 -11.22488
 Alpha  occ. eigenvalues --  -11.22198 -11.22074 -11.22057 -11.21925 -11.21456
 Alpha  occ. eigenvalues --   -1.59809  -1.39363  -1.19320  -1.09090  -1.08715
 Alpha  occ. eigenvalues --   -1.04724  -1.04226  -0.96689  -0.95551  -0.87709
 Alpha  occ. eigenvalues --   -0.86121  -0.82386  -0.80294  -0.78865  -0.77432
 Alpha  occ. eigenvalues --   -0.72005  -0.71132  -0.70452  -0.65712  -0.64974
 Alpha  occ. eigenvalues --   -0.64735  -0.62075  -0.61611  -0.60123  -0.58294
 Alpha  occ. eigenvalues --   -0.55956  -0.55270  -0.53383  -0.53114  -0.53005
 Alpha  occ. eigenvalues --   -0.52814  -0.50609  -0.48764  -0.48761  -0.48606
 Alpha  occ. eigenvalues --   -0.47309  -0.46416  -0.46314  -0.44769  -0.44475
 Alpha  occ. eigenvalues --   -0.37287  -0.36328
 Alpha virt. eigenvalues --    0.05092   0.11304   0.16551   0.19972   0.22433
 Alpha virt. eigenvalues --    0.23852   0.26029   0.26090   0.26860   0.27441
 Alpha virt. eigenvalues --    0.28496   0.30546   0.30754   0.31395   0.31916

 Mulliken charges:
               1
     1  C   -0.299173
     2  C   -0.299615
     3  C   -0.478613
     4  H    0.150679
     5  H    0.151419
     6  H    0.152111
     7  H    0.152475
     8  H    0.161309
     9  H    0.157041
    10  H    0.148943
    11  C   -0.298748
    12  C   -0.300145
    13  C   -0.476045
    14  H    0.149927
    15  H    0.150374
    16  H    0.152469
    17  H    0.152860
    18  H    0.155757
    19  H    0.155512
    20  H    0.161667
    21  C   -0.172404
    22  C   -0.219132
    23  C   -0.170916
    24  C    0.158346
    25  C   -0.171050
    26  C   -0.219501
    27  H    0.229775
    28  H    0.223610
    29  H    0.275450
    30  H    0.275454
    31  H    0.223171
    32  N    0.488084
    33  O   -0.460579
    34  O   -0.460513
 Sum of Mulliken charges =  -0.00000

 Dipole moment (field-independent basis, Debye):
    X=             -4.9087    Y=              1.9126    Z=             -1.1726  Tot=              5.3970
 Quadrupole moment (field-independent basis, Debye-Ang):
   XX=           -135.8956   YY=            -90.2598   ZZ=            -95.2452
   XY=             10.0992   XZ=             -5.2637   YZ=              0.4679

 Normal termination of Gaussian 16 at Wed May  5 15:46:38 2021.
