 Gaussian 16, Revision A.03,
 Gaussian 16:  EM64L-G16RevA.03 25-Dec-2016

 -------------
 #p 6-31g* mp2
 -------------

 ------------------------------------------------------
 Input file generated by CHIRIPA (05-May-2021 14:53:13)
 ------------------------------------------------------
 Symbolic Z-matrix:
 Charge =  0 Multiplicity = 1

                         Standard orientation:
 ---------------------------------------------------------------------
 Center     Atomic      Atomic             Coordinates (Angstroms)
 Number     Number       Type             X           Y           Z
 ---------------------------------------------------------------------
      1          6           0        3.835449   -0.378920    0.344879
      2          6           0        3.141300   -1.741166    0.324194
      3          6           0        1.805032   -1.735073    1.067258
      4          1           0        3.995444   -0.071829    1.387493
      5          1           0        3.169121    0.371188   -0.103161
      6          1           0        3.809292   -2.488743    0.770883
      7          1           0        2.983111   -2.045136   -0.718492
      8          1           0        1.117947   -1.010470    0.618408
      9          1           0        1.948821   -1.456597    2.116246
     10          1           0        1.326016   -2.718770    1.039984
     11          6           0        5.172552   -0.369047   -0.393893
     12          6           0        5.866701    0.993199   -0.373207
     13          6           0        7.202969    0.987107   -1.116271
     14          1           0        5.838880   -1.119155    0.054148
     15          1           0        5.012557   -0.676137   -1.436506
     16          1           0        6.024890    1.297170    0.669479
     17          1           0        5.198709    1.740776   -0.819897
     18          1           0        7.059179    0.708630   -2.165259
     19          1           0        7.890054    0.262504   -0.667422
     20          1           0        7.681985    1.970804   -1.088998
     21          6           0       -1.741837    1.682774    1.148188
     22          6           0       -2.796302    2.307428    0.474072
     23          6           0       -3.786426    1.546930   -0.155090
     24          6           0       -3.690536    0.157736   -0.090006
     25          6           0       -2.652340   -0.494016    0.573815
     26          6           0       -1.673343    0.286507    1.195825
     27          1           0       -0.977007    2.281325    1.634158
     28          1           0       -2.852053    3.391607    0.435447
     29          1           0       -4.613693    2.004579   -0.683868
     30          1           0       -2.623708   -1.576672    0.595142
     31          1           0       -0.855577   -0.201325    1.718629
     32          7           0       -4.732846   -0.657969   -0.752285
     33          8           0       -4.625618   -1.880252   -0.680446
     34          8           0       -5.637302   -0.059589   -1.330679
 ---------------------------------------------------------------------

 SCF Done:  E(RHF) =  -669.535552929     A.U. after   15 cycles
 E2 =    -0.2091050327D+01 EUMP2 =    -0.67162660325559D+03

 The electronic state is 1-A.
 Alpha  occ. eigenvalues --  -20.60735 -20.60730 -15.85788 -11.31149 -11.27725
 Alpha  occ. eigenvalues --  -11.27705 -11.27456 -11.26737 -11.26662 -11.22271
 Alpha  occ. eigenvalues --  -11.22043 -11.22006 -11.21989 -11.21851 -11.21427
 Alpha  occ. eigenvalues --   -1.59811  -1.39364  -1.19321  -1.08995  -1.08716
 Alpha  occ. eigenvalues --   -1.04722  -1.04116  -0.96593  -0.95552  -0.87626
 Alpha  occ. eigenvalues --   -0.86114  -0.82383  -0.80197  -0.78797  -0.77427
 Alpha  occ. eigenvalues --   -0.72006  -0.71134  -0.70428  -0.65626  -0.64969
 Alpha  occ. eigenvalues --   -0.64733  -0.62104  -0.61484  -0.59953  -0.58186
 Alpha  occ. eigenvalues --   -0.55894  -0.55219  -0.53327  -0.53174  -0.53026
 Alpha  occ. eigenvalues --   -0.52632  -0.50514  -0.48776  -0.48762  -0.48480
 Alpha  occ. eigenvalues --   -0.47201  -0.46341  -0.46247  -0.44771  -0.44362
 Alpha  occ. eigenvalues --   -0.37302  -0.36312
 Alpha virt. eigenvalues --    0.05096   0.11246   0.16527   0.20977   0.22382
 Alpha virt. eigenvalues --    0.23838   0.25779   0.26110   0.27048   0.28343
 Alpha virt. eigenvalues --    0.28734   0.30367   0.30819   0.31226   0.31888

 Mulliken charges:
               1
     1  C   -0.298950
     2  C   -0.299406
     3  C   -0.484290
     4  H    0.148447
     5  H    0.148251
     6  H    0.154869
     7  H    0.155958
     8  H    0.153612
     9  H    0.152829
    10  H    0.163961
    11  C   -0.298784
    12  C   -0.299921
    13  C   -0.476011
    14  H    0.150911
    15  H    0.151556
    16  H    0.151516
    17  H    0.151447
    18  H    0.156278
    19  H    0.156009
    20  H    0.160981
    21  C   -0.172733
    22  C   -0.218499
    23  C   -0.171017
    24  C    0.158580
    25  C   -0.172756
    26  C   -0.222917
    27  H    0.225880
    28  H    0.223177
    29  H    0.275451
    30  H    0.275860
    31  H    0.232669
    32  N    0.488107
    33  O   -0.460419
    34  O   -0.460646
 Sum of Mulliken charges =  -0.00000

 Dipole moment (field-independent basis, Debye):
    X=              3.8315    Y=              2.8384    Z=              2.2937  Tot=              5.2913
 Quadrupole moment (field-independent basis, Debye-Ang):
   XX=           -121.6058   YY=            -90.3781   ZZ=            -95.0394
   XY=            -12.7411   XZ=             -7.4417   YZ=             -1.4128

 Normal termination of Gaussian 16 at Thu May  6 02:34:46 2021.
