 Gaussian 16, Revision A.03,
 Gaussian 16:  EM64L-G16RevA.03 25-Dec-2016

 -------------
 #p 6-31g* mp2
 -------------

 ------------------------------------------------------
 Input file generated by CHIRIPA (05-May-2021 14:55:25)
 ------------------------------------------------------
 Symbolic Z-matrix:
 Charge =  0 Multiplicity = 1

                         Standard orientation:
 ---------------------------------------------------------------------
 Center     Atomic      Atomic             Coordinates (Angstroms)
 Number     Number       Type             X           Y           Z
 ---------------------------------------------------------------------
      1          6           0       -3.048228   -2.324087    0.106836
      2          6           0       -2.153851   -1.427538   -0.487143
      3          6           0       -2.454622   -0.063844   -0.553671
      4          6           0       -3.664127    0.370799   -0.013789
      5          6           0       -4.575810   -0.497686    0.584422
      6          6           0       -4.254227   -1.857123    0.639783
      7          1           0       -2.806499   -3.381783    0.154179
      8          1           0       -1.216523   -1.787357   -0.901859
      9          1           0       -1.780396    0.652089   -1.007849
     10          1           0       -5.502450   -0.109174    0.989164
     11          1           0       -4.950717   -2.551104    1.101668
     12          7           0       -3.993556    1.812227   -0.078308
     13          8           0       -5.065663    2.169967    0.404646
     14          8           0       -3.173417    2.556984   -0.610611
     15          6           0        5.144871    0.152883    0.455653
     16          6           0        6.348255    0.703609   -0.310212
     17          6           0        7.388420    1.347523    0.606972
     18          1           0        4.678168    0.966891    1.027076
     19          1           0        5.493666   -0.585263    1.191097
     20          1           0        5.997151    1.439483   -1.044945
     21          1           0        6.812034   -0.111765   -0.880029
     22          1           0        7.766681    0.619161    1.331548
     23          1           0        6.947168    2.179223    1.165695
     24          1           0        8.240041    1.734478    0.038758
     25          6           0        4.096302   -0.493963   -0.447576
     26          6           0        2.892917   -1.044688    0.318290
     27          6           0        1.852752   -1.688602   -0.598894
     28          1           0        3.747506    0.244184   -1.183019
     29          1           0        4.563004   -1.307970   -1.018997
     30          1           0        2.429139   -0.229314    0.888107
     31          1           0        3.244021   -1.780563    1.053023
     32          1           0        2.294004   -2.520303   -1.157617
     33          1           0        1.474492   -0.960241   -1.323470
     34          1           0        1.001131   -2.075557   -0.030680
 ---------------------------------------------------------------------

 SCF Done:  E(RHF) =  -669.535465732     A.U. after   15 cycles
 E2 =    -0.2090979429D+01 EUMP2 =    -0.67162644516153D+03

 The electronic state is 1-A.
 Alpha  occ. eigenvalues --  -20.60731 -20.60726 -15.85783 -11.31135 -11.27702
 Alpha  occ. eigenvalues --  -11.27686 -11.27432 -11.26718 -11.26633 -11.22244
 Alpha  occ. eigenvalues --  -11.22068 -11.21845 -11.21833 -11.21685 -11.21240
 Alpha  occ. eigenvalues --   -1.59807  -1.39361  -1.19300  -1.08862  -1.08699
 Alpha  occ. eigenvalues --   -1.04699  -1.04014  -0.96496  -0.95538  -0.87533
 Alpha  occ. eigenvalues --   -0.86094  -0.82368  -0.80090  -0.78631  -0.77417
 Alpha  occ. eigenvalues --   -0.72002  -0.71129  -0.70414  -0.65488  -0.64950
 Alpha  occ. eigenvalues --   -0.64727  -0.62099  -0.61391  -0.59871  -0.58073
 Alpha  occ. eigenvalues --   -0.55780  -0.55204  -0.53391  -0.53030  -0.52914
 Alpha  occ. eigenvalues --   -0.52588  -0.50420  -0.48759  -0.48757  -0.48396
 Alpha  occ. eigenvalues --   -0.47090  -0.46186  -0.46079  -0.44770  -0.44252
 Alpha  occ. eigenvalues --   -0.37284  -0.36294
 Alpha virt. eigenvalues --    0.05109   0.11287   0.16576   0.20661   0.22595
 Alpha virt. eigenvalues --    0.23933   0.25891   0.26401   0.27051   0.27955
 Alpha virt. eigenvalues --    0.28928   0.30242   0.30863   0.31248   0.32039

 Mulliken charges:
               1
     1  C   -0.172594
     2  C   -0.223664
     3  C   -0.173030
     4  C    0.158713
     5  C   -0.171281
     6  C   -0.218330
     7  H    0.225445
     8  H    0.233484
     9  H    0.275026
    10  H    0.275346
    11  H    0.223095
    12  N    0.488105
    13  O   -0.460609
    14  O   -0.460731
    15  C   -0.299005
    16  C   -0.300101
    17  C   -0.476051
    18  H    0.151650
    19  H    0.149787
    20  H    0.153119
    21  H    0.151838
    22  H    0.155171
    23  H    0.156363
    24  H    0.161216
    25  C   -0.299347
    26  C   -0.299318
    27  C   -0.482143
    28  H    0.151071
    29  H    0.149961
    30  H    0.155642
    31  H    0.153842
    32  H    0.158467
    33  H    0.152988
    34  H    0.155873
 Sum of Mulliken charges =  -0.00000

 Dipole moment (field-independent basis, Debye):
    X=              1.3583    Y=             -5.0622    Z=              0.2537  Tot=              5.2474
 Quadrupole moment (field-independent basis, Debye-Ang):
   XX=            -99.5769   YY=            -98.4768   ZZ=            -94.6853
   XY=             19.3260   XZ=             -3.5572   YZ=             -0.6973

 Normal termination of Gaussian 16 at Thu May  6 16:03:18 2021.
