 Gaussian 16, Revision A.03,
 Gaussian 16:  EM64L-G16RevA.03 25-Dec-2016

 -------------
 #p 6-31g* mp2
 -------------

 ------------------------------------------------------
 Input file generated by CHIRIPA (05-May-2021 14:51:11)
 ------------------------------------------------------
 Symbolic Z-matrix:
 Charge =  0 Multiplicity = 1

                         Standard orientation:
 ---------------------------------------------------------------------
 Center     Atomic      Atomic             Coordinates (Angstroms)
 Number     Number       Type             X           Y           Z
 ---------------------------------------------------------------------
      1          6           0        3.694839   -0.611139    0.175776
      2          6           0        4.223005    0.550506   -0.666605
      3          6           0        5.684346    0.883455   -0.364246
      4          1           0        3.803060   -0.362599    1.240418
      5          1           0        4.318510   -1.497941   -0.003138
      6          1           0        3.597681    1.434475   -0.487204
      7          1           0        4.113337    0.299252   -1.729366
      8          1           0        6.325337    0.018037   -0.561182
      9          1           0        5.806750    1.159711    0.688038
     10          1           0        6.041440    1.716681   -0.977500
     11          6           0        2.235285   -0.955859   -0.115083
     12          6           0        1.707118   -2.117504    0.727299
     13          6           0        0.245777   -2.450453    0.424940
     14          1           0        1.611614   -0.069056    0.063832
     15          1           0        2.127063   -1.204399   -1.179724
     16          1           0        1.816786   -1.866249    1.790059
     17          1           0        2.332442   -3.001472    0.547897
     18          1           0        0.123373   -2.726708   -0.627344
     19          1           0       -0.395213   -1.585034    0.621876
     20          1           0       -0.111316   -3.283678    1.038193
     21          6           0       -3.174235    0.111949   -0.328171
     22          6           0       -4.622734   -0.265139   -0.015694
     23          6           0       -5.026340   -1.611165   -0.618280
     24          1           0       -3.036272    0.140224   -1.417717
     25          1           0       -2.507813   -0.675160    0.050957
     26          1           0       -5.286133    0.523115   -0.394075
     27          1           0       -4.757314   -0.292333    1.073235
     28          1           0       -4.388553   -2.412869   -0.232146
     29          1           0       -4.920376   -1.592788   -1.707791
     30          1           0       -6.065512   -1.861088   -0.382655
     31          6           0       -2.755888    1.455049    0.267477
     32          6           0       -1.307390    1.832137   -0.045000
     33          6           0       -0.903784    3.178163    0.557586
     34          1           0       -3.422309    2.242157   -0.111651
     35          1           0       -2.893852    1.426773    1.357024
     36          1           0       -1.172809    1.859330   -1.133928
     37          1           0       -0.643989    1.043882    0.333381
     38          1           0       -1.009747    3.159786    1.647098
     39          1           0       -1.541571    3.979866    0.171452
     40          1           0        0.135388    3.428085    0.321961
 ---------------------------------------------------------------------

 SCF Done:  E(RHF) =  -470.732739242     A.U. after   11 cycles
 E2 =    -0.1583996634D+01 EUMP2 =    -0.47231673587556D+03

 The electronic state is 1-A.
 Alpha  occ. eigenvalues --  -11.21622 -11.21622 -11.21603 -11.21567 -11.21400
 Alpha  occ. eigenvalues --  -11.21390 -11.21339 -11.21304 -11.21111 -11.21089
 Alpha  occ. eigenvalues --  -11.21072 -11.21029  -1.08456  -1.08406  -1.03549
 Alpha  occ. eigenvalues --   -1.03523  -0.96013  -0.95955  -0.87029  -0.86974
 Alpha  occ. eigenvalues --   -0.79635  -0.79584  -0.78360  -0.78118  -0.65218
 Alpha  occ. eigenvalues --   -0.64937  -0.61002  -0.60874  -0.59391  -0.59310
 Alpha  occ. eigenvalues --   -0.57695  -0.57510  -0.55401  -0.55157  -0.52692
 Alpha  occ. eigenvalues --   -0.52680  -0.52493  -0.52323  -0.50030  -0.49838
 Alpha  occ. eigenvalues --   -0.48036  -0.47896  -0.46851  -0.46598  -0.46053
 Alpha  occ. eigenvalues --   -0.45748  -0.45733  -0.45072  -0.43794  -0.43771
 Alpha virt. eigenvalues --    0.20703   0.22868   0.23834   0.24243   0.25525
 Alpha virt. eigenvalues --    0.26445   0.27026   0.27157   0.28564   0.29494
 Alpha virt. eigenvalues --    0.30448   0.31621   0.31681   0.31825   0.32067

 Mulliken charges:
               1
     1  C   -0.297911
     2  C   -0.299553
     3  C   -0.475721
     4  H    0.149479
     5  H    0.149555
     6  H    0.151728
     7  H    0.152022
     8  H    0.155198
     9  H    0.155192
    10  H    0.160256
    11  C   -0.304613
    12  C   -0.299204
    13  C   -0.483685
    14  H    0.155922
    15  H    0.149827
    16  H    0.151404
    17  H    0.152116
    18  H    0.156093
    19  H    0.161973
    20  H    0.160020
    21  C   -0.306165
    22  C   -0.299011
    23  C   -0.475834
    24  H    0.149557
    25  H    0.157955
    26  H    0.151682
    27  H    0.151611
    28  H    0.155873
    29  H    0.155059
    30  H    0.159987
    31  C   -0.297573
    32  C   -0.308227
    33  C   -0.475606
    34  H    0.149658
    35  H    0.149002
    36  H    0.152698
    37  H    0.158728
    38  H    0.154971
    39  H    0.155738
    40  H    0.159801
 Sum of Mulliken charges =  -0.00000

 Dipole moment (field-independent basis, Debye):
    X=              0.0026    Y=             -0.0091    Z=             -0.0144  Tot=              0.0173
 Quadrupole moment (field-independent basis, Debye-Ang):
   XX=            -86.0027   YY=            -85.1923   ZZ=            -83.6678
   XY=             -1.1166   XZ=             -0.2369   YZ=             -0.3102

 Normal termination of Gaussian 16 at Wed May  5 15:15:31 2021.
