 Gaussian 16, Revision A.03,
 Gaussian 16:  EM64L-G16RevA.03 25-Dec-2016

 -------------
 #p 6-31g* mp2
 -------------

 ------------------------------------------------------
 Input file generated by CHIRIPA (05-May-2021 14:53:16)
 ------------------------------------------------------
 Symbolic Z-matrix:
 Charge =  0 Multiplicity = 1

                         Standard orientation:
 ---------------------------------------------------------------------
 Center     Atomic      Atomic             Coordinates (Angstroms)
 Number     Number       Type             X           Y           Z
 ---------------------------------------------------------------------
      1          6           0        2.950974   -0.432047    0.576673
      2          6           0        2.945794   -1.896761    0.137845
      3          6           0        2.759353   -2.863654    1.307525
      4          1           0        3.752664   -0.279056    1.312086
      5          1           0        2.006906   -0.207639    1.092203
      6          1           0        3.889015   -2.117972   -0.377923
      7          1           0        2.144146   -2.046241   -0.596751
      8          1           0        1.810471   -2.671493    1.818698
      9          1           0        3.565254   -2.743632    2.038770
     10          1           0        2.758709   -3.905182    0.971252
     11          6           0        3.136460    0.546706   -0.581500
     12          6           0        3.141639    2.011421   -0.142671
     13          6           0        3.328081    2.978314   -1.312351
     14          1           0        4.080528    0.322298   -1.097030
     15          1           0        2.334770    0.393716   -1.316912
     16          1           0        3.943288    2.160900    0.591925
     17          1           0        2.198419    2.232631    0.373096
     18          1           0        2.522180    2.858291   -2.043596
     19          1           0        4.276963    2.786152   -1.823524
     20          1           0        3.328725    4.019841   -0.976078
     21          6           0       -2.864130    2.188489    1.070519
     22          6           0       -1.611466    1.589502    1.239545
     23          6           0       -1.330980    0.352281    0.652043
     24          6           0       -2.330897   -0.260693   -0.101427
     25          6           0       -3.588663    0.310649   -0.288194
     26          6           0       -3.846998    1.548279    0.308532
     27          1           0       -3.073416    3.149751    1.530488
     28          1           0       -0.846248    2.084396    1.830785
     29          1           0       -0.369774   -0.133884    0.766694
     30          1           0       -4.331334   -0.206935   -0.883143
     31          1           0       -4.820731    2.011107    0.175567
     32          7           0       -2.045684   -1.570701   -0.728271
     33          8           0       -2.943614   -2.090260   -1.387375
     34          8           0       -0.929605   -2.053121   -0.548619
 ---------------------------------------------------------------------

 SCF Done:  E(RHF) =  -669.535864826     A.U. after   15 cycles
 E2 =    -0.2092555489D+01 EUMP2 =    -0.67162842031533D+03

 The electronic state is 1-A.
 Alpha  occ. eigenvalues --  -20.60907 -20.60897 -15.85946 -11.31259 -11.27827
 Alpha  occ. eigenvalues --  -11.27810 -11.27563 -11.26835 -11.26824 -11.21865
 Alpha  occ. eigenvalues --  -11.21442 -11.21379 -11.21264 -11.21022 -11.20510
 Alpha  occ. eigenvalues --   -1.59970  -1.39525  -1.19431  -1.08835  -1.08391
 Alpha  occ. eigenvalues --   -1.04828  -1.03381  -0.95854  -0.95678  -0.86878
 Alpha  occ. eigenvalues --   -0.86229  -0.82513  -0.79483  -0.78181  -0.77567
 Alpha  occ. eigenvalues --   -0.72172  -0.71286  -0.70549  -0.65132  -0.65084
 Alpha  occ. eigenvalues --   -0.64759  -0.62167  -0.60750  -0.59257  -0.57449
 Alpha  occ. eigenvalues --   -0.55363  -0.55115  -0.53158  -0.52929  -0.52530
 Alpha  occ. eigenvalues --   -0.52269  -0.49816  -0.48927  -0.48919  -0.47787
 Alpha  occ. eigenvalues --   -0.46519  -0.45738  -0.45587  -0.44912  -0.43677
 Alpha  occ. eigenvalues --   -0.37410  -0.36427
 Alpha virt. eigenvalues --    0.04939   0.11211   0.16409   0.19020   0.23033
 Alpha virt. eigenvalues --    0.23878   0.25145   0.27040   0.28012   0.28151
 Alpha virt. eigenvalues --    0.29603   0.30918   0.31699   0.31934   0.32156

 Mulliken charges:
               1
     1  C   -0.298254
     2  C   -0.306514
     3  C   -0.473863
     4  H    0.149602
     5  H    0.135424
     6  H    0.149453
     7  H    0.174288
     8  H    0.155930
     9  H    0.149317
    10  H    0.164058
    11  C   -0.300373
    12  C   -0.297569
    13  C   -0.475704
    14  H    0.152230
    15  H    0.154184
    16  H    0.152423
    17  H    0.141287
    18  H    0.156521
    19  H    0.157355
    20  H    0.158459
    21  C   -0.170400
    22  C   -0.222887
    23  C   -0.180672
    24  C    0.157992
    25  C   -0.169840
    26  C   -0.219005
    27  H    0.226108
    28  H    0.224754
    29  H    0.289612
    30  H    0.275780
    31  H    0.223796
    32  N    0.489748
    33  O   -0.459138
    34  O   -0.464103
 Sum of Mulliken charges =  -0.00000

 Dipole moment (field-independent basis, Debye):
    X=             -1.0553    Y=              4.4776    Z=              2.0514  Tot=              5.0369
 Quadrupole moment (field-independent basis, Debye-Ang):
   XX=            -84.7702   YY=            -98.3081   ZZ=            -95.7909
   XY=            -10.9452   XZ=             -3.2600   YZ=             -0.2131

 Normal termination of Gaussian 16 at Thu May  6 12:14:35 2021.
