 Gaussian 16, Revision A.03,
 Gaussian 16:  EM64L-G16RevA.03 25-Dec-2016

 -------------
 #p 6-31g* mp2
 -------------

 ------------------------------------------------------
 Input file generated by CHIRIPA (05-May-2021 14:51:09)
 ------------------------------------------------------
 Symbolic Z-matrix:
 Charge =  0 Multiplicity = 1

                         Standard orientation:
 ---------------------------------------------------------------------
 Center     Atomic      Atomic             Coordinates (Angstroms)
 Number     Number       Type             X           Y           Z
 ---------------------------------------------------------------------
      1          6           0        4.165754    0.186578    0.015557
      2          6           0        4.496522   -0.999911   -0.890435
      3          6           0        5.824711   -1.666340   -0.530460
      4          1           0        4.976899    0.924867   -0.047039
      5          1           0        4.134368   -0.155565    1.059275
      6          1           0        4.525912   -0.655909   -1.932268
      7          1           0        3.684405   -1.735374   -0.825823
      8          1           0        5.803180   -2.036722    0.499567
      9          1           0        6.649468   -0.951123   -0.613164
     10          1           0        6.041485   -2.511967   -1.190599
     11          6           0        2.840936    0.863251   -0.331861
     12          6           0        2.510168    2.049740    0.574131
     13          6           0        1.181979    2.716169    0.214155
     14          1           0        2.872322    1.205394   -1.375580
     15          1           0        2.029791    0.124962   -0.269266
     16          1           0        3.322285    2.785204    0.509518
     17          1           0        2.480778    1.705738    1.615963
     18          1           0        0.357222    2.000952    0.296860
     19          1           0        1.203510    3.086551   -0.815872
     20          1           0        0.965205    3.561796    0.874294
     21          6           0       -4.216233   -0.269428    0.257898
     22          6           0       -4.992804   -0.112861   -1.049927
     23          6           0       -6.417261    0.399073   -0.833962
     24          1           0       -4.758944   -0.959001    0.918882
     25          1           0       -4.184165    0.699362    0.775407
     26          1           0       -5.022211   -1.081342   -1.565480
     27          1           0       -4.448083    0.576271   -1.707949
     28          1           0       -6.404726    1.376732   -0.341389
     29          1           0       -6.982116   -0.290300   -0.198111
     30          1           0       -6.954325    0.503620   -1.781850
     31          6           0       -2.790457   -0.780401    0.058406
     32          6           0       -2.013885   -0.936969    1.366232
     33          6           0       -0.589429   -1.448902    1.150266
     34          1           0       -2.822525   -1.749191   -0.459102
     35          1           0       -2.247746   -0.090829   -0.602577
     36          1           0       -2.558607   -1.626100    2.024253
     37          1           0       -1.984480    0.031513    1.881785
     38          1           0       -0.024574   -0.759529    0.514416
     39          1           0       -0.601964   -2.426561    0.657694
     40          1           0       -0.052365   -1.553449    2.098155
 ---------------------------------------------------------------------

 SCF Done:  E(RHF) =  -470.733233846     A.U. after   11 cycles
 E2 =    -0.1583094767D+01 EUMP2 =    -0.47231632861269D+03

 The electronic state is 1-A.
 Alpha  occ. eigenvalues --  -11.21651 -11.21604 -11.21602 -11.21566 -11.21428
 Alpha  occ. eigenvalues --  -11.21374 -11.21365 -11.21314 -11.21137 -11.21111
 Alpha  occ. eigenvalues --  -11.21071 -11.21044  -1.08459  -1.08409  -1.03570
 Alpha  occ. eigenvalues --   -1.03513  -0.96015  -0.95971  -0.87042  -0.86982
 Alpha  occ. eigenvalues --   -0.79644  -0.79566  -0.78288  -0.78205  -0.65178
 Alpha  occ. eigenvalues --   -0.64974  -0.61100  -0.60786  -0.59385  -0.59335
 Alpha  occ. eigenvalues --   -0.57632  -0.57574  -0.55323  -0.55250  -0.52710
 Alpha  occ. eigenvalues --   -0.52670  -0.52480  -0.52367  -0.50044  -0.49858
 Alpha  occ. eigenvalues --   -0.48028  -0.47851  -0.46776  -0.46540  -0.45914
 Alpha  occ. eigenvalues --   -0.45752  -0.45726  -0.45437  -0.43814  -0.43771
 Alpha virt. eigenvalues --    0.20084   0.22938   0.23724   0.25082   0.25717
 Alpha virt. eigenvalues --    0.26468   0.27190   0.27584   0.28330   0.29083
 Alpha virt. eigenvalues --    0.30613   0.31638   0.31690   0.31817   0.31979

 Mulliken charges:
               1
     1  C   -0.297612
     2  C   -0.299926
     3  C   -0.475704
     4  H    0.149428
     5  H    0.149707
     6  H    0.151720
     7  H    0.152662
     8  H    0.155227
     9  H    0.155022
    10  H    0.160170
    11  C   -0.306341
    12  C   -0.299048
    13  C   -0.478636
    14  H    0.149238
    15  H    0.157331
    16  H    0.152083
    17  H    0.152296
    18  H    0.156389
    19  H    0.155271
    20  H    0.160453
    21  C   -0.298337
    22  C   -0.299746
    23  C   -0.475742
    24  H    0.149655
    25  H    0.149823
    26  H    0.151892
    27  H    0.152257
    28  H    0.155303
    29  H    0.155128
    30  H    0.160305
    31  C   -0.299120
    32  C   -0.299568
    33  C   -0.484671
    34  H    0.149687
    35  H    0.150159
    36  H    0.152296
    37  H    0.152426
    38  H    0.162645
    39  H    0.155657
    40  H    0.160221
 Sum of Mulliken charges =  -0.00000

 Dipole moment (field-independent basis, Debye):
    X=             -0.0138    Y=             -0.0104    Z=              0.0015  Tot=              0.0173
 Quadrupole moment (field-independent basis, Debye-Ang):
   XX=            -86.4240   YY=            -83.9354   ZZ=            -84.3961
   XY=              1.5575   XZ=             -0.4593   YZ=             -0.4023

 Normal termination of Gaussian 16 at Wed May  5 21:22:31 2021.
