 Gaussian 16, Revision A.03,
 Gaussian 16:  EM64L-G16RevA.03 25-Dec-2016

 -------------
 #p 6-31g* mp2
 -------------

 ------------------------------------------------------
 Input file generated by CHIRIPA (05-May-2021 14:55:20)
 ------------------------------------------------------
 Symbolic Z-matrix:
 Charge =  0 Multiplicity = 1

                         Standard orientation:
 ---------------------------------------------------------------------
 Center     Atomic      Atomic             Coordinates (Angstroms)
 Number     Number       Type             X           Y           Z
 ---------------------------------------------------------------------
      1          6           0        1.007952    0.932141    0.665252
      2          6           0        1.156573    0.182221   -0.506095
      3          6           0        2.390846   -0.387407   -0.832657
      4          6           0        3.460146   -0.186139    0.038766
      5          6           0        3.343672    0.555880    1.213130
      6          6           0        2.100050    1.116253    1.519619
      7          1           0        0.045508    1.371047    0.911136
      8          1           0        0.310172    0.037588   -1.171476
      9          1           0        2.533787   -0.972510   -1.733013
     10          1           0        4.205714    0.682678    1.856733
     11          1           0        1.987552    1.698175    2.429980
     12          7           0        4.771764   -0.784279   -0.296326
     13          8           0        5.698362   -0.592289    0.488016
     14          8           0        4.848376   -1.433766   -1.336967
     15          6           0       -3.844437    0.774646    0.102532
     16          6           0       -3.193722    1.555517   -1.039744
     17          6           0       -2.582299    2.878739   -0.578184
     18          1           0       -4.621390    1.396772    0.567557
     19          1           0       -3.092440    0.580761    0.879901
     20          1           0       -3.946386    1.746669   -1.815356
     21          1           0       -2.418360    0.931387   -1.502228
     22          1           0       -1.811700    2.703518    0.179496
     23          1           0       -3.348409    3.523433   -0.135412
     24          1           0       -2.122608    3.420588   -1.410616
     25          6           0       -4.460140   -0.550497   -0.343155
     26          6           0       -5.110855   -1.331369    0.799122
     27          6           0       -5.722278   -2.654590    0.337561
     28          1           0       -5.212137   -0.356612   -1.120524
     29          1           0       -3.683187   -1.172624   -0.808179
     30          1           0       -5.886217   -0.707238    1.261604
     31          1           0       -4.358190   -1.522521    1.574733
     32          1           0       -4.956168   -3.299284   -0.105210
     33          1           0       -6.492876   -2.479369   -0.420118
     34          1           0       -6.181968   -3.196440    1.169993
 ---------------------------------------------------------------------

 SCF Done:  E(RHF) =  -669.535336599     A.U. after   15 cycles
 E2 =    -0.2091521571D+01 EUMP2 =    -0.67162685816997D+03

 The electronic state is 1-A.
 Alpha  occ. eigenvalues --  -20.60749 -20.60744 -15.85803 -11.31169 -11.27738
 Alpha  occ. eigenvalues --  -11.27735 -11.27464 -11.26754 -11.26744 -11.22779
 Alpha  occ. eigenvalues --  -11.22416 -11.22308 -11.22270 -11.22186 -11.21601
 Alpha  occ. eigenvalues --   -1.59825  -1.39378  -1.19341  -1.09367  -1.08735
 Alpha  occ. eigenvalues --   -1.04745  -1.04440  -0.96882  -0.95571  -0.87896
 Alpha  occ. eigenvalues --   -0.86142  -0.82407  -0.80516  -0.79140  -0.77451
 Alpha  occ. eigenvalues --   -0.72021  -0.71148  -0.70482  -0.66023  -0.64991
 Alpha  occ. eigenvalues --   -0.64745  -0.62121  -0.61814  -0.60260  -0.58479
 Alpha  occ. eigenvalues --   -0.56257  -0.55204  -0.53560  -0.53284  -0.53071
 Alpha  occ. eigenvalues --   -0.52840  -0.50827  -0.48816  -0.48782  -0.48775
 Alpha  occ. eigenvalues --   -0.47562  -0.46680  -0.46593  -0.44784  -0.44679
 Alpha  occ. eigenvalues --   -0.37317  -0.36350
 Alpha virt. eigenvalues --    0.05077   0.11300   0.16541   0.17819   0.22727
 Alpha virt. eigenvalues --    0.23841   0.24072   0.25334   0.27065   0.28104
 Alpha virt. eigenvalues --    0.28924   0.29634   0.30874   0.31609   0.31870

 Mulliken charges:
               1
     1  C   -0.176042
     2  C   -0.223515
     3  C   -0.171151
     4  C    0.158600
     5  C   -0.170760
     6  C   -0.220072
     7  H    0.233780
     8  H    0.226111
     9  H    0.275692
    10  H    0.275522
    11  H    0.223840
    12  N    0.487980
    13  O   -0.460456
    14  O   -0.460490
    15  C   -0.298620
    16  C   -0.302679
    17  C   -0.478161
    18  H    0.153634
    19  H    0.143920
    20  H    0.158479
    21  H    0.146006
    22  H    0.145517
    23  H    0.161306
    24  H    0.165660
    25  C   -0.298358
    26  C   -0.300307
    27  C   -0.476260
    28  H    0.152297
    29  H    0.148336
    30  H    0.153277
    31  H    0.152092
    32  H    0.156043
    33  H    0.156332
    34  H    0.162446
 Sum of Mulliken charges =  -0.00000

 Dipole moment (field-independent basis, Debye):
    X=             -4.8748    Y=              2.1275    Z=              1.1488  Tot=              5.4415
 Quadrupole moment (field-independent basis, Debye-Ang):
   XX=           -124.8705   YY=            -95.9094   ZZ=            -91.3588
   XY=              8.0360   XZ=              6.0330   YZ=              1.3705

 Normal termination of Gaussian 16 at Thu May  6 01:21:46 2021.
