 Gaussian 16, Revision A.03,
 Gaussian 16:  EM64L-G16RevA.03 25-Dec-2016

 -------------
 #p 6-31g* mp2
 -------------

 ------------------------------------------------------
 Input file generated by CHIRIPA (05-May-2021 14:51:10)
 ------------------------------------------------------
 Symbolic Z-matrix:
 Charge =  0 Multiplicity = 1

                         Standard orientation:
 ---------------------------------------------------------------------
 Center     Atomic      Atomic             Coordinates (Angstroms)
 Number     Number       Type             X           Y           Z
 ---------------------------------------------------------------------
      1          6           0        3.739906    0.893013    0.214567
      2          6           0        3.140226    2.216596   -0.261348
      3          6           0        3.738474    3.427967    0.454524
      4          1           0        3.583083    0.795086    1.297509
      5          1           0        4.827140    0.913301    0.056755
      6          1           0        2.054269    2.193277   -0.103962
      7          1           0        3.298326    2.311295   -1.343315
      8          1           0        4.819252    3.479165    0.287494
      9          1           0        3.568128    3.360476    1.533889
     10          1           0        3.295548    4.363534    0.099007
     11          6           0        3.151931   -0.327236   -0.491837
     12          6           0        3.751611   -1.650820   -0.015922
     13          6           0        3.153363   -2.862191   -0.731794
     14          1           0        2.064697   -0.347525   -0.334025
     15          1           0        3.308754   -0.229309   -1.574779
     16          1           0        3.593512   -1.745519    1.066045
     17          1           0        4.837568   -1.627500   -0.173308
     18          1           0        3.323710   -2.794699   -1.811158
     19          1           0        2.072585   -2.913388   -0.564764
     20          1           0        3.596289   -3.797757   -0.376277
     21          6           0       -3.854470    0.154439   -0.335982
     22          6           0       -5.216925    0.555463    0.230482
     23          6           0       -6.022485    1.430196   -0.730615
     24          1           0       -3.282640    1.061443   -0.575355
     25          1           0       -4.002529   -0.381015   -1.284013
     26          1           0       -5.066407    1.088791    1.177858
     27          1           0       -5.785504   -0.352601    0.468713
     28          1           0       -6.201949    0.902784   -1.673075
     29          1           0       -5.478765    2.352365   -0.959901
     30          1           0       -6.992856    1.705226   -0.305647
     31          6           0       -3.037367   -0.720216    0.613253
     32          6           0       -1.674912   -1.121240    0.046787
     33          6           0       -0.869351   -1.995972    1.007885
     34          1           0       -2.889308   -0.184761    1.561282
     35          1           0       -3.609197   -1.627220    0.852625
     36          1           0       -1.106333   -0.213176   -0.191444
     37          1           0       -1.825430   -1.654568   -0.900588
     38          1           0       -1.413072   -2.918143    1.237171
     39          1           0       -0.689888   -1.468560    1.950345
     40          1           0        0.101020   -2.271003    0.582917
 ---------------------------------------------------------------------

 SCF Done:  E(RHF) =  -470.733291748     A.U. after   11 cycles
 E2 =    -0.1582931582D+01 EUMP2 =    -0.47231622333018D+03

 The electronic state is 1-A.
 Alpha  occ. eigenvalues --  -11.21657 -11.21620 -11.21613 -11.21598 -11.21437
 Alpha  occ. eigenvalues --  -11.21401 -11.21376 -11.21341 -11.21128 -11.21084
 Alpha  occ. eigenvalues --  -11.21082 -11.21072  -1.08467  -1.08429  -1.03579
 Alpha  occ. eigenvalues --   -1.03526  -0.96028  -0.95977  -0.87050  -0.86989
 Alpha  occ. eigenvalues --   -0.79640  -0.79586  -0.78280  -0.78237  -0.65121
 Alpha  occ. eigenvalues --   -0.65048  -0.60998  -0.60954  -0.59451  -0.59280
 Alpha  occ. eigenvalues --   -0.57675  -0.57549  -0.55332  -0.55256  -0.52756
 Alpha  occ. eigenvalues --   -0.52677  -0.52477  -0.52347  -0.49964  -0.49915
 Alpha  occ. eigenvalues --   -0.48009  -0.47848  -0.46667  -0.46615  -0.45837
 Alpha  occ. eigenvalues --   -0.45784  -0.45755  -0.45652  -0.43806  -0.43776
 Alpha virt. eigenvalues --    0.20232   0.23107   0.23543   0.24623   0.26029
 Alpha virt. eigenvalues --    0.26660   0.27066   0.27318   0.27932   0.29095
 Alpha virt. eigenvalues --    0.30135   0.31426   0.31676   0.31789   0.32086

 Mulliken charges:
               1
     1  C   -0.298186
     2  C   -0.299531
     3  C   -0.475711
     4  H    0.149757
     5  H    0.149592
     6  H    0.151339
     7  H    0.152054
     8  H    0.155297
     9  H    0.155148
    10  H    0.160185
    11  C   -0.302119
    12  C   -0.299314
    13  C   -0.481931
    14  H    0.153087
    15  H    0.149639
    16  H    0.152351
    17  H    0.152070
    18  H    0.155473
    19  H    0.160032
    20  H    0.160659
    21  C   -0.298304
    22  C   -0.299688
    23  C   -0.475732
    24  H    0.149712
    25  H    0.149717
    26  H    0.151923
    27  H    0.151998
    28  H    0.155255
    29  H    0.155231
    30  H    0.160315
    31  C   -0.298482
    32  C   -0.300259
    33  C   -0.484710
    34  H    0.149502
    35  H    0.149922
    36  H    0.152358
    37  H    0.152527
    38  H    0.155872
    39  H    0.155150
    40  H    0.167803
 Sum of Mulliken charges =  -0.00000

 Dipole moment (field-independent basis, Debye):
    X=             -0.0098    Y=             -0.0067    Z=             -0.0030  Tot=              0.0123
 Quadrupole moment (field-independent basis, Debye-Ang):
   XX=            -84.6364   YY=            -85.4194   ZZ=            -84.6195
   XY=              0.5444   XZ=             -0.8913   YZ=              0.2561

 Normal termination of Gaussian 16 at Wed May  5 16:42:43 2021.
