 Gaussian 16, Revision A.03,
 Gaussian 16:  EM64L-G16RevA.03 25-Dec-2016

 -------------
 #p 6-31g* mp2
 -------------

 ------------------------------------------------------
 Input file generated by CHIRIPA (05-May-2021 14:53:13)
 ------------------------------------------------------
 Symbolic Z-matrix:
 Charge =  0 Multiplicity = 1

                         Standard orientation:
 ---------------------------------------------------------------------
 Center     Atomic      Atomic             Coordinates (Angstroms)
 Number     Number       Type             X           Y           Z
 ---------------------------------------------------------------------
      1          6           0        5.672000   -0.162132   -0.435414
      2          6           0        7.111074    0.057201    0.032503
      3          6           0        8.122143   -0.013149   -1.112304
      4          1           0        5.599339   -1.139855   -0.931119
      5          1           0        5.421456    0.592304   -1.193997
      6          1           0        7.358371   -0.696568    0.790983
      7          1           0        7.180275    1.034433    0.527321
      8          1           0        7.903281    0.749212   -1.866961
      9          1           0        8.082390   -0.991624   -1.601801
     10          1           0        9.144424    0.146387   -0.755441
     11          6           0        4.649611   -0.094732    0.697681
     12          6           0        3.210538   -0.314065    0.229765
     13          6           0        2.199468   -0.243715    1.374572
     14          1           0        4.900155   -0.849168    1.456265
     15          1           0        4.722272    0.882991    1.193386
     16          1           0        3.141337   -1.291296   -0.265053
     17          1           0        2.963241    0.439704   -0.528716
     18          1           0        2.239222    0.734760    1.864068
     19          1           0        2.418330   -1.006076    2.129228
     20          1           0        1.177188   -0.403250    1.017709
     21          6           0       -6.364893   -0.842436   -0.287247
     22          6           0       -5.266439   -1.704155   -0.201463
     23          6           0       -3.969280   -1.192910   -0.098726
     24          6           0       -3.806332    0.191481   -0.084582
     25          6           0       -4.880593    1.075915   -0.168439
     26          6           0       -6.168810    0.542408   -0.270491
     27          1           0       -7.369084   -1.248230   -0.366791
     28          1           0       -5.415722   -2.780072   -0.214240
     29          1           0       -3.101108   -1.837187   -0.030891
     30          1           0       -4.700190    2.143923   -0.153216
     31          1           0       -7.020019    1.214024   -0.336964
     32          7           0       -2.437821    0.744498    0.023818
     33          8           0       -2.320935    1.967963    0.034180
     34          8           0       -1.507982   -0.055984    0.096368
 ---------------------------------------------------------------------

 SCF Done:  E(RHF) =  -669.536227378     A.U. after   15 cycles
 E2 =    -0.2090661202D+01 EUMP2 =    -0.67162688857945D+03

 The electronic state is 1-A.
 Alpha  occ. eigenvalues --  -20.60959 -20.60950 -15.85995 -11.31302 -11.27864
 Alpha  occ. eigenvalues --  -11.27860 -11.27600 -11.26869 -11.26860 -11.20988
 Alpha  occ. eigenvalues --  -11.20623 -11.20563 -11.20434 -11.20350 -11.19424
 Alpha  occ. eigenvalues --   -1.60016  -1.39573  -1.19469  -1.08875  -1.07546
 Alpha  occ. eigenvalues --   -1.04864  -1.02559  -0.95721  -0.94992  -0.86265
 Alpha  occ. eigenvalues --   -0.86013  -0.82555  -0.78664  -0.77607  -0.77328
 Alpha  occ. eigenvalues --   -0.72221  -0.71329  -0.70578  -0.65126  -0.64867
 Alpha  occ. eigenvalues --   -0.64189  -0.62211  -0.59971  -0.58401  -0.56570
 Alpha  occ. eigenvalues --   -0.55368  -0.54307  -0.53196  -0.52957  -0.51641
 Alpha  occ. eigenvalues --   -0.51428  -0.48998  -0.48962  -0.48925  -0.46944
 Alpha  occ. eigenvalues --   -0.45730  -0.44989  -0.44867  -0.44788  -0.42775
 Alpha  occ. eigenvalues --   -0.37448  -0.36465
 Alpha virt. eigenvalues --    0.04922   0.11191   0.16421   0.21319   0.23685
 Alpha virt. eigenvalues --    0.25347   0.27244   0.27480   0.28150   0.28342
 Alpha virt. eigenvalues --    0.29073   0.30879   0.32308   0.32362   0.32581

 Mulliken charges:
               1
     1  C   -0.297484
     2  C   -0.298927
     3  C   -0.475206
     4  H    0.147748
     5  H    0.149313
     6  H    0.150546
     7  H    0.151427
     8  H    0.154784
     9  H    0.154069
    10  H    0.158344
    11  C   -0.297328
    12  C   -0.298249
    13  C   -0.486667
    14  H    0.146420
    15  H    0.148705
    16  H    0.147363
    17  H    0.154363
    18  H    0.152624
    19  H    0.145007
    20  H    0.189035
    21  C   -0.170563
    22  C   -0.218544
    23  C   -0.170706
    24  C    0.157467
    25  C   -0.170400
    26  C   -0.218613
    27  H    0.226019
    28  H    0.223868
    29  H    0.275758
    30  H    0.275904
    31  H    0.223838
    32  N    0.492844
    33  O   -0.458671
    34  O   -0.464091
 Sum of Mulliken charges =  -0.00000

 Dipole moment (field-independent basis, Debye):
    X=             -5.2187    Y=             -1.8996    Z=             -0.4248  Tot=              5.5699
 Quadrupole moment (field-independent basis, Debye-Ang):
   XX=            -59.9055   YY=            -90.2656   ZZ=            -96.3621
   XY=              4.7223   XZ=              2.4515   YZ=             -0.1811

 Normal termination of Gaussian 16 at Wed May  5 20:10:44 2021.
