 Gaussian 16, Revision A.03,
 Gaussian 16:  EM64L-G16RevA.03 25-Dec-2016

 -------------
 #p 6-31g* mp2
 -------------

 ------------------------------------------------------
 Input file generated by CHIRIPA (05-May-2021 14:53:12)
 ------------------------------------------------------
 Symbolic Z-matrix:
 Charge =  0 Multiplicity = 1

                         Standard orientation:
 ---------------------------------------------------------------------
 Center     Atomic      Atomic             Coordinates (Angstroms)
 Number     Number       Type             X           Y           Z
 ---------------------------------------------------------------------
      1          6           0        3.206140   -0.074215   -0.476094
      2          6           0        3.734321    0.282171    0.913870
      3          6           0        4.952789    1.204511    0.864673
      4          1           0        4.007828   -0.553935   -1.054117
      5          1           0        2.946045    0.850271   -1.010014
      6          1           0        3.992044   -0.642785    1.445520
      7          1           0        2.931226    0.760924    1.488717
      8          1           0        4.705456    2.142827    0.357731
      9          1           0        5.772301    0.731142    0.314289
     10          1           0        5.313925    1.446521    1.869099
     11          6           0        1.988136   -0.995697   -0.443421
     12          6           0        1.459955   -1.352083   -1.833384
     13          6           0        0.241488   -2.274423   -1.784188
     14          1           0        2.248232   -1.920183    0.090499
     15          1           0        1.186449   -0.515977    0.134602
     16          1           0        2.263050   -1.830837   -2.408232
     17          1           0        1.202232   -0.427127   -2.365035
     18          1           0       -0.578025   -1.801054   -1.233804
     19          1           0        0.488820   -3.212739   -1.277246
     20          1           0       -0.119648   -2.516433   -2.788614
     21          6           0       -2.182741   -1.689076    1.738605
     22          6           0       -1.241826   -0.706536    2.063895
     23          6           0       -1.147747    0.464871    1.306595
     24          6           0       -2.014152    0.621632    0.225828
     25          6           0       -2.962080   -0.338964   -0.123426
     26          6           0       -3.038356   -1.502483    0.647905
     27          1           0       -2.248909   -2.595989    2.332344
     28          1           0       -0.576054   -0.848750    2.910400
     29          1           0       -0.428561    1.241698    1.536224
     30          1           0       -3.612174   -0.168793   -0.973037
     31          1           0       -3.770052   -2.263842    0.392954
     32          7           0       -1.923979    1.857574   -0.583319
     33          8           0       -2.698748    1.971699   -1.530601
     34          8           0       -1.080239    2.688775   -0.254924
 ---------------------------------------------------------------------

 SCF Done:  E(RHF) =  -669.534427292     A.U. after   15 cycles
 E2 =    -0.2095316241D+01 EUMP2 =    -0.67162974353314D+03

 The electronic state is 1-A.
 Alpha  occ. eigenvalues --  -20.60883 -20.60877 -15.85939 -11.31320 -11.27888
 Alpha  occ. eigenvalues --  -11.27883 -11.27616 -11.26901 -11.26889 -11.21716
 Alpha  occ. eigenvalues --  -11.21490 -11.21317 -11.21257 -11.21062 -11.20960
 Alpha  occ. eigenvalues --   -1.59960  -1.39512  -1.19521  -1.08885  -1.08395
 Alpha  occ. eigenvalues --   -1.04921  -1.03503  -0.95941  -0.95722  -0.86965
 Alpha  occ. eigenvalues --   -0.86298  -0.82550  -0.79582  -0.78235  -0.77591
 Alpha  occ. eigenvalues --   -0.72153  -0.71292  -0.70599  -0.65158  -0.65067
 Alpha  occ. eigenvalues --   -0.64866  -0.62249  -0.60935  -0.59323  -0.57571
 Alpha  occ. eigenvalues --   -0.55392  -0.55268  -0.53354  -0.52983  -0.52648
 Alpha  occ. eigenvalues --   -0.52355  -0.49899  -0.48915  -0.48908  -0.47853
 Alpha  occ. eigenvalues --   -0.46579  -0.45718  -0.45637  -0.44904  -0.43748
 Alpha  occ. eigenvalues --   -0.37479  -0.36403
 Alpha virt. eigenvalues --    0.04909   0.11079   0.16380   0.20703   0.22891
 Alpha virt. eigenvalues --    0.24142   0.25689   0.26997   0.27801   0.27989
 Alpha virt. eigenvalues --    0.29265   0.30900   0.31269   0.31787   0.31954

 Mulliken charges:
               1
     1  C   -0.299162
     2  C   -0.297943
     3  C   -0.476022
     4  H    0.149436
     5  H    0.156488
     6  H    0.149158
     7  H    0.145226
     8  H    0.159394
     9  H    0.155614
    10  H    0.158932
    11  C   -0.303976
    12  C   -0.300322
    13  C   -0.482281
    14  H    0.144454
    15  H    0.152987
    16  H    0.151484
    17  H    0.156576
    18  H    0.161929
    19  H    0.150104
    20  H    0.159355
    21  C   -0.169966
    22  C   -0.213817
    23  C   -0.177120
    24  C    0.162956
    25  C   -0.174848
    26  C   -0.216400
    27  H    0.226658
    28  H    0.225273
    29  H    0.277023
    30  H    0.276512
    31  H    0.224773
    32  N    0.488154
    33  O   -0.459745
    34  O   -0.460883
 Sum of Mulliken charges =  -0.00000

 Dipole moment (field-independent basis, Debye):
    X=             -0.4490    Y=             -4.2714    Z=              2.8647  Tot=              5.1626
 Quadrupole moment (field-independent basis, Debye-Ang):
   XX=            -91.2845   YY=           -100.2343   ZZ=            -92.2356
   XY=              9.3896   XZ=             -3.7535   YZ=              1.5122

 Normal termination of Gaussian 16 at Thu May  6 04:06:49 2021.
