 Gaussian 16, Revision A.03,
 Gaussian 16:  EM64L-G16RevA.03 25-Dec-2016

 -------------
 #p 6-31g* mp2
 -------------

 ------------------------------------------------------
 Input file generated by CHIRIPA (05-May-2021 14:53:17)
 ------------------------------------------------------
 Symbolic Z-matrix:
 Charge =  0 Multiplicity = 1

                         Standard orientation:
 ---------------------------------------------------------------------
 Center     Atomic      Atomic             Coordinates (Angstroms)
 Number     Number       Type             X           Y           Z
 ---------------------------------------------------------------------
      1          6           0       -3.433418   -0.716685   -0.180925
      2          6           0       -4.429421   -1.600053    0.571155
      3          6           0       -3.959778   -3.050114    0.691788
      4          1           0       -3.266827   -1.134246   -1.183340
      5          1           0       -2.464015   -0.747350    0.335518
      6          1           0       -5.397039   -1.566635    0.054226
      7          1           0       -4.593806   -1.180234    1.571827
      8          1           0       -3.006070   -3.102923    1.226814
      9          1           0       -3.813866   -3.491520   -0.299409
     10          1           0       -4.686729   -3.663865    1.232816
     11          6           0       -3.888853    0.735805   -0.309697
     12          6           0       -2.892851    1.619173   -1.061776
     13          6           0       -3.362494    3.069234   -1.182410
     14          1           0       -4.858256    0.766470   -0.826139
     15          1           0       -4.055444    1.153366    0.692718
     16          1           0       -2.728465    1.199354   -2.062448
     17          1           0       -1.925233    1.585755   -0.544848
     18          1           0       -3.508406    3.510640   -0.191213
     19          1           0       -4.316202    3.122043   -1.717436
     20          1           0       -2.635542    3.682985   -1.723438
     21          6           0        1.277005    1.189506    1.749361
     22          6           0        0.811094    0.144016    0.945372
     23          6           0        1.679384   -0.526278    0.078582
     24          6           0        3.013326   -0.123188    0.041055
     25          6           0        3.507658    0.914665    0.829590
     26          6           0        2.621429    1.570822    1.689011
     27          1           0        0.595528    1.704717    2.419842
     28          1           0       -0.232491   -0.154261    0.990150
     29          1           0        1.345283   -1.339011   -0.554868
     30          1           0        4.553357    1.189415    0.762926
     31          1           0        2.986047    2.382412    2.312244
     32          7           0        3.942041   -0.825316   -0.872676
     33          8           0        5.112685   -0.451122   -0.887140
     34          8           0        3.481739   -1.736543   -1.557091
 ---------------------------------------------------------------------

 SCF Done:  E(RHF) =  -669.535499094     A.U. after   15 cycles
 E2 =    -0.2091719376D+01 EUMP2 =    -0.67162721847023D+03

 The electronic state is 1-A.
 Alpha  occ. eigenvalues --  -20.60752 -20.60747 -15.85806 -11.31178 -11.27756
 Alpha  occ. eigenvalues --  -11.27745 -11.27507 -11.26768 -11.26746 -11.22334
 Alpha  occ. eigenvalues --  -11.22288 -11.22273 -11.22123 -11.21670 -11.21649
 Alpha  occ. eigenvalues --   -1.59828  -1.39381  -1.19356  -1.09201  -1.08750
 Alpha  occ. eigenvalues --   -1.04759  -1.04204  -0.96658  -0.95583  -0.87667
 Alpha  occ. eigenvalues --   -0.86161  -0.82416  -0.80268  -0.79040  -0.77455
 Alpha  occ. eigenvalues --   -0.72025  -0.71151  -0.70465  -0.65907  -0.65008
 Alpha  occ. eigenvalues --   -0.64726  -0.62107  -0.61603  -0.60018  -0.58266
 Alpha  occ. eigenvalues --   -0.55961  -0.55264  -0.53317  -0.53108  -0.53073
 Alpha  occ. eigenvalues --   -0.52842  -0.50602  -0.48789  -0.48778  -0.48580
 Alpha  occ. eigenvalues --   -0.47317  -0.46534  -0.46480  -0.44785  -0.44490
 Alpha  occ. eigenvalues --   -0.37336  -0.36352
 Alpha virt. eigenvalues --    0.05079   0.11184   0.16541   0.19200   0.22812
 Alpha virt. eigenvalues --    0.23604   0.24639   0.26382   0.27304   0.28225
 Alpha virt. eigenvalues --    0.29370   0.30529   0.31160   0.31389   0.31700

 Mulliken charges:
               1
     1  C   -0.303651
     2  C   -0.299569
     3  C   -0.476082
     4  H    0.154502
     5  H    0.140838
     6  H    0.155569
     7  H    0.151638
     8  H    0.152489
     9  H    0.157942
    10  H    0.163313
    11  C   -0.298662
    12  C   -0.302265
    13  C   -0.475953
    14  H    0.153681
    15  H    0.147991
    16  H    0.155778
    17  H    0.147707
    18  H    0.153519
    19  H    0.157620
    20  H    0.163004
    21  C   -0.173702
    22  C   -0.225588
    23  C   -0.174033
    24  C    0.158614
    25  C   -0.170851
    26  C   -0.218490
    27  H    0.226074
    28  H    0.235881
    29  H    0.276354
    30  H    0.275640
    31  H    0.223387
    32  N    0.488144
    33  O   -0.460605
    34  O   -0.460231
 Sum of Mulliken charges =  -0.00000

 Dipole moment (field-independent basis, Debye):
    X=             -3.4328    Y=              2.4607    Z=              3.1368  Tot=              5.2610
 Quadrupole moment (field-independent basis, Debye-Ang):
   XX=           -110.9955   YY=            -94.9891   ZZ=            -93.8573
   XY=             10.9507   XZ=             11.6159   YZ=              1.1488

 Normal termination of Gaussian 16 at Thu May  6 06:00:29 2021.
