 Gaussian 16, Revision A.03,
 Gaussian 16:  EM64L-G16RevA.03 25-Dec-2016

 -------------
 #p 6-31g* mp2
 -------------

 ------------------------------------------------------
 Input file generated by CHIRIPA (05-May-2021 14:51:11)
 ------------------------------------------------------
 Symbolic Z-matrix:
 Charge =  0 Multiplicity = 1

                         Standard orientation:
 ---------------------------------------------------------------------
 Center     Atomic      Atomic             Coordinates (Angstroms)
 Number     Number       Type             X           Y           Z
 ---------------------------------------------------------------------
      1          6           0       -3.930515   -0.147370    0.146143
      2          6           0       -4.307362   -0.875124   -1.144727
      3          6           0       -5.721517   -0.541018   -1.620473
      4          1           0       -4.653979   -0.407622    0.930881
      5          1           0       -4.018373    0.936296   -0.013053
      6          1           0       -4.217486   -1.957049   -0.983559
      7          1           0       -3.582806   -0.613259   -1.926431
      8          1           0       -5.820942    0.532865   -1.808865
      9          1           0       -6.459228   -0.818561   -0.860636
     10          1           0       -5.970135   -1.072033   -2.544633
     11          6           0       -2.519660   -0.471144    0.634392
     12          6           0       -2.142813    0.256610    1.925262
     13          6           0       -0.728659   -0.077497    2.401008
     14          1           0       -2.431803   -1.554811    0.793588
     15          1           0       -1.796196   -0.210892   -0.150346
     16          1           0       -2.867370   -0.005255    2.706966
     17          1           0       -2.232689    1.338535    1.764094
     18          1           0        0.009053    0.200046    1.641171
     19          1           0       -0.629233   -1.151379    2.589400
     20          1           0       -0.480041    0.453518    3.325168
     21          6           0        3.916635   -0.006186   -0.465706
     22          6           0        3.937600   -1.503011   -0.154160
     23          6           0        5.328026   -2.119750   -0.309526
     24          1           0        4.277711    0.153574   -1.490911
     25          1           0        4.623818    0.509468    0.198666
     26          1           0        3.229570   -2.015503   -0.817981
     27          1           0        3.576251   -1.659240    0.870358
     28          1           0        6.041980   -1.634920    0.364129
     29          1           0        5.693328   -1.993208   -1.333803
     30          1           0        5.320077   -3.190277   -0.081998
     31          6           0        2.533540    0.624700   -0.314829
     32          6           0        2.512576    2.121524   -0.626376
     33          6           0        1.122149    2.738265   -0.471008
     34          1           0        1.826359    0.109047   -0.979201
     35          1           0        2.172466    0.464941    0.710377
     36          1           0        2.873925    2.277755   -1.650892
     37          1           0        3.220606    2.634018    0.037446
     38          1           0        0.756847    2.611722    0.553269
     39          1           0        0.408197    2.253434   -1.144664
     40          1           0        1.130098    3.808792   -0.698537
 ---------------------------------------------------------------------

 SCF Done:  E(RHF) =  -470.733141804     A.U. after   11 cycles
 E2 =    -0.1583315454D+01 EUMP2 =    -0.47231645725737D+03

 The electronic state is 1-A.
 Alpha  occ. eigenvalues --  -11.21646 -11.21594 -11.21583 -11.21551 -11.21424
 Alpha  occ. eigenvalues --  -11.21367 -11.21364 -11.21306 -11.21138 -11.21066
 Alpha  occ. eigenvalues --  -11.21055 -11.20981  -1.08462  -1.08388  -1.03565
 Alpha  occ. eigenvalues --   -1.03484  -0.96008  -0.95945  -0.87030  -0.86961
 Alpha  occ. eigenvalues --   -0.79651  -0.79536  -0.78313  -0.78166  -0.65120
 Alpha  occ. eigenvalues --   -0.64999  -0.61028  -0.60831  -0.59386  -0.59301
 Alpha  occ. eigenvalues --   -0.57638  -0.57537  -0.55299  -0.55241  -0.52705
 Alpha  occ. eigenvalues --   -0.52641  -0.52488  -0.52327  -0.49961  -0.49920
 Alpha  occ. eigenvalues --   -0.48053  -0.47798  -0.46728  -0.46565  -0.45931
 Alpha  occ. eigenvalues --   -0.45736  -0.45684  -0.45396  -0.43809  -0.43750
 Alpha virt. eigenvalues --    0.20817   0.23090   0.23594   0.24990   0.25603
 Alpha virt. eigenvalues --    0.26228   0.26948   0.27835   0.28326   0.29307
 Alpha virt. eigenvalues --    0.30772   0.31200   0.31529   0.31811   0.31990

 Mulliken charges:
               1
     1  C   -0.298383
     2  C   -0.299549
     3  C   -0.475687
     4  H    0.149553
     5  H    0.149755
     6  H    0.151849
     7  H    0.151606
     8  H    0.155222
     9  H    0.155175
    10  H    0.160114
    11  C   -0.298821
    12  C   -0.299128
    13  C   -0.485694
    14  H    0.149322
    15  H    0.150290
    16  H    0.151581
    17  H    0.152299
    18  H    0.165578
    19  H    0.154818
    20  H    0.158917
    21  C   -0.297574
    22  C   -0.299869
    23  C   -0.475740
    24  H    0.149631
    25  H    0.149590
    26  H    0.152010
    27  H    0.152583
    28  H    0.155184
    29  H    0.155096
    30  H    0.160327
    31  C   -0.304820
    32  C   -0.299356
    33  C   -0.479174
    34  H    0.149166
    35  H    0.156218
    36  H    0.152116
    37  H    0.152166
    38  H    0.158205
    39  H    0.154682
    40  H    0.160741
 Sum of Mulliken charges =  -0.00000

 Dipole moment (field-independent basis, Debye):
    X=              0.0379    Y=              0.0098    Z=             -0.0068  Tot=              0.0397
 Quadrupole moment (field-independent basis, Debye-Ang):
   XX=            -86.5025   YY=            -84.4756   ZZ=            -83.8384
   XY=              1.0391   XZ=             -0.3593   YZ=             -0.1946

 Normal termination of Gaussian 16 at Wed May  5 16:46:27 2021.
