 Gaussian 16, Revision A.03,
 Gaussian 16:  EM64L-G16RevA.03 25-Dec-2016

 -------------
 #p 6-31g* mp2
 -------------

 ------------------------------------------------------
 Input file generated by CHIRIPA (05-May-2021 14:55:25)
 ------------------------------------------------------
 Symbolic Z-matrix:
 Charge =  0 Multiplicity = 1

                         Standard orientation:
 ---------------------------------------------------------------------
 Center     Atomic      Atomic             Coordinates (Angstroms)
 Number     Number       Type             X           Y           Z
 ---------------------------------------------------------------------
      1          6           0       -1.774941    2.583232    0.293175
      2          6           0       -2.294637    1.761055    1.298393
      3          6           0       -2.748053    0.473031    0.998467
      4          6           0       -2.666599    0.037396   -0.323228
      5          6           0       -2.153978    0.832816   -1.346857
      6          6           0       -1.706391    2.117310   -1.023920
      7          1           0       -1.424981    3.582429    0.535103
      8          1           0       -2.349090    2.120254    2.322139
      9          1           0       -3.154941   -0.184414    1.757167
     10          1           0       -2.112518    0.446901   -2.358177
     11          1           0       -1.303267    2.753628   -1.806629
     12          7           0       -3.143525   -1.324309   -0.652926
     13          8           0       -3.060939   -1.684593   -1.825109
     14          8           0       -3.590894   -2.005546    0.267081
     15          6           0        2.920900   -0.580529    0.952253
     16          6           0        1.406416   -0.441045    0.794561
     17          6           0        0.636461   -0.936170    2.019231
     18          1           0        3.167981   -1.634194    1.141161
     19          1           0        3.243235   -0.019783    1.840544
     20          1           0        1.087221   -1.000748   -0.093957
     21          1           0        1.162928    0.612381    0.605817
     22          1           0        0.926379   -0.371026    2.910949
     23          1           0        0.850242   -1.993321    2.207199
     24          1           0       -0.444272   -0.827235    1.885035
     25          6           0        3.704369   -0.089734   -0.263897
     26          6           0        5.218853   -0.229218   -0.106204
     27          6           0        5.988808    0.265906   -1.330874
     28          1           0        3.382035   -0.650479   -1.152188
     29          1           0        3.457288    0.963931   -0.452804
     30          1           0        5.462341   -1.282644    0.082539
     31          1           0        5.538048    0.330485    0.782313
     32          1           0        5.775027    1.323057   -1.518842
     33          1           0        5.698890   -0.299238   -2.222592
     34          1           0        7.069541    0.156972   -1.196679
 ---------------------------------------------------------------------

 SCF Done:  E(RHF) =  -669.534954300     A.U. after   15 cycles
 E2 =    -0.2093445452D+01 EUMP2 =    -0.67162839975270D+03

 The electronic state is 1-A.
 Alpha  occ. eigenvalues --  -20.60820 -20.60813 -15.85872 -11.31255 -11.27826
 Alpha  occ. eigenvalues --  -11.27813 -11.27587 -11.26850 -11.26840 -11.21712
 Alpha  occ. eigenvalues --  -11.21599 -11.21507 -11.21421 -11.21198 -11.20997
 Alpha  occ. eigenvalues --   -1.59893  -1.39446  -1.19442  -1.08828  -1.08504
 Alpha  occ. eigenvalues --   -1.04850  -1.03585  -0.96047  -0.95657  -0.87065
 Alpha  occ. eigenvalues --   -0.86241  -0.82488  -0.79653  -0.78321  -0.77531
 Alpha  occ. eigenvalues --   -0.72090  -0.71221  -0.70552  -0.65138  -0.65091
 Alpha  occ. eigenvalues --   -0.64842  -0.62194  -0.60986  -0.59469  -0.57720
 Alpha  occ. eigenvalues --   -0.55347  -0.55334  -0.53387  -0.52936  -0.52583
 Alpha  occ. eigenvalues --   -0.52289  -0.49985  -0.48851  -0.48844  -0.47987
 Alpha  occ. eigenvalues --   -0.46688  -0.45861  -0.45791  -0.44848  -0.43866
 Alpha  occ. eigenvalues --   -0.37395  -0.36354
 Alpha virt. eigenvalues --    0.04987   0.11132   0.16476   0.21296   0.22772
 Alpha virt. eigenvalues --    0.24196   0.26541   0.26998   0.27319   0.27931
 Alpha virt. eigenvalues --    0.28347   0.30619   0.31328   0.31627   0.31756

 Mulliken charges:
               1
     1  C   -0.171512
     2  C   -0.214115
     3  C   -0.177738
     4  C    0.163285
     5  C   -0.170218
     6  C   -0.217438
     7  H    0.225971
     8  H    0.224338
     9  H    0.276526
    10  H    0.275945
    11  H    0.223945
    12  N    0.488072
    13  O   -0.460290
    14  O   -0.460455
    15  C   -0.298331
    16  C   -0.300327
    17  C   -0.479188
    18  H    0.151602
    19  H    0.147573
    20  H    0.153661
    21  H    0.149495
    22  H    0.149843
    23  H    0.158104
    24  H    0.162864
    25  C   -0.297810
    26  C   -0.299620
    27  C   -0.475653
    28  H    0.150866
    29  H    0.145950
    30  H    0.153397
    31  H    0.151168
    32  H    0.153459
    33  H    0.155932
    34  H    0.160698
 Sum of Mulliken charges =  -0.00000

 Dipole moment (field-independent basis, Debye):
    X=              1.5930    Y=              4.8021    Z=              1.1152  Tot=              5.1808
 Quadrupole moment (field-independent basis, Debye-Ang):
   XX=           -104.7584   YY=            -94.0154   ZZ=            -91.5667
   XY=            -12.9986   XZ=             -4.5359   YZ=             -1.6481

 Normal termination of Gaussian 16 at Wed May  5 17:40:06 2021.
