 Gaussian 16, Revision A.03,
 Gaussian 16:  EM64L-G16RevA.03 25-Dec-2016

 -------------
 #p 6-31g* mp2
 -------------

 ------------------------------------------------------
 Input file generated by CHIRIPA (05-May-2021 14:51:13)
 ------------------------------------------------------
 Symbolic Z-matrix:
 Charge =  0 Multiplicity = 1

                         Standard orientation:
 ---------------------------------------------------------------------
 Center     Atomic      Atomic             Coordinates (Angstroms)
 Number     Number       Type             X           Y           Z
 ---------------------------------------------------------------------
      1          6           0        2.979111   -0.666198    0.150154
      2          6           0        2.315820   -1.300148    1.373321
      3          6           0        1.928694   -2.761575    1.144938
      4          1           0        2.295742   -0.736301   -0.707189
      5          1           0        3.873819   -1.246344   -0.115031
      6          1           0        1.423401   -0.718168    1.636957
      7          1           0        3.000771   -1.228356    2.227899
      8          1           0        2.812514   -3.361089    0.904009
      9          1           0        1.226182   -2.848002    0.309709
     10          1           0        1.456200   -3.195047    2.031906
     11          6           0        3.371885    0.794678    0.362987
     12          6           0        4.035176    1.428628   -0.860180
     13          6           0        4.422302    2.890055   -0.631798
     14          1           0        2.477177    1.374824    0.628172
     15          1           0        4.055254    0.864781    1.220330
     16          1           0        3.350225    1.356837   -1.714759
     17          1           0        4.927595    0.846649   -1.123816
     18          1           0        5.124815    2.976482    0.203431
     19          1           0        3.538482    3.489569   -0.390868
     20          1           0        4.894796    3.323527   -1.518765
     21          6           0       -2.532869   -0.476435   -0.232993
     22          6           0       -2.482536   -1.581955   -1.288111
     23          6           0       -1.190827   -2.397862   -1.228290
     24          1           0       -1.669964    0.189999   -0.367920
     25          1           0       -2.427806   -0.925845    0.764197
     26          1           0       -2.589051   -1.130734   -2.282933
     27          1           0       -3.345766   -2.245725   -1.150777
     28          1           0       -1.081326   -2.874613   -0.248842
     29          1           0       -0.320311   -1.753288   -1.387430
     30          1           0       -1.175933   -3.182546   -1.991121
     31          6           0       -3.818127    0.347954   -0.280148
     32          6           0       -3.868460    1.453475    0.774971
     33          6           0       -5.160169    2.269382    0.715149
     34          1           0       -3.923190    0.797365   -1.277338
     35          1           0       -4.681032   -0.318480   -0.145221
     36          1           0       -3.005230    2.117245    0.637636
     37          1           0       -3.761945    1.002254    1.769792
     38          1           0       -6.030685    1.624807    0.874289
     39          1           0       -5.269670    2.746133   -0.264299
     40          1           0       -5.175063    3.054065    1.477980
 ---------------------------------------------------------------------

 SCF Done:  E(RHF) =  -470.732639553     A.U. after   11 cycles
 E2 =    -0.1583345065D+01 EUMP2 =    -0.47231598461764D+03

 The electronic state is 1-A.
 Alpha  occ. eigenvalues --  -11.21667 -11.21643 -11.21596 -11.21513 -11.21466
 Alpha  occ. eigenvalues --  -11.21403 -11.21378 -11.21318 -11.21146 -11.21102
 Alpha  occ. eigenvalues --  -11.21069 -11.20855  -1.08491  -1.08388  -1.03604
 Alpha  occ. eigenvalues --   -1.03460  -0.96074  -0.95897  -0.87114  -0.86898
 Alpha  occ. eigenvalues --   -0.79716  -0.79492  -0.78310  -0.78196  -0.65124
 Alpha  occ. eigenvalues --   -0.65024  -0.60990  -0.60904  -0.59403  -0.59293
 Alpha  occ. eigenvalues --   -0.57724  -0.57487  -0.55402  -0.55172  -0.52757
 Alpha  occ. eigenvalues --   -0.52616  -0.52585  -0.52228  -0.50067  -0.49774
 Alpha  occ. eigenvalues --   -0.48116  -0.47713  -0.46690  -0.46524  -0.45919
 Alpha  occ. eigenvalues --   -0.45760  -0.45693  -0.45553  -0.43844  -0.43735
 Alpha virt. eigenvalues --    0.20858   0.23116   0.23730   0.25055   0.25604
 Alpha virt. eigenvalues --    0.26487   0.26772   0.27732   0.28104   0.29345
 Alpha virt. eigenvalues --    0.30511   0.31110   0.31654   0.31741   0.32048

 Mulliken charges:
               1
     1  C   -0.300687
     2  C   -0.299142
     3  C   -0.484562
     4  H    0.150626
     5  H    0.149692
     6  H    0.151992
     7  H    0.151460
     8  H    0.153904
     9  H    0.167727
    10  H    0.158159
    11  C   -0.298199
    12  C   -0.299566
    13  C   -0.475656
    14  H    0.149242
    15  H    0.149818
    16  H    0.151452
    17  H    0.152042
    18  H    0.155272
    19  H    0.155007
    20  H    0.160185
    21  C   -0.298445
    22  C   -0.299950
    23  C   -0.481832
    24  H    0.148946
    25  H    0.149904
    26  H    0.152029
    27  H    0.152411
    28  H    0.159337
    29  H    0.157040
    30  H    0.161185
    31  C   -0.298309
    32  C   -0.299677
    33  C   -0.475748
    34  H    0.149644
    35  H    0.149914
    36  H    0.151764
    37  H    0.152076
    38  H    0.155294
    39  H    0.155239
    40  H    0.160410
 Sum of Mulliken charges =  -0.00000

 Dipole moment (field-independent basis, Debye):
    X=             -0.0578    Y=             -0.0189    Z=             -0.0251  Tot=              0.0658
 Quadrupole moment (field-independent basis, Debye-Ang):
   XX=            -84.6513   YY=            -85.8419   ZZ=            -84.3081
   XY=              0.3523   XZ=              0.0366   YZ=             -0.5090

 Normal termination of Gaussian 16 at Thu May  6 02:21:20 2021.
