 Gaussian 16, Revision A.03,
 Gaussian 16:  EM64L-G16RevA.03 25-Dec-2016

 -------------
 #p 6-31g* mp2
 -------------

 ------------------------------------------------------
 Input file generated by CHIRIPA (05-May-2021 14:53:14)
 ------------------------------------------------------
 Symbolic Z-matrix:
 Charge =  0 Multiplicity = 1

                         Standard orientation:
 ---------------------------------------------------------------------
 Center     Atomic      Atomic             Coordinates (Angstroms)
 Number     Number       Type             X           Y           Z
 ---------------------------------------------------------------------
      1          6           0        2.431467    0.751342   -0.277993
      2          6           0        3.331389    1.946678   -0.593110
      3          6           0        2.539523    3.218009   -0.900452
      4          1           0        1.761103    0.570656   -1.129409
      5          1           0        1.789252    1.000382    0.578122
      6          1           0        3.972685    1.694955   -1.447505
      7          1           0        3.999819    2.124419    0.259078
      8          1           0        1.911727    3.496408   -0.047829
      9          1           0        1.884438    3.064503   -1.764108
     10          1           0        3.202451    4.059979   -1.122876
     11          6           0        3.208492   -0.527040    0.031360
     12          6           0        2.308570   -1.722376    0.346476
     13          6           0        3.100435   -2.993707    0.653819
     14          1           0        3.850707   -0.776080   -0.824756
     15          1           0        3.878856   -0.346354    0.882776
     16          1           0        1.640139   -1.900118   -0.505712
     17          1           0        1.667273   -1.470653    1.200871
     18          1           0        3.755520   -2.840201    1.517474
     19          1           0        3.728232   -3.272106   -0.198805
     20          1           0        2.437507   -3.835678    0.876242
     21          6           0       -2.365403    2.263642    0.996986
     22          6           0       -3.236836    1.838513   -0.011176
     23          6           0       -3.155993    0.537966   -0.517723
     24          6           0       -2.187418   -0.314929    0.009270
     25          6           0       -1.304909    0.079060    1.013880
     26          6           0       -1.403916    1.384109    1.505400
     27          1           0       -2.435259    3.275687    1.384647
     28          1           0       -3.984523    2.519405   -0.407908
     29          1           0       -3.818029    0.182747   -1.298073
     30          1           0       -0.569930   -0.622498    1.389433
     31          1           0       -0.725828    1.711534    2.288365
     32          7           0       -2.092219   -1.694143   -0.519035
     33          8           0       -1.230165   -2.426287   -0.037927
     34          8           0       -2.881459   -2.016911   -1.404223
 ---------------------------------------------------------------------

 SCF Done:  E(RHF) =  -669.535194223     A.U. after   15 cycles
 E2 =    -0.2093632075D+01 EUMP2 =    -0.67162882629714D+03

 The electronic state is 1-A.
 Alpha  occ. eigenvalues --  -20.60829 -20.60819 -15.85860 -11.31176 -11.27764
 Alpha  occ. eigenvalues --  -11.27726 -11.27503 -11.26764 -11.26754 -11.21757
 Alpha  occ. eigenvalues --  -11.21480 -11.21334 -11.21254 -11.21179 -11.20591
 Alpha  occ. eigenvalues --   -1.59893  -1.39447  -1.19359  -1.08764  -1.08393
 Alpha  occ. eigenvalues --   -1.04759  -1.03423  -0.95894  -0.95605  -0.86916
 Alpha  occ. eigenvalues --   -0.86160  -0.82443  -0.79520  -0.78266  -0.77409
 Alpha  occ. eigenvalues --   -0.72082  -0.71208  -0.70477  -0.65095  -0.64976
 Alpha  occ. eigenvalues --   -0.64764  -0.62119  -0.60824  -0.59267  -0.57472
 Alpha  occ. eigenvalues --   -0.55273  -0.55207  -0.53102  -0.52886  -0.52543
 Alpha  occ. eigenvalues --   -0.52304  -0.49863  -0.48876  -0.48843  -0.47793
 Alpha  occ. eigenvalues --   -0.46579  -0.45764  -0.45660  -0.44710  -0.43684
 Alpha  occ. eigenvalues --   -0.37339  -0.36310
 Alpha virt. eigenvalues --    0.05004   0.11240   0.16374   0.20397   0.23068
 Alpha virt. eigenvalues --    0.24115   0.25248   0.27084   0.27816   0.27999
 Alpha virt. eigenvalues --    0.29480   0.30244   0.31476   0.31781   0.32264

 Mulliken charges:
               1
     1  C   -0.297501
     2  C   -0.299674
     3  C   -0.474268
     4  H    0.152321
     5  H    0.140116
     6  H    0.154133
     7  H    0.150885
     8  H    0.149224
     9  H    0.156602
    10  H    0.160364
    11  C   -0.299197
    12  C   -0.300380
    13  C   -0.476566
    14  H    0.150892
    15  H    0.146483
    16  H    0.168674
    17  H    0.140642
    18  H    0.150135
    19  H    0.154703
    20  H    0.168713
    21  C   -0.170240
    22  C   -0.219077
    23  C   -0.170322
    24  C    0.154155
    25  C   -0.169518
    26  C   -0.221158
    27  H    0.225740
    28  H    0.223410
    29  H    0.275450
    30  H    0.285217
    31  H    0.222967
    32  N    0.487299
    33  O   -0.460077
    34  O   -0.460144
 Sum of Mulliken charges =  -0.00000

 Dipole moment (field-independent basis, Debye):
    X=             -0.4038    Y=              4.7021    Z=              1.7379  Tot=              5.0292
 Quadrupole moment (field-independent basis, Debye-Ang):
   XX=            -91.2471   YY=            -98.9800   ZZ=            -92.3886
   XY=            -11.3061   XZ=             -1.7729   YZ=             -0.6226

 Normal termination of Gaussian 16 at Thu May  6 02:38:48 2021.
