 Gaussian 16, Revision A.03,
 Gaussian 16:  EM64L-G16RevA.03 25-Dec-2016

 -------------
 #p 6-31g* mp2
 -------------

 ------------------------------------------------------
 Input file generated by CHIRIPA (05-May-2021 14:51:11)
 ------------------------------------------------------
 Symbolic Z-matrix:
 Charge =  0 Multiplicity = 1

                         Standard orientation:
 ---------------------------------------------------------------------
 Center     Atomic      Atomic             Coordinates (Angstroms)
 Number     Number       Type             X           Y           Z
 ---------------------------------------------------------------------
      1          6           0       -3.047905   -0.379759    0.420351
      2          6           0       -2.009821   -1.443210    0.060576
      3          6           0       -0.664998   -1.214019    0.751023
      4          1           0       -2.658374    0.610710    0.147986
      5          1           0       -3.190858   -0.370654    1.509790
      6          1           0       -1.869886   -1.451256   -1.027987
      7          1           0       -2.401947   -2.431280    0.333653
      8          1           0       -0.783547   -1.226939    1.839315
      9          1           0       -0.248463   -0.241347    0.469938
     10          1           0        0.062210   -1.985679    0.479787
     11          6           0       -4.397539   -0.595264   -0.262125
     12          6           0       -5.435623    0.468187    0.097650
     13          6           0       -6.780445    0.238995   -0.592797
     14          1           0       -4.254586   -0.604369   -1.351564
     15          1           0       -4.787069   -1.585733    0.010240
     16          1           0       -5.043497    1.456257   -0.175427
     17          1           0       -5.575557    0.476233    1.186213
     18          1           0       -7.196980   -0.733677   -0.311712
     19          1           0       -6.661897    0.251916   -1.681089
     20          1           0       -7.507654    1.010655   -0.321560
     21          6           0        3.612008    1.238652   -0.162558
     22          6           0        2.203905    1.690844    0.225713
     23          6           0        1.997822    3.196040    0.053343
     24          1           0        4.346182    1.782898    0.447138
     25          1           0        3.804438    1.518734   -1.207507
     26          1           0        2.013677    1.408762    1.269197
     27          1           0        1.472991    1.145319   -0.384846
     28          1           0        2.160767    3.490367   -0.988492
     29          1           0        2.704526    3.755307    0.674948
     30          1           0        0.984538    3.497549    0.336553
     31          6           0        3.833436   -0.263629    0.004331
     32          6           0        5.241538   -0.715821   -0.383939
     33          6           0        5.447621   -2.221016   -0.211570
     34          1           0        3.641005   -0.543711    1.049281
     35          1           0        3.099263   -0.807875   -0.605365
     36          1           0        5.972453   -0.170296    0.226618
     37          1           0        5.431766   -0.433738   -1.427423
     38          1           0        4.740918   -2.780283   -0.833175
     39          1           0        5.284677   -2.515344    0.830266
     40          1           0        6.460905   -2.522526   -0.494779
 ---------------------------------------------------------------------

 SCF Done:  E(RHF) =  -470.733085181     A.U. after   11 cycles
 E2 =    -0.1582735715D+01 EUMP2 =    -0.47231582089634D+03

 The electronic state is 1-A.
 Alpha  occ. eigenvalues --  -11.21592 -11.21589 -11.21585 -11.21558 -11.21389
 Alpha  occ. eigenvalues --  -11.21387 -11.21327 -11.21325 -11.21084 -11.21064
 Alpha  occ. eigenvalues --  -11.21059 -11.20947  -1.08427  -1.08400  -1.03540
 Alpha  occ. eigenvalues --   -1.03485  -0.95975  -0.95942  -0.87009  -0.86944
 Alpha  occ. eigenvalues --   -0.79671  -0.79495  -0.78275  -0.78172  -0.65085
 Alpha  occ. eigenvalues --   -0.65008  -0.60995  -0.60841  -0.59360  -0.59305
 Alpha  occ. eigenvalues --   -0.57643  -0.57499  -0.55281  -0.55221  -0.52700
 Alpha  occ. eigenvalues --   -0.52613  -0.52453  -0.52315  -0.49994  -0.49856
 Alpha  occ. eigenvalues --   -0.48075  -0.47710  -0.46736  -0.46510  -0.45868
 Alpha  occ. eigenvalues --   -0.45722  -0.45692  -0.45494  -0.43779  -0.43745
 Alpha virt. eigenvalues --    0.21971   0.23074   0.23760   0.24512   0.26132
 Alpha virt. eigenvalues --    0.26690   0.26852   0.27410   0.28007   0.29393
 Alpha virt. eigenvalues --    0.30131   0.31432   0.31641   0.31900   0.32021

 Mulliken charges:
               1
     1  C   -0.298149
     2  C   -0.299522
     3  C   -0.482693
     4  H    0.149273
     5  H    0.149503
     6  H    0.151087
     7  H    0.151644
     8  H    0.154389
     9  H    0.163588
    10  H    0.160073
    11  C   -0.298223
    12  C   -0.299634
    13  C   -0.475688
    14  H    0.149375
    15  H    0.149659
    16  H    0.151872
    17  H    0.151909
    18  H    0.155172
    19  H    0.155138
    20  H    0.160217
    21  C   -0.297885
    22  C   -0.304197
    23  C   -0.475566
    24  H    0.149595
    25  H    0.149174
    26  H    0.153578
    27  H    0.155460
    28  H    0.154978
    29  H    0.155411
    30  H    0.159922
    31  C   -0.298821
    32  C   -0.299661
    33  C   -0.475656
    34  H    0.150157
    35  H    0.150390
    36  H    0.151885
    37  H    0.151753
    38  H    0.155038
    39  H    0.155277
    40  H    0.160176
 Sum of Mulliken charges =  -0.00000

 Dipole moment (field-independent basis, Debye):
    X=              0.0278    Y=              0.0150    Z=              0.0095  Tot=              0.0330
 Quadrupole moment (field-independent basis, Debye-Ang):
   XX=            -85.8276   YY=            -85.6599   ZZ=            -83.3981
   XY=              0.5070   XZ=             -0.3708   YZ=             -0.2347

 Normal termination of Gaussian 16 at Wed May  5 23:04:56 2021.
