 Gaussian 16, Revision A.03,
 Gaussian 16:  EM64L-G16RevA.03 25-Dec-2016

 -------------
 #p 6-31g* mp2
 -------------

 ------------------------------------------------------
 Input file generated by CHIRIPA (05-May-2021 14:55:23)
 ------------------------------------------------------
 Symbolic Z-matrix:
 Charge =  0 Multiplicity = 1

                         Standard orientation:
 ---------------------------------------------------------------------
 Center     Atomic      Atomic             Coordinates (Angstroms)
 Number     Number       Type             X           Y           Z
 ---------------------------------------------------------------------
      1          6           0       -5.216669   -1.658883    0.020443
      2          6           0       -4.694710   -1.130428   -1.164806
      3          6           0       -3.737120   -0.112512   -1.127166
      4          6           0       -3.322191    0.355464    0.118676
      5          6           0       -3.823349   -0.150610    1.317017
      6          6           0       -4.780092   -1.168152    1.255394
      7          1           0       -5.960219   -2.449479   -0.018112
      8          1           0       -5.031908   -1.509598   -2.125313
      9          1           0       -3.316375    0.314634   -2.029351
     10          1           0       -3.467680    0.247783    2.259460
     11          1           0       -5.183706   -1.576667    2.177488
     12          7           0       -2.308882    1.432888    0.171219
     13          8           0       -1.959820    1.827937    1.281502
     14          8           0       -1.882898    1.861923   -0.898877
     15          6           0        5.170860    0.066861   -0.149754
     16          6           0        6.215614   -0.840435    0.500853
     17          6           0        7.620427   -0.237413    0.475237
     18          1           0        5.465833    0.268864   -1.188566
     19          1           0        5.164226    1.036325    0.367440
     20          1           0        6.219306   -1.808380   -0.016531
     21          1           0        5.918020   -1.040457    1.538178
     22          1           0        7.639092    0.718538    1.008537
     23          1           0        7.942090   -0.053749   -0.555006
     24          1           0        8.351455   -0.902531    0.945426
     25          6           0        3.761484   -0.522263   -0.131888
     26          6           0        2.716731    0.385034   -0.782495
     27          6           0        1.311917   -0.217988   -0.756879
     28          1           0        3.768118   -1.491727   -0.649082
     29          1           0        3.466511   -0.724265    0.906924
     30          1           0        3.014324    0.585055   -1.819821
     31          1           0        2.713038    1.352978   -0.265111
     32          1           0        0.990254   -0.401654    0.273364
     33          1           0        1.293251   -1.173940   -1.290179
     34          1           0        0.580889    0.447129   -1.227068
 ---------------------------------------------------------------------

 SCF Done:  E(RHF) =  -669.536373392     A.U. after   15 cycles
 E2 =    -0.2091001570D+01 EUMP2 =    -0.67162737496261D+03

 The electronic state is 1-A.
 Alpha  occ. eigenvalues --  -20.60907 -20.60896 -15.85924 -11.31239 -11.27804
 Alpha  occ. eigenvalues --  -11.27800 -11.27544 -11.26813 -11.26803 -11.21169
 Alpha  occ. eigenvalues --  -11.20836 -11.20756 -11.20698 -11.20695 -11.20055
 Alpha  occ. eigenvalues --   -1.59953  -1.39513  -1.19407  -1.08814  -1.07809
 Alpha  occ. eigenvalues --   -1.04805  -1.02870  -0.95659  -0.95323  -0.86351
 Alpha  occ. eigenvalues --   -0.86206  -0.82495  -0.78959  -0.77615  -0.77547
 Alpha  occ. eigenvalues --   -0.72154  -0.71261  -0.70521  -0.65066  -0.64811
 Alpha  occ. eigenvalues --   -0.64444  -0.62155  -0.60272  -0.58694  -0.56912
 Alpha  occ. eigenvalues --   -0.55314  -0.54627  -0.53136  -0.52900  -0.51996
 Alpha  occ. eigenvalues --   -0.51756  -0.49297  -0.48916  -0.48900  -0.47272
 Alpha  occ. eigenvalues --   -0.46001  -0.45166  -0.45075  -0.44915  -0.43071
 Alpha  occ. eigenvalues --   -0.37384  -0.36405
 Alpha virt. eigenvalues --    0.04951   0.11248   0.16420   0.21367   0.23463
 Alpha virt. eigenvalues --    0.25014   0.27238   0.27282   0.28097   0.28131
 Alpha virt. eigenvalues --    0.28730   0.30875   0.31995   0.32216   0.32395

 Mulliken charges:
               1
     1  C   -0.170579
     2  C   -0.218555
     3  C   -0.170327
     4  C    0.159164
     5  C   -0.170825
     6  C   -0.218563
     7  H    0.225791
     8  H    0.223651
     9  H    0.275658
    10  H    0.275566
    11  H    0.223594
    12  N    0.489169
    13  O   -0.458960
    14  O   -0.460020
    15  C   -0.297992
    16  C   -0.299102
    17  C   -0.475400
    18  H    0.148651
    19  H    0.150573
    20  H    0.150385
    21  H    0.151341
    22  H    0.155408
    23  H    0.154597
    24  H    0.158633
    25  C   -0.297716
    26  C   -0.298505
    27  C   -0.486154
    28  H    0.146230
    29  H    0.148903
    30  H    0.149519
    31  H    0.157603
    32  H    0.152591
    33  H    0.146244
    34  H    0.179428
 Sum of Mulliken charges =  -0.00000

 Dipole moment (field-independent basis, Debye):
    X=             -3.7876    Y=             -3.6749    Z=             -0.1717  Tot=              5.2802
 Quadrupole moment (field-independent basis, Debye-Ang):
   XX=            -73.4771   YY=            -98.1741   ZZ=            -88.9777
   XY=             11.5717   XZ=             -0.1987   YZ=             -0.2668

 Normal termination of Gaussian 16 at Thu May  6 07:52:59 2021.
