 Gaussian 16, Revision A.03,
 Gaussian 16:  EM64L-G16RevA.03 25-Dec-2016

 -------------
 #p 6-31g* mp2
 -------------

 ------------------------------------------------------
 Input file generated by CHIRIPA (05-May-2021 14:53:14)
 ------------------------------------------------------
 Symbolic Z-matrix:
 Charge =  0 Multiplicity = 1

                         Standard orientation:
 ---------------------------------------------------------------------
 Center     Atomic      Atomic             Coordinates (Angstroms)
 Number     Number       Type             X           Y           Z
 ---------------------------------------------------------------------
      1          6           0        2.854226    0.940593   -0.097356
      2          6           0        3.734625    2.190000   -0.140558
      3          6           0        2.944156    3.478424    0.089476
      4          1           0        2.065497    1.029131   -0.856970
      5          1           0        2.346689    0.891653    0.875991
      6          1           0        4.241420    2.235833   -1.113016
      7          1           0        4.521466    2.098391    0.619117
      8          1           0        2.451237    3.458675    1.066841
      9          1           0        2.169600    3.596897   -0.675134
     10          1           0        3.592965    4.359152    0.054463
     11          6           0        3.630091   -0.355421   -0.325632
     12          6           0        2.749692   -1.604827   -0.282430
     13          6           0        3.540161   -2.893251   -0.512464
     14          1           0        4.137629   -0.306480   -1.298979
     15          1           0        4.418820   -0.443958    0.433981
     16          1           0        1.962852   -1.513219   -1.042105
     17          1           0        2.242897   -1.650660    0.690028
     18          1           0        4.314717   -3.011725    0.252146
     19          1           0        4.033080   -2.873502   -1.489829
     20          1           0        2.891353   -3.773979   -0.477451
     21          6           0       -0.651576   -1.329356    1.435941
     22          6           0       -0.861185   -1.639056    0.088101
     23          6           0       -1.900524   -1.035230   -0.625843
     24          6           0       -2.714819   -0.122164    0.042382
     25          6           0       -2.531421    0.207156    1.384471
     26          6           0       -1.485892   -0.408861    2.078691
     27          1           0        0.158211   -1.803158    1.982889
     28          1           0       -0.214813   -2.353550   -0.413641
     29          1           0       -2.085244   -1.256673   -1.669997
     30          1           0       -3.192280    0.923343    1.857504
     31          1           0       -1.325460   -0.166424    3.125366
     32          7           0       -3.818397    0.523533   -0.702998
     33          8           0       -4.521844    1.324614   -0.091386
     34          8           0       -3.959039    0.216321   -1.884725
 ---------------------------------------------------------------------

 SCF Done:  E(RHF) =  -669.534036244     A.U. after   15 cycles
 E2 =    -0.2093286149D+01 EUMP2 =    -0.67162732239338D+03

 The electronic state is 1-A.
 Alpha  occ. eigenvalues --  -20.60734 -20.60729 -15.85786 -11.31142 -11.27704
 Alpha  occ. eigenvalues --  -11.27687 -11.27429 -11.26733 -11.26662 -11.22627
 Alpha  occ. eigenvalues --  -11.22106 -11.22013 -11.22010 -11.21892 -11.21366
 Alpha  occ. eigenvalues --   -1.59810  -1.39363  -1.19310  -1.09119  -1.08700
 Alpha  occ. eigenvalues --   -1.04719  -1.04206  -0.96621  -0.95549  -0.87641
 Alpha  occ. eigenvalues --   -0.86119  -0.82383  -0.80347  -0.78893  -0.77413
 Alpha  occ. eigenvalues --   -0.72005  -0.71132  -0.70444  -0.65746  -0.64962
 Alpha  occ. eigenvalues --   -0.64739  -0.62100  -0.61602  -0.60008  -0.58230
 Alpha  occ. eigenvalues --   -0.55895  -0.55235  -0.53378  -0.53076  -0.52987
 Alpha  occ. eigenvalues --   -0.52809  -0.50552  -0.48791  -0.48763  -0.48561
 Alpha  occ. eigenvalues --   -0.47346  -0.46406  -0.46315  -0.44772  -0.44440
 Alpha  occ. eigenvalues --   -0.37239  -0.36286
 Alpha virt. eigenvalues --    0.05070   0.11290   0.16439   0.19991   0.22600
 Alpha virt. eigenvalues --    0.23836   0.24984   0.26086   0.26870   0.28107
 Alpha virt. eigenvalues --    0.29007   0.29792   0.30970   0.31611   0.31889

 Mulliken charges:
               1
     1  C   -0.298367
     2  C   -0.300419
     3  C   -0.475875
     4  H    0.153075
     5  H    0.147147
     6  H    0.153294
     7  H    0.151483
     8  H    0.154277
     9  H    0.157994
    10  H    0.161723
    11  C   -0.298317
    12  C   -0.303588
    13  C   -0.476660
    14  H    0.152646
    15  H    0.150515
    16  H    0.151102
    17  H    0.144055
    18  H    0.158161
    19  H    0.160065
    20  H    0.156137
    21  C   -0.171348
    22  C   -0.215069
    23  C   -0.173687
    24  C    0.158855
    25  C   -0.170991
    26  C   -0.219259
    27  H    0.225561
    28  H    0.227424
    29  H    0.274995
    30  H    0.275329
    31  H    0.222947
    32  N    0.488056
    33  O   -0.460539
    34  O   -0.460719
 Sum of Mulliken charges =  -0.00000

 Dipole moment (field-independent basis, Debye):
    X=              4.0201    Y=             -2.1939    Z=              2.5682  Tot=              5.2507
 Quadrupole moment (field-independent basis, Debye-Ang):
   XX=           -116.1924   YY=            -94.4858   ZZ=            -90.3689
   XY=              5.4756   XZ=             -8.2007   YZ=              1.7595

 Normal termination of Gaussian 16 at Thu May  6 13:45:55 2021.
