 Gaussian 16, Revision A.03,
 Gaussian 16:  EM64L-G16RevA.03 25-Dec-2016

 -------------
 #p 6-31g* mp2
 -------------

 ------------------------------------------------------
 Input file generated by CHIRIPA (05-May-2021 14:53:12)
 ------------------------------------------------------
 Symbolic Z-matrix:
 Charge =  0 Multiplicity = 1

                         Standard orientation:
 ---------------------------------------------------------------------
 Center     Atomic      Atomic             Coordinates (Angstroms)
 Number     Number       Type             X           Y           Z
 ---------------------------------------------------------------------
      1          6           0       -2.987745   -0.590656    0.193154
      2          6           0       -3.546866   -1.802637   -0.552815
      3          6           0       -2.815293   -3.099593   -0.205683
      4          1           0       -1.919601   -0.484745   -0.040935
      5          1           0       -3.054188   -0.771965    1.274869
      6          1           0       -3.480660   -1.618518   -1.632784
      7          1           0       -4.613847   -1.905561   -0.317074
      8          1           0       -2.892271   -3.310364    0.865882
      9          1           0       -1.752646   -3.021690   -0.457304
     10          1           0       -3.231148   -3.953157   -0.750067
     11          6           0       -3.708791    0.713406   -0.143362
     12          6           0       -3.149670    1.925387    0.602608
     13          6           0       -3.881242    3.222343    0.255475
     14          1           0       -3.642347    0.894715   -1.225077
     15          1           0       -4.776934    0.607495    0.090727
     16          1           0       -2.082689    2.028312    0.366866
     17          1           0       -3.215876    1.741268    1.682577
     18          1           0       -4.943890    3.144440    0.507097
     19          1           0       -3.804264    3.433114   -0.816089
     20          1           0       -3.465388    4.075907    0.799859
     21          6           0        3.514639    2.289515   -0.326586
     22          6           0        4.378576    1.248414    0.028722
     23          6           0        3.891593   -0.050631    0.201579
     24          6           0        2.528941   -0.273927    0.010243
     25          6           0        1.642930    0.742345   -0.343968
     26          6           0        2.151976    2.033609   -0.511472
     27          1           0        3.901509    3.295622   -0.458785
     28          1           0        5.437299    1.444225    0.172966
     29          1           0        4.538143   -0.875149    0.476462
     30          1           0        0.592411    0.516288   -0.480810
     31          1           0        1.478697    2.840200   -0.787428
     32          7           0        2.001715   -1.645049    0.190404
     33          8           0        0.797107   -1.815715    0.015971
     34          8           0        2.803068   -2.523104    0.502636
 ---------------------------------------------------------------------

 SCF Done:  E(RHF) =  -669.536061775     A.U. after   15 cycles
 E2 =    -0.2092345809D+01 EUMP2 =    -0.67162840758430D+03

 The electronic state is 1-A.
 Alpha  occ. eigenvalues --  -20.60968 -20.60963 -15.86005 -11.31301 -11.27865
 Alpha  occ. eigenvalues --  -11.27859 -11.27594 -11.26865 -11.26855 -11.21719
 Alpha  occ. eigenvalues --  -11.21226 -11.21172 -11.20836 -11.20767 -11.19750
 Alpha  occ. eigenvalues --   -1.60028  -1.39587  -1.19468  -1.08875  -1.08071
 Alpha  occ. eigenvalues --   -1.04862  -1.03082  -0.95724  -0.95500  -0.86515
 Alpha  occ. eigenvalues --   -0.86263  -0.82563  -0.79233  -0.77859  -0.77534
 Alpha  occ. eigenvalues --   -0.72237  -0.71338  -0.70580  -0.65131  -0.64891
 Alpha  occ. eigenvalues --   -0.64694  -0.62210  -0.60481  -0.58973  -0.57091
 Alpha  occ. eigenvalues --   -0.55367  -0.54780  -0.53192  -0.52958  -0.52224
 Alpha  occ. eigenvalues --   -0.51898  -0.49509  -0.48985  -0.48903  -0.47485
 Alpha  occ. eigenvalues --   -0.46296  -0.45313  -0.45182  -0.44978  -0.43345
 Alpha  occ. eigenvalues --   -0.37444  -0.36460
 Alpha virt. eigenvalues --    0.04911   0.11190   0.16412   0.19517   0.22986
 Alpha virt. eigenvalues --    0.24645   0.24939   0.27344   0.27636   0.28496
 Alpha virt. eigenvalues --    0.29556   0.31060   0.31866   0.31914   0.32602

 Mulliken charges:
               1
     1  C   -0.306261
     2  C   -0.298296
     3  C   -0.484986
     4  H    0.160740
     5  H    0.150118
     6  H    0.147879
     7  H    0.147428
     8  H    0.152626
     9  H    0.183735
    10  H    0.153965
    11  C   -0.298316
    12  C   -0.296770
    13  C   -0.475505
    14  H    0.146567
    15  H    0.150179
    16  H    0.139718
    17  H    0.154601
    18  H    0.157605
    19  H    0.153451
    20  H    0.157866
    21  C   -0.170133
    22  C   -0.218963
    23  C   -0.169592
    24  C    0.155527
    25  C   -0.173507
    26  C   -0.221118
    27  H    0.226132
    28  H    0.223866
    29  H    0.275883
    30  H    0.283275
    31  H    0.224505
    32  N    0.495778
    33  O   -0.469574
    34  O   -0.458423
 Sum of Mulliken charges =  -0.00000

 Dipole moment (field-independent basis, Debye):
    X=              2.0839    Y=              4.7010    Z=             -0.5932  Tot=              5.1763
 Quadrupole moment (field-independent basis, Debye-Ang):
   XX=            -81.3731   YY=            -98.5389   ZZ=            -94.8840
   XY=             10.6600   XZ=             -1.1628   YZ=             -0.2346

 Normal termination of Gaussian 16 at Thu May  6 10:26:15 2021.
