 Gaussian 16, Revision A.03,
 Gaussian 16:  EM64L-G16RevA.03 25-Dec-2016

 -------------
 #p 6-31g* mp2
 -------------

 ------------------------------------------------------
 Input file generated by CHIRIPA (05-May-2021 14:51:12)
 ------------------------------------------------------
 Symbolic Z-matrix:
 Charge =  0 Multiplicity = 1

                         Standard orientation:
 ---------------------------------------------------------------------
 Center     Atomic      Atomic             Coordinates (Angstroms)
 Number     Number       Type             X           Y           Z
 ---------------------------------------------------------------------
      1          6           0       -3.090799   -0.360650    0.695841
      2          6           0       -1.713592    0.084776    0.203011
      3          6           0       -0.617141   -0.118679    1.249049
      4          1           0       -3.344527    0.196337    1.608164
      5          1           0       -3.045640   -1.421254    0.979522
      6          1           0       -1.761686    1.143862   -0.080960
      7          1           0       -1.463197   -0.473198   -0.708352
      8          1           0       -0.540079   -1.175096    1.525897
      9          1           0       -0.840264    0.451152    2.156854
     10          1           0        0.359052    0.206314    0.875837
     11          6           0       -4.197382   -0.163514   -0.338732
     12          6           0       -5.574589   -0.608939    0.154098
     13          6           0       -6.671041   -0.405485   -0.891939
     14          1           0       -4.242541    0.897090   -0.622413
     15          1           0       -3.943654   -0.720500   -1.251055
     16          1           0       -5.824985   -0.050965    1.065462
     17          1           0       -5.526496   -1.668025    0.438069
     18          1           0       -6.447917   -0.975315   -1.799745
     19          1           0       -6.748102    0.650933   -1.168787
     20          1           0       -7.647234   -0.730478   -0.518728
     21          6           0        3.355148    0.861854    0.195900
     22          6           0        2.559254    1.810606   -0.700990
     23          6           0        1.987560    3.005568    0.062571
     24          1           0        2.706594    0.504096    1.007277
     25          1           0        4.173471    1.419151    0.672514
     26          1           0        1.743512    1.251371   -1.176845
     27          1           0        3.209723    2.165997   -1.510435
     28          1           0        2.791420    3.588215    0.524016
     29          1           0        1.316878    2.668392    0.859503
     30          1           0        1.422386    3.670762   -0.597697
     31          6           0        3.933034   -0.337691   -0.553009
     32          6           0        4.728927   -1.286442    0.343880
     33          6           0        5.300622   -2.481404   -0.419681
     34          1           0        3.114710   -0.894987   -1.029624
     35          1           0        4.581587    0.020067   -1.364386
     36          1           0        4.078458   -1.641833    1.153326
     37          1           0        5.544670   -0.727207    0.819735
     38          1           0        5.971304   -2.144229   -1.216613
     39          1           0        4.496762   -3.064051   -0.881125
     40          1           0        5.865795   -3.146598    0.240588
 ---------------------------------------------------------------------

 SCF Done:  E(RHF) =  -470.732899393     A.U. after   11 cycles
 E2 =    -0.1583480928D+01 EUMP2 =    -0.47231638032170D+03

 The electronic state is 1-A.
 Alpha  occ. eigenvalues --  -11.21649 -11.21618 -11.21604 -11.21587 -11.21432
 Alpha  occ. eigenvalues --  -11.21394 -11.21372 -11.21334 -11.21105 -11.21083
 Alpha  occ. eigenvalues --  -11.21061 -11.21051  -1.08472  -1.08420  -1.03595
 Alpha  occ. eigenvalues --   -1.03498  -0.96021  -0.95968  -0.87046  -0.86983
 Alpha  occ. eigenvalues --   -0.79644  -0.79572  -0.78281  -0.78230  -0.65140
 Alpha  occ. eigenvalues --   -0.65086  -0.61087  -0.60934  -0.59386  -0.59245
 Alpha  occ. eigenvalues --   -0.57589  -0.57580  -0.55374  -0.55188  -0.52722
 Alpha  occ. eigenvalues --   -0.52661  -0.52433  -0.52395  -0.49989  -0.49879
 Alpha  occ. eigenvalues --   -0.47984  -0.47857  -0.46660  -0.46619  -0.45816
 Alpha  occ. eigenvalues --   -0.45775  -0.45736  -0.45715  -0.43783  -0.43755
 Alpha virt. eigenvalues --    0.20442   0.23067   0.23758   0.25356   0.26325
 Alpha virt. eigenvalues --    0.26536   0.26904   0.27622   0.27799   0.28980
 Alpha virt. eigenvalues --    0.31264   0.31278   0.31450   0.31705   0.32040

 Mulliken charges:
               1
     1  C   -0.298598
     2  C   -0.299506
     3  C   -0.486536
     4  H    0.149845
     5  H    0.149563
     6  H    0.152943
     7  H    0.151508
     8  H    0.154946
     9  H    0.155187
    10  H    0.171451
    11  C   -0.298279
    12  C   -0.299664
    13  C   -0.475725
    14  H    0.149685
    15  H    0.149633
    16  H    0.152010
    17  H    0.151930
    18  H    0.155190
    19  H    0.155247
    20  H    0.160313
    21  C   -0.303366
    22  C   -0.302402
    23  C   -0.478077
    24  H    0.153033
    25  H    0.150234
    26  H    0.152791
    27  H    0.152972
    28  H    0.155236
    29  H    0.157948
    30  H    0.160090
    31  C   -0.298137
    32  C   -0.299780
    33  C   -0.475708
    34  H    0.149449
    35  H    0.149728
    36  H    0.152467
    37  H    0.151906
    38  H    0.155108
    39  H    0.155123
    40  H    0.160244
 Sum of Mulliken charges =  -0.00000

 Dipole moment (field-independent basis, Debye):
    X=             -0.0046    Y=              0.0044    Z=              0.0056  Tot=              0.0085
 Quadrupole moment (field-independent basis, Debye-Ang):
   XX=            -85.0498   YY=            -84.4715   ZZ=            -85.2223
   XY=              0.7937   XZ=             -0.5947   YZ=             -0.0613

 Normal termination of Gaussian 16 at Thu May  6 05:29:26 2021.
