 Gaussian 16, Revision A.03,
 Gaussian 16:  EM64L-G16RevA.03 25-Dec-2016

 -------------
 #p 6-31g* mp2
 -------------

 ------------------------------------------------------
 Input file generated by CHIRIPA (05-May-2021 14:57:21)
 ------------------------------------------------------
 Symbolic Z-matrix:
 Charge =  0 Multiplicity = 1

                         Standard orientation:
 ---------------------------------------------------------------------
 Center     Atomic      Atomic             Coordinates (Angstroms)
 Number     Number       Type             X           Y           Z
 ---------------------------------------------------------------------
      1          6           0        6.051813    0.638332   -0.749131
      2          6           0        5.939294    0.102971    0.538211
      3          6           0        4.698222   -0.315710    1.027081
      4          6           0        3.585382   -0.183925    0.197918
      5          6           0        3.665200    0.345467   -1.089196
      6          6           0        4.916408    0.757661   -1.557301
      7          1           0        7.019844    0.961054   -1.120832
      8          1           0        6.819363    0.009106    1.168062
      9          1           0        4.582625   -0.733699    2.019724
     10          1           0        2.769980    0.426470   -1.693709
     11          1           0        5.000805    1.173059   -2.557484
     12          7           0        2.266149   -0.623730    0.704472
     13          8           0        1.300869   -0.497018   -0.045738
     14          8           0        2.222395   -1.086834    1.842126
     15          6           0       -3.744639    2.583744    0.385819
     16          6           0       -2.597820    1.938310   -0.088251
     17          6           0       -2.618527    0.568844   -0.368755
     18          6           0       -3.808432   -0.127573   -0.162795
     19          6           0       -4.967489    0.487084    0.308451
     20          6           0       -4.923735    1.857352    0.582310
     21          1           0       -3.719602    3.647890    0.601140
     22          1           0       -1.680719    2.499911   -0.241791
     23          1           0       -1.745215    0.044107   -0.736718
     24          1           0       -5.866943   -0.099359    0.451575
     25          1           0       -5.815891    2.355977    0.950379
     26          7           0       -3.842552   -1.577790   -0.456234
     27          8           0       -4.903319   -2.168868   -0.266398
     28          8           0       -2.807883   -2.095932   -0.870512
 ---------------------------------------------------------------------

 SCF Done:  E(RHF) =  -868.338423326     A.U. after   16 cycles
 E2 =    -0.2598823262D+01 EUMP2 =    -0.87093724658818D+03

 The electronic state is 1-A.
 Alpha  occ. eigenvalues --  -20.61097 -20.61063 -20.59786 -20.59740 -15.86135
 Alpha  occ. eigenvalues --  -15.84819 -11.31441 -11.30181 -11.28017 -11.27984
 Alpha  occ. eigenvalues --  -11.27727 -11.27008 -11.26988 -11.26857 -11.26637
 Alpha  occ. eigenvalues --  -11.26626 -11.25888 -11.25783  -1.60142  -1.58844
 Alpha  occ. eigenvalues --   -1.39702  -1.38393  -1.19604  -1.18391  -1.09007
 Alpha  occ. eigenvalues --   -1.07808  -1.05000  -1.03788  -0.95853  -0.94625
 Alpha  occ. eigenvalues --   -0.86401  -0.85198  -0.82692  -0.81451  -0.77747
 Alpha  occ. eigenvalues --   -0.76470  -0.72359  -0.71459  -0.71042  -0.70712
 Alpha  occ. eigenvalues --   -0.70167  -0.69514  -0.65261  -0.65001  -0.64051
 Alpha  occ. eigenvalues --   -0.63811  -0.62350  -0.61108  -0.55499  -0.54351
 Alpha  occ. eigenvalues --   -0.53331  -0.53092  -0.52139  -0.51883  -0.49107
 Alpha  occ. eigenvalues --   -0.49082  -0.47817  -0.47778  -0.45119  -0.43798
 Alpha  occ. eigenvalues --   -0.37580  -0.36602  -0.36423  -0.35389
 Alpha virt. eigenvalues --    0.04788   0.06051   0.11054   0.12254   0.16290
 Alpha virt. eigenvalues --    0.17506   0.21172   0.22314   0.27105   0.27828
 Alpha virt. eigenvalues --    0.28350   0.29247   0.30783   0.31802   0.32284

 Mulliken charges:
               1
     1  C   -0.170581
     2  C   -0.218481
     3  C   -0.170522
     4  C    0.158147
     5  C   -0.171085
     6  C   -0.218443
     7  H    0.226428
     8  H    0.224437
     9  H    0.276627
    10  H    0.273595
    11  H    0.223864
    12  N    0.492064
    13  O   -0.468358
    14  O   -0.455857
    15  C   -0.171136
    16  C   -0.220436
    17  C   -0.171053
    18  C    0.156303
    19  C   -0.171265
    20  C   -0.219744
    21  H    0.221316
    22  H    0.221421
    23  H    0.293397
    24  H    0.272866
    25  H    0.219536
    26  N    0.487545
    27  O   -0.465715
    28  O   -0.454868
 Sum of Mulliken charges =  -0.00000

 Dipole moment (field-independent basis, Debye):
    X=              5.1805    Y=              6.5271    Z=             -0.7424  Tot=              8.3662
 Quadrupole moment (field-independent basis, Debye-Ang):
   XX=            -68.3598   YY=           -108.1356   ZZ=           -102.6365
   XY=            -15.0325   XZ=             -8.8227   YZ=             -1.8542

 Normal termination of Gaussian 16 at Thu May  6 00:05:45 2021.
