 Gaussian 16, Revision A.03,
 Gaussian 16:  EM64L-G16RevA.03 25-Dec-2016

 -------------
 #p 6-31g* mp2
 -------------

 ------------------------------------------------------
 Input file generated by CHIRIPA (05-May-2021 14:57:23)
 ------------------------------------------------------
 Symbolic Z-matrix:
 Charge =  0 Multiplicity = 1

                         Standard orientation:
 ---------------------------------------------------------------------
 Center     Atomic      Atomic             Coordinates (Angstroms)
 Number     Number       Type             X           Y           Z
 ---------------------------------------------------------------------
      1          6           0        6.182381    1.099632   -0.462923
      2          6           0        5.124197    1.878465    0.016855
      3          6           0        3.885795    1.295561    0.301692
      4          6           0        3.739901   -0.075187    0.094196
      5          6           0        4.775084   -0.877844   -0.382698
      6          6           0        6.004760   -0.273615   -0.660820
      7          1           0        7.141012    1.560728   -0.681583
      8          1           0        5.259266    2.945182    0.171500
      9          1           0        3.049720    1.874960    0.674110
     10          1           0        4.610156   -1.938718   -0.526791
     11          1           0        6.824792   -0.880935   -1.033319
     12          7           0        2.433479   -0.703568    0.392186
     13          8           0        2.330514   -1.913295    0.200885
     14          8           0        1.537207    0.025532    0.811409
     15          6           0       -5.727759    1.756819   -0.237653
     16          6           0       -4.410418    2.109093    0.073853
     17          6           0       -3.420097    1.128340    0.183110
     18          6           0       -3.783852   -0.200965   -0.026467
     19          6           0       -5.087596   -0.583570   -0.338165
     20          6           0       -6.061556    0.413979   -0.442306
     21          1           0       -6.490709    2.525215   -0.320539
     22          1           0       -4.148303    3.151164    0.233315
     23          1           0       -2.392529    1.373151    0.423087
     24          1           0       -5.318492   -1.630740   -0.491592
     25          1           0       -7.083810    0.137474   -0.684349
     26          7           0       -2.744104   -1.248134    0.086490
     27          8           0       -3.090233   -2.412176   -0.102817
     28          8           0       -1.602709   -0.885036    0.362195
 ---------------------------------------------------------------------

 SCF Done:  E(RHF) =  -868.334520189     A.U. after   16 cycles
 E2 =    -0.2600583155D+01 EUMP2 =    -0.87093510334393D+03

 The electronic state is 1-A.
 Alpha  occ. eigenvalues --  -20.59765 -20.59757 -20.59485 -20.59369 -15.84844
 Alpha  occ. eigenvalues --  -15.84481 -11.30600 -11.30292 -11.27237 -11.27195
 Alpha  occ. eigenvalues --  -11.27027 -11.26939 -11.26883 -11.26768 -11.26331
 Alpha  occ. eigenvalues --  -11.26300 -11.26048 -11.26032  -1.58821  -1.58518
 Alpha  occ. eigenvalues --   -1.38376  -1.38050  -1.18807  -1.18517  -1.08125
 Alpha  occ. eigenvalues --   -1.07836  -1.04271  -1.03982  -0.94895  -0.94584
 Alpha  occ. eigenvalues --   -0.85651  -0.85360  -0.81737  -0.81402  -0.76715
 Alpha  occ. eigenvalues --   -0.76378  -0.71095  -0.70609  -0.70175  -0.69916
 Alpha  occ. eigenvalues --   -0.69878  -0.69618  -0.64453  -0.64279  -0.64145
 Alpha  occ. eigenvalues --   -0.63994  -0.61618  -0.61318  -0.54756  -0.54483
 Alpha  occ. eigenvalues --   -0.52577  -0.52370  -0.52295  -0.52080  -0.47852
 Alpha  occ. eigenvalues --   -0.47768  -0.47420  -0.47390  -0.43709  -0.43358
 Alpha  occ. eigenvalues --   -0.36809  -0.36533  -0.35893  -0.35608
 Alpha virt. eigenvalues --    0.05827   0.06153   0.11755   0.12039   0.17252
 Alpha virt. eigenvalues --    0.17562   0.21835   0.22115   0.27715   0.27991
 Alpha virt. eigenvalues --    0.28747   0.29073   0.31349   0.31632   0.32991

 Mulliken charges:
               1
     1  C   -0.172124
     2  C   -0.218392
     3  C   -0.171750
     4  C    0.159591
     5  C   -0.171394
     6  C   -0.218413
     7  H    0.223254
     8  H    0.220523
     9  H    0.272723
    10  H    0.276334
    11  H    0.221932
    12  N    0.487178
    13  O   -0.454564
    14  O   -0.454081
    15  C   -0.172262
    16  C   -0.218906
    17  C   -0.172534
    18  C    0.158360
    19  C   -0.171848
    20  C   -0.218760
    21  H    0.222036
    22  H    0.220039
    23  H    0.280853
    24  H    0.274389
    25  H    0.220414
    26  N    0.486251
    27  O   -0.466767
    28  O   -0.442080
 Sum of Mulliken charges =  -0.00000

 Dipole moment (field-independent basis, Debye):
    X=              1.0975    Y=              5.7464    Z=             -1.3646  Tot=              6.0074
 Quadrupole moment (field-independent basis, Debye-Ang):
   XX=            -43.6988   YY=           -101.0993   ZZ=           -106.1089
   XY=             -4.6823   XZ=             -1.7987   YZ=              2.5528

 Normal termination of Gaussian 16 at Fri May  7 06:28:22 2021.
