 Gaussian 16, Revision A.03,
 Gaussian 16:  EM64L-G16RevA.03 25-Dec-2016

 -------------
 #p 6-31g* mp2
 -------------

 ------------------------------------------------------
 Input file generated by CHIRIPA (05-May-2021 14:51:09)
 ------------------------------------------------------
 Symbolic Z-matrix:
 Charge =  0 Multiplicity = 1

                         Standard orientation:
 ---------------------------------------------------------------------
 Center     Atomic      Atomic             Coordinates (Angstroms)
 Number     Number       Type             X           Y           Z
 ---------------------------------------------------------------------
      1          6           0       -2.600641   -0.608165    0.250102
      2          6           0       -1.983074   -1.797324   -0.486442
      3          6           0       -0.589491   -2.154460    0.031413
      4          1           0       -1.936879    0.261571    0.150480
      5          1           0       -2.655102   -0.838518    1.323120
      6          1           0       -1.931068   -1.565344   -1.557935
      7          1           0       -2.648476   -2.664278   -0.385216
      8          1           0       -0.627965   -2.411907    1.094824
      9          1           0        0.093520   -1.306728   -0.084558
     10          1           0       -0.166722   -3.007150   -0.509000
     11          6           0       -3.993852   -0.239068   -0.256317
     12          6           0       -4.611419    0.950090    0.480228
     13          6           0       -6.005002    1.307226   -0.037628
     14          1           0       -3.939391   -0.008716   -1.329334
     15          1           0       -4.657613   -1.108804   -0.156694
     16          1           0       -3.946017    1.817044    0.379002
     17          1           0       -4.663425    0.718110    1.551721
     18          1           0       -6.688012    0.459495    0.078344
     19          1           0       -5.966528    1.564673   -1.101038
     20          1           0       -6.427771    2.159916    0.502786
     21          6           0        3.242739   -0.264051   -0.324879
     22          6           0        3.638774   -1.412084    0.604186
     23          6           0        3.524505   -2.781454   -0.066306
     24          1           0        2.211654   -0.419682   -0.670692
     25          1           0        3.879768   -0.289444   -1.219834
     26          1           0        3.002111   -1.383698    1.497758
     27          1           0        4.668971   -1.253601    0.947980
     28          1           0        4.172580   -2.834405   -0.947099
     29          1           0        2.496250   -2.965242   -0.394198
     30          1           0        3.812357   -3.587643    0.615649
     31          6           0        3.351754    1.111284    0.331093
     32          6           0        2.955719    2.259318   -0.597972
     33          6           0        3.069987    3.628688    0.072520
     34          1           0        2.714725    1.136678    1.226048
     35          1           0        4.382839    1.266915    0.676907
     36          1           0        1.925522    2.100835   -0.941766
     37          1           0        3.592381    2.230933   -1.491544
     38          1           0        4.098243    3.812476    0.400412
     39          1           0        2.421913    3.681640    0.953313
     40          1           0        2.782136    4.434877   -0.609435
 ---------------------------------------------------------------------

 SCF Done:  E(RHF) =  -470.732964102     A.U. after   11 cycles
 E2 =    -0.1583306650D+01 EUMP2 =    -0.47231627075153D+03

 The electronic state is 1-A.
 Alpha  occ. eigenvalues --  -11.21673 -11.21639 -11.21609 -11.21523 -11.21464
 Alpha  occ. eigenvalues --  -11.21401 -11.21372 -11.21303 -11.21160 -11.21099
 Alpha  occ. eigenvalues --  -11.21075 -11.20942  -1.08491  -1.08395  -1.03599
 Alpha  occ. eigenvalues --   -1.03478  -0.96049  -0.95932  -0.87069  -0.86951
 Alpha  occ. eigenvalues --   -0.79681  -0.79532  -0.78311  -0.78200  -0.65183
 Alpha  occ. eigenvalues --   -0.64989  -0.61059  -0.60828  -0.59427  -0.59296
 Alpha  occ. eigenvalues --   -0.57681  -0.57523  -0.55378  -0.55193  -0.52767
 Alpha  occ. eigenvalues --   -0.52628  -0.52496  -0.52310  -0.50065  -0.49818
 Alpha  occ. eigenvalues --   -0.47983  -0.47856  -0.46783  -0.46540  -0.45919
 Alpha  occ. eigenvalues --   -0.45787  -0.45713  -0.45486  -0.43825  -0.43743
 Alpha virt. eigenvalues --    0.20845   0.23031   0.23765   0.24650   0.25910
 Alpha virt. eigenvalues --    0.26626   0.26917   0.27441   0.27866   0.29187
 Alpha virt. eigenvalues --    0.30295   0.31469   0.31576   0.31813   0.32079

 Mulliken charges:
               1
     1  C   -0.298527
     2  C   -0.299913
     3  C   -0.483149
     4  H    0.149170
     5  H    0.149679
     6  H    0.152244
     7  H    0.152393
     8  H    0.155947
     9  H    0.160915
    10  H    0.161671
    11  C   -0.298349
    12  C   -0.299696
    13  C   -0.475745
    14  H    0.149693
    15  H    0.149860
    16  H    0.151964
    17  H    0.151978
    18  H    0.155254
    19  H    0.155274
    20  H    0.160396
    21  C   -0.304337
    22  C   -0.298868
    23  C   -0.480834
    24  H    0.154547
    25  H    0.149561
    26  H    0.152459
    27  H    0.151530
    28  H    0.154180
    29  H    0.161729
    30  H    0.159573
    31  C   -0.298369
    32  C   -0.299302
    33  C   -0.475702
    34  H    0.149527
    35  H    0.149798
    36  H    0.150724
    37  H    0.152068
    38  H    0.155335
    39  H    0.155203
    40  H    0.160119
 Sum of Mulliken charges =  -0.00000

 Dipole moment (field-independent basis, Debye):
    X=             -0.0453    Y=             -0.0137    Z=              0.0032  Tot=              0.0474
 Quadrupole moment (field-independent basis, Debye-Ang):
   XX=            -84.7728   YY=            -85.6436   ZZ=            -84.4115
   XY=              0.7634   XZ=             -0.8717   YZ=             -0.7300

 Normal termination of Gaussian 16 at Wed May  5 18:09:42 2021.
