 Gaussian 16, Revision A.03,
 Gaussian 16:  EM64L-G16RevA.03 25-Dec-2016

 -------------
 #p 6-31g* mp2
 -------------

 ------------------------------------------------------
 Input file generated by CHIRIPA (05-May-2021 14:55:21)
 ------------------------------------------------------
 Symbolic Z-matrix:
 Charge =  0 Multiplicity = 1

                         Standard orientation:
 ---------------------------------------------------------------------
 Center     Atomic      Atomic             Coordinates (Angstroms)
 Number     Number       Type             X           Y           Z
 ---------------------------------------------------------------------
      1          6           0        5.084096    0.902204    0.260646
      2          6           0        4.502342    0.110366    1.256174
      3          6           0        3.207569   -0.392463    1.097196
      4          6           0        2.520096   -0.082378   -0.075203
      5          6           0        3.072461    0.703809   -1.085199
      6          6           0        4.368560    1.195881   -0.904808
      7          1           0        6.090421    1.288636    0.392461
      8          1           0        5.055684   -0.119325    2.162319
      9          1           0        2.733149   -1.007898    1.851904
     10          1           0        2.496077    0.915732   -1.977548
     11          1           0        4.817838    1.810580   -1.679625
     12          7           0        1.148676   -0.609006   -0.254840
     13          8           0        0.563938   -0.321431   -1.296962
     14          8           0        0.684463   -1.299381    0.649884
     15          6           0       -3.231525   -0.579255   -0.358811
     16          6           0       -3.110543   -1.891236    0.417111
     17          6           0       -2.541833   -3.029296   -0.430935
     18          1           0       -3.870910   -0.738198   -1.237941
     19          1           0       -2.241178   -0.294150   -0.740026
     20          1           0       -4.100580   -2.173063    0.797922
     21          1           0       -2.471527   -1.729103    1.294600
     22          1           0       -1.543148   -2.773301   -0.799305
     23          1           0       -3.181456   -3.219785   -1.298804
     24          1           0       -2.463923   -3.957701    0.143393
     25          6           0       -3.798550    0.567947    0.475538
     26          6           0       -3.919531    1.879927   -0.300385
     27          6           0       -4.488241    3.017988    0.547660
     28          1           0       -4.788896    0.282841    0.856752
     29          1           0       -3.159164    0.726890    1.354667
     30          1           0       -4.558547    1.717795   -1.177875
     31          1           0       -2.929495    2.161756   -0.681197
     32          1           0       -3.848619    3.208477    1.415530
     33          1           0       -5.486926    2.761994    0.916030
     34          1           0       -4.566152    3.946394   -0.026668
 ---------------------------------------------------------------------

 SCF Done:  E(RHF) =  -669.537410702     A.U. after   15 cycles
 E2 =    -0.2092769125D+01 EUMP2 =    -0.67163017982665D+03

 The electronic state is 1-A.
 Alpha  occ. eigenvalues --  -20.61314 -20.61307 -15.86278 -11.31492 -11.28031
 Alpha  occ. eigenvalues --  -11.28028 -11.27748 -11.27008 -11.26999 -11.20515
 Alpha  occ. eigenvalues --  -11.20255 -11.20009 -11.19692 -11.19415 -11.19051
 Alpha  occ. eigenvalues --   -1.60328  -1.39887  -1.19641  -1.09068  -1.06879
 Alpha  occ. eigenvalues --   -1.05016  -1.02011  -0.95925  -0.94484  -0.86422
 Alpha  occ. eigenvalues --   -0.85510  -0.82763  -0.78168  -0.77834  -0.76599
 Alpha  occ. eigenvalues --   -0.72476  -0.71624  -0.70747  -0.65295  -0.65023
 Alpha  occ. eigenvalues --   -0.63507  -0.62363  -0.59404  -0.57938  -0.56085
 Alpha  occ. eigenvalues --   -0.55522  -0.53766  -0.53351  -0.53104  -0.51255
 Alpha  occ. eigenvalues --   -0.50909  -0.49310  -0.49237  -0.48386  -0.46454
 Alpha  occ. eigenvalues --   -0.45368  -0.45179  -0.44168  -0.43838  -0.42256
 Alpha  occ. eigenvalues --   -0.37612  -0.36610
 Alpha virt. eigenvalues --    0.04656   0.11048   0.16181   0.21183   0.24312
 Alpha virt. eigenvalues --    0.25904   0.27127   0.27957   0.28372   0.29070
 Alpha virt. eigenvalues --    0.29435   0.30800   0.32294   0.32876   0.32922

 Mulliken charges:
               1
     1  C   -0.170072
     2  C   -0.218646
     3  C   -0.170453
     4  C    0.158844
     5  C   -0.170389
     6  C   -0.218627
     7  H    0.226781
     8  H    0.224572
     9  H    0.276311
    10  H    0.276328
    11  H    0.224584
    12  N    0.488724
    13  O   -0.458233
    14  O   -0.457814
    15  C   -0.310271
    16  C   -0.294699
    17  C   -0.479182
    18  H    0.141131
    19  H    0.176835
    20  H    0.140167
    21  H    0.158269
    22  H    0.175369
    23  H    0.144619
    24  H    0.150457
    25  C   -0.296916
    26  C   -0.298578
    27  C   -0.474555
    28  H    0.143858
    29  H    0.147322
    30  H    0.149703
    31  H    0.152634
    32  H    0.152558
    33  H    0.153334
    34  H    0.156031
 Sum of Mulliken charges =  -0.00000

 Dipole moment (field-independent basis, Debye):
    X=              5.4800    Y=              1.8784    Z=              0.5891  Tot=              5.8229
 Quadrupole moment (field-independent basis, Debye-Ang):
   XX=            -71.9922   YY=            -96.5514   ZZ=            -91.2342
   XY=              4.7456   XZ=              2.1968   YZ=             -3.0535

 Normal termination of Gaussian 16 at Thu May  6 12:31:31 2021.
