 Gaussian 16, Revision A.03,
 Gaussian 16:  EM64L-G16RevA.03 25-Dec-2016

 -------------
 #p 6-31g* mp2
 -------------

 ------------------------------------------------------
 Input file generated by CHIRIPA (05-May-2021 14:51:12)
 ------------------------------------------------------
 Symbolic Z-matrix:
 Charge =  0 Multiplicity = 1

                         Standard orientation:
 ---------------------------------------------------------------------
 Center     Atomic      Atomic             Coordinates (Angstroms)
 Number     Number       Type             X           Y           Z
 ---------------------------------------------------------------------
      1          6           0        3.115641   -0.201719   -0.635995
      2          6           0        3.960205   -1.267388    0.063323
      3          6           0        4.093869   -2.549374   -0.759137
      4          1           0        2.117725   -0.611698   -0.843423
      5          1           0        3.566271    0.032053   -1.610510
      6          1           0        3.508885   -1.498077    1.036826
      7          1           0        4.956165   -0.854760    0.269282
      8          1           0        4.564777   -2.340039   -1.725069
      9          1           0        3.109274   -2.987011   -0.953164
     10          1           0        4.701459   -3.297543   -0.240545
     11          6           0        2.972828    1.085743    0.173803
     12          6           0        2.128263    2.151412   -0.525515
     13          6           0        1.994599    3.433398    0.296945
     14          1           0        2.522198    0.851971    1.148318
     15          1           0        3.970743    1.495722    0.381231
     16          1           0        1.132304    1.738784   -0.731474
     17          1           0        2.579584    2.382101   -1.499018
     18          1           0        2.979194    3.871035    0.490973
     19          1           0        1.523691    3.224063    1.262878
     20          1           0        1.387009    4.181567   -0.221647
     21          6           0       -3.699030   -0.644478   -0.106072
     22          6           0       -4.710780    0.498039   -0.200950
     23          6           0       -6.015650    0.077453   -0.877865
     24          1           0       -3.485176   -1.021175   -1.115682
     25          1           0       -4.149326   -1.478492    0.449850
     26          1           0       -4.258218    1.330183   -0.755333
     27          1           0       -4.922105    0.872186    0.808986
     28          1           0       -6.492395   -0.737032   -0.322950
     29          1           0       -5.824737   -0.276433   -1.896157
     30          1           0       -6.724507    0.909378   -0.935131
     31          6           0       -2.389439   -0.239546    0.568264
     32          6           0       -1.377688   -1.382063    0.663141
     33          6           0       -0.072819   -0.961476    1.340057
     34          1           0       -1.939143    0.594468    0.012342
     35          1           0       -2.603292    0.137151    1.577873
     36          1           0       -1.166364   -1.756211   -0.346795
     37          1           0       -1.830250   -2.214207    1.217524
     38          1           0       -0.263732   -0.607590    2.358349
     39          1           0        0.403926   -0.146992    0.785142
     40          1           0        0.636039   -1.793403    1.397323
 ---------------------------------------------------------------------

 SCF Done:  E(RHF) =  -470.731949140     A.U. after   11 cycles
 E2 =    -0.1584737694D+01 EUMP2 =    -0.47231668683446D+03

 The electronic state is 1-A.
 Alpha  occ. eigenvalues --  -11.21668 -11.21633 -11.21628 -11.21551 -11.21457
 Alpha  occ. eigenvalues --  -11.21394 -11.21334 -11.21272 -11.21094 -11.21091
 Alpha  occ. eigenvalues --  -11.21076 -11.21048  -1.08506  -1.08389  -1.03581
 Alpha  occ. eigenvalues --   -1.03517  -0.96086  -0.95913  -0.87061  -0.86977
 Alpha  occ. eigenvalues --   -0.79660  -0.79577  -0.78293  -0.78218  -0.65406
 Alpha  occ. eigenvalues --   -0.64880  -0.61036  -0.60884  -0.59374  -0.59325
 Alpha  occ. eigenvalues --   -0.57637  -0.57569  -0.55618  -0.54965  -0.52732
 Alpha  occ. eigenvalues --   -0.52650  -0.52467  -0.52354  -0.49981  -0.49876
 Alpha  occ. eigenvalues --   -0.48020  -0.47829  -0.46707  -0.46618  -0.45914
 Alpha  occ. eigenvalues --   -0.45800  -0.45670  -0.45521  -0.43824  -0.43753
 Alpha virt. eigenvalues --    0.20233   0.22847   0.23355   0.24516   0.26126
 Alpha virt. eigenvalues --    0.26257   0.27343   0.27656   0.28000   0.29947
 Alpha virt. eigenvalues --    0.30320   0.30915   0.31489   0.31843   0.32094

 Mulliken charges:
               1
     1  C   -0.299910
     2  C   -0.300970
     3  C   -0.476003
     4  H    0.152743
     5  H    0.149181
     6  H    0.153580
     7  H    0.151813
     8  H    0.155127
     9  H    0.154962
    10  H    0.160075
    11  C   -0.304992
    12  C   -0.302407
    13  C   -0.475571
    14  H    0.154232
    15  H    0.151254
    16  H    0.151411
    17  H    0.152645
    18  H    0.155469
    19  H    0.155773
    20  H    0.160087
    21  C   -0.298313
    22  C   -0.299719
    23  C   -0.475749
    24  H    0.149781
    25  H    0.149744
    26  H    0.152065
    27  H    0.152016
    28  H    0.155220
    29  H    0.155256
    30  H    0.160383
    31  C   -0.299144
    32  C   -0.300595
    33  C   -0.485656
    34  H    0.149643
    35  H    0.149956
    36  H    0.151760
    37  H    0.152339
    38  H    0.155000
    39  H    0.166119
    40  H    0.161395
 Sum of Mulliken charges =  -0.00000

 Dipole moment (field-independent basis, Debye):
    X=             -0.0102    Y=              0.0086    Z=              0.0195  Tot=              0.0236
 Quadrupole moment (field-independent basis, Debye-Ang):
   XX=            -84.9710   YY=            -85.6275   ZZ=            -84.2107
   XY=              0.4855   XZ=             -1.0471   YZ=             -0.9345

 Normal termination of Gaussian 16 at Thu May  6 00:42:34 2021.
