 Gaussian 16, Revision A.03,
 Gaussian 16:  EM64L-G16RevA.03 25-Dec-2016

 -------------
 #p 6-31g* mp2
 -------------

 ------------------------------------------------------
 Input file generated by CHIRIPA (05-May-2021 14:55:21)
 ------------------------------------------------------
 Symbolic Z-matrix:
 Charge =  0 Multiplicity = 1

                         Standard orientation:
 ---------------------------------------------------------------------
 Center     Atomic      Atomic             Coordinates (Angstroms)
 Number     Number       Type             X           Y           Z
 ---------------------------------------------------------------------
      1          6           0       -2.063904    2.345611    0.542812
      2          6           0       -3.101782    1.696405    1.219469
      3          6           0       -3.441077    0.377895    0.901731
      4          6           0       -2.718348   -0.264276   -0.102545
      5          6           0       -1.679159    0.355581   -0.794754
      6          6           0       -1.357151    1.674310   -0.460371
      7          1           0       -1.807047    3.369946    0.796104
      8          1           0       -3.652373    2.215280    1.998996
      9          1           0       -4.240044   -0.148490    1.409658
     10          1           0       -1.148403   -0.187645   -1.567167
     11          1           0       -0.550648    2.175998   -0.987539
     12          7           0       -3.068394   -1.660239   -0.447730
     13          8           0       -2.416387   -2.204054   -1.336431
     14          8           0       -3.988139   -2.184148    0.176950
     15          6           0        3.313838   -0.600372    0.458526
     16          6           0        4.253508   -1.724692    0.021595
     17          6           0        4.057848   -3.006836    0.831297
     18          1           0        3.474517   -0.390437    1.524854
     19          1           0        2.274101   -0.942014    0.360428
     20          1           0        5.291130   -1.380547    0.119177
     21          1           0        4.090709   -1.931842   -1.043863
     22          1           0        3.032904   -3.376773    0.725289
     23          1           0        4.240146   -2.822344    1.894938
     24          1           0        4.739577   -3.797350    0.502371
     25          6           0        3.497442    0.687933   -0.341652
     26          6           0        2.557772    1.812253    0.095279
     27          6           0        2.753432    3.094398   -0.714423
     28          1           0        4.537179    1.029576   -0.243554
     29          1           0        3.336763    0.478000   -1.407981
     30          1           0        2.720571    2.019404    1.160736
     31          1           0        1.520150    1.468109   -0.002304
     32          1           0        2.571134    2.909907   -1.778064
     33          1           0        3.778376    3.464335   -0.608416
     34          1           0        2.071703    3.884912   -0.385497
 ---------------------------------------------------------------------

 SCF Done:  E(RHF) =  -669.535212681     A.U. after   15 cycles
 E2 =    -0.2092129653D+01 EUMP2 =    -0.67162734233331D+03

 The electronic state is 1-A.
 Alpha  occ. eigenvalues --  -20.60807 -20.60801 -15.85860 -11.31236 -11.27810
 Alpha  occ. eigenvalues --  -11.27802 -11.27538 -11.26817 -11.26788 -11.22227
 Alpha  occ. eigenvalues --  -11.21921 -11.21829 -11.21722 -11.21615 -11.21055
 Alpha  occ. eigenvalues --   -1.59882  -1.39435  -1.19411  -1.08833  -1.08784
 Alpha  occ. eigenvalues --   -1.04821  -1.03931  -0.96381  -0.95633  -0.87392
 Alpha  occ. eigenvalues --   -0.86212  -0.82472  -0.80013  -0.78584  -0.77511
 Alpha  occ. eigenvalues --   -0.72078  -0.71205  -0.70509  -0.65533  -0.65059
 Alpha  occ. eigenvalues --   -0.64788  -0.62222  -0.61272  -0.59786  -0.57972
 Alpha  occ. eigenvalues --   -0.55673  -0.55297  -0.53170  -0.53076  -0.52892
 Alpha  occ. eigenvalues --   -0.52791  -0.50314  -0.48840  -0.48833  -0.48305
 Alpha  occ. eigenvalues --   -0.47038  -0.46124  -0.46024  -0.44838  -0.44168
 Alpha  occ. eigenvalues --   -0.37373  -0.36379
 Alpha virt. eigenvalues --    0.05004   0.11163   0.16387   0.19965   0.22908
 Alpha virt. eigenvalues --    0.23806   0.26107   0.26762   0.27071   0.28345
 Alpha virt. eigenvalues --    0.28956   0.30609   0.31126   0.31586   0.32029

 Mulliken charges:
               1
     1  C   -0.172364
     2  C   -0.218447
     3  C   -0.170608
     4  C    0.158862
     5  C   -0.173040
     6  C   -0.218166
     7  H    0.226134
     8  H    0.223715
     9  H    0.275833
    10  H    0.275512
    11  H    0.228887
    12  N    0.488101
    13  O   -0.460607
    14  O   -0.460158
    15  C   -0.299034
    16  C   -0.300004
    17  C   -0.476625
    18  H    0.150081
    19  H    0.151424
    20  H    0.151467
    21  H    0.153055
    22  H    0.159168
    23  H    0.154616
    24  H    0.161294
    25  C   -0.297944
    26  C   -0.307187
    27  C   -0.477909
    28  H    0.151082
    29  H    0.148888
    30  H    0.154274
    31  H    0.151023
    32  H    0.153780
    33  H    0.160947
    34  H    0.153949
 Sum of Mulliken charges =  -0.00000

 Dipole moment (field-independent basis, Debye):
    X=              1.2708    Y=              4.8500    Z=              1.2654  Tot=              5.1710
 Quadrupole moment (field-independent basis, Debye-Ang):
   XX=            -98.3760   YY=            -98.8980   ZZ=            -92.8524
   XY=            -13.8163   XZ=             -5.8905   YZ=              0.0305

 Normal termination of Gaussian 16 at Thu May  6 07:44:34 2021.
