 Gaussian 16, Revision A.03,
 Gaussian 16:  EM64L-G16RevA.03 25-Dec-2016

 -------------
 #p 6-31g* mp2
 -------------

 ------------------------------------------------------
 Input file generated by CHIRIPA (05-May-2021 14:57:25)
 ------------------------------------------------------
 Symbolic Z-matrix:
 Charge =  0 Multiplicity = 1

                         Standard orientation:
 ---------------------------------------------------------------------
 Center     Atomic      Atomic             Coordinates (Angstroms)
 Number     Number       Type             X           Y           Z
 ---------------------------------------------------------------------
      1          6           0        6.265411   -1.132349    0.445019
      2          6           0        6.328256    0.241891    0.191967
      3          6           0        5.161868    0.972925   -0.052321
      4          6           0        3.944081    0.294682   -0.035913
      5          6           0        3.848786   -1.073610    0.213053
      6          6           0        5.028058   -1.784564    0.454738
      7          1           0        7.176493   -1.692434    0.633777
      8          1           0        7.287812    0.751039    0.183798
      9          1           0        5.181685    2.037607   -0.251010
     10          1           0        2.877618   -1.553452    0.214642
     11          1           0        4.976229   -2.851734    0.650969
     12          7           0        2.702458    1.057966   -0.293151
     13          8           0        1.641942    0.437046   -0.273161
     14          8           0        2.813301    2.262696   -0.509893
     15          6           0       -6.543813    0.490447    0.434777
     16          6           0       -6.239798   -0.813919    0.031386
     17          6           0       -4.916283   -1.190357   -0.215894
     18          6           0       -3.917166   -0.232626   -0.049143
     19          6           0       -4.188181    1.074752    0.351610
     20          6           0       -5.518841    1.428966    0.593323
     21          1           0       -7.574727    0.774240    0.624707
     22          1           0       -7.033763   -1.544881   -0.092555
     23          1           0       -4.652792   -2.193267   -0.529204
     24          1           0       -3.375191    1.781325    0.466596
     25          1           0       -5.751994    2.442675    0.906494
     26          7           0       -2.512237   -0.619380   -0.307980
     27          8           0       -1.650188    0.243030   -0.153841
     28          8           0       -2.299705   -1.777603   -0.660093
 ---------------------------------------------------------------------

 SCF Done:  E(RHF) =  -868.335194984     A.U. after   16 cycles
 E2 =    -0.2600106145D+01 EUMP2 =    -0.87093530112884D+03

 The electronic state is 1-A.
 Alpha  occ. eigenvalues --  -20.59805 -20.59688 -20.59611 -20.59484 -15.84801
 Alpha  occ. eigenvalues --  -15.84596 -11.30479 -11.30302 -11.27115 -11.27053
 Alpha  occ. eigenvalues --  -11.26951 -11.26904 -11.26865 -11.26749 -11.26195
 Alpha  occ. eigenvalues --  -11.26158 -11.26038 -11.25992  -1.58828  -1.58637
 Alpha  occ. eigenvalues --   -1.38370  -1.38172  -1.18688  -1.18517  -1.08028
 Alpha  occ. eigenvalues --   -1.07857  -1.04135  -1.03966  -0.94810  -0.94620
 Alpha  occ. eigenvalues --   -0.85519  -0.85350  -0.81640  -0.81434  -0.76629
 Alpha  occ. eigenvalues --   -0.76437  -0.71108  -0.70652  -0.70182  -0.69989
 Alpha  occ. eigenvalues --   -0.69795  -0.69624  -0.64331  -0.64164  -0.64131
 Alpha  occ. eigenvalues --   -0.63976  -0.61475  -0.61302  -0.54635  -0.54474
 Alpha  occ. eigenvalues --   -0.52453  -0.52287  -0.52231  -0.52061  -0.47902
 Alpha  occ. eigenvalues --   -0.47784  -0.47574  -0.47400  -0.43723  -0.43495
 Alpha  occ. eigenvalues --   -0.36694  -0.36531  -0.35754  -0.35587
 Alpha virt. eigenvalues --    0.05901   0.06098   0.11895   0.12061   0.17334
 Alpha virt. eigenvalues --    0.17523   0.21991   0.22153   0.27883   0.28046
 Alpha virt. eigenvalues --    0.28921   0.29099   0.31517   0.31676   0.33204

 Mulliken charges:
               1
     1  C   -0.172033
     2  C   -0.218837
     3  C   -0.171940
     4  C    0.158118
     5  C   -0.172095
     6  C   -0.219016
     7  H    0.222472
     8  H    0.220247
     9  H    0.273558
    10  H    0.282013
    11  H    0.221867
    12  N    0.486340
    13  O   -0.442170
    14  O   -0.468800
    15  C   -0.171908
    16  C   -0.218679
    17  C   -0.171848
    18  C    0.158513
    19  C   -0.171626
    20  C   -0.218765
    21  H    0.223113
    22  H    0.220766
    23  H    0.273646
    24  H    0.279431
    25  H    0.222170
    26  N    0.486231
    27  O   -0.442763
    28  O   -0.468008
 Sum of Mulliken charges =  -0.00000

 Dipole moment (field-independent basis, Debye):
    X=             -0.6534    Y=             -1.2836    Z=              1.8102  Tot=              2.3133
 Quadrupole moment (field-independent basis, Debye-Ang):
   XX=            -34.1883   YY=           -100.0112   ZZ=           -106.4686
   XY=            -10.0690   XZ=              0.1016   YZ=              0.8130

 Normal termination of Gaussian 16 at Thu May  6 01:57:35 2021.
