 Gaussian 16, Revision A.03,
 Gaussian 16:  EM64L-G16RevA.03 25-Dec-2016

 -------------
 #p 6-31g* mp2
 -------------

 ------------------------------------------------------
 Input file generated by CHIRIPA (05-May-2021 14:55:23)
 ------------------------------------------------------
 Symbolic Z-matrix:
 Charge =  0 Multiplicity = 1

                         Standard orientation:
 ---------------------------------------------------------------------
 Center     Atomic      Atomic             Coordinates (Angstroms)
 Number     Number       Type             X           Y           Z
 ---------------------------------------------------------------------
      1          6           0        2.988648   -2.251247   -0.640256
      2          6           0        2.057167   -1.638582   -1.484949
      3          6           0        1.757400   -0.280247   -1.344899
      4          6           0        2.410734    0.438576   -0.345030
      5          6           0        3.343522   -0.143281    0.512081
      6          6           0        3.627726   -1.502960    0.353811
      7          1           0        3.215469   -3.306956   -0.756126
      8          1           0        1.559315   -2.217240   -2.257828
      9          1           0        1.040453    0.219254   -1.985136
     10          1           0        3.823623    0.459588    1.273310
     11          1           0        4.351564   -1.976123    1.011246
     12          7           0        2.101622    1.877296   -0.187121
     13          8           0        2.690873    2.488600    0.701545
     14          8           0        1.275943    2.366418   -0.955009
     15          6           0       -2.571551   -0.000822    0.901165
     16          6           0       -1.495604   -1.055638    1.161335
     17          6           0       -0.343110   -0.526330    2.015375
     18          1           0       -2.113842    0.866062    0.405224
     19          1           0       -2.962087    0.359494    1.862960
     20          1           0       -1.108190   -1.414858    0.199312
     21          1           0       -1.955965   -1.920192    1.656541
     22          1           0       -0.709991   -0.185588    2.988974
     23          1           0        0.142600    0.322617    1.523465
     24          1           0        0.414632   -1.296737    2.189048
     25          6           0       -3.730348   -0.514909    0.048737
     26          6           0       -4.806296    0.539905   -0.211434
     27          6           0       -5.958790    0.010599   -1.065474
     28          1           0       -3.339812   -0.875226   -0.913058
     29          1           0       -4.188057   -1.381794    0.544677
     30          1           0       -4.345936    1.404460   -0.706640
     31          1           0       -5.193710    0.899125    0.750589
     32          1           0       -6.444500   -0.838349   -0.573564
     33          1           0       -5.591908   -0.330144   -2.039072
     34          1           0       -6.716531    0.781005   -1.239146
 ---------------------------------------------------------------------

 SCF Done:  E(RHF) =  -669.535049096     A.U. after   15 cycles
 E2 =    -0.2093631530D+01 EUMP2 =    -0.67162868062608D+03

 The electronic state is 1-A.
 Alpha  occ. eigenvalues --  -20.60860 -20.60851 -15.85899 -11.31211 -11.27820
 Alpha  occ. eigenvalues --  -11.27793 -11.27562 -11.26842 -11.26824 -11.21532
 Alpha  occ. eigenvalues --  -11.21428 -11.21281 -11.21147 -11.20962 -11.20942
 Alpha  occ. eigenvalues --   -1.59935  -1.39486  -1.19420  -1.08826  -1.08291
 Alpha  occ. eigenvalues --   -1.04821  -1.03408  -0.95857  -0.95657  -0.86876
 Alpha  occ. eigenvalues --   -0.86219  -0.82491  -0.79476  -0.78097  -0.77539
 Alpha  occ. eigenvalues --   -0.72122  -0.71285  -0.70529  -0.65075  -0.64928
 Alpha  occ. eigenvalues --   -0.64826  -0.62170  -0.60834  -0.59230  -0.57465
 Alpha  occ. eigenvalues --   -0.55336  -0.55231  -0.53140  -0.52914  -0.52451
 Alpha  occ. eigenvalues --   -0.52277  -0.49787  -0.48881  -0.48877  -0.47791
 Alpha  occ. eigenvalues --   -0.46522  -0.45643  -0.45566  -0.44886  -0.43658
 Alpha  occ. eigenvalues --   -0.37341  -0.36392
 Alpha virt. eigenvalues --    0.04961   0.11206   0.16438   0.21245   0.22894
 Alpha virt. eigenvalues --    0.24264   0.26498   0.27199   0.27707   0.27998
 Alpha virt. eigenvalues --    0.28415   0.30687   0.31413   0.31867   0.32015

 Mulliken charges:
               1
     1  C   -0.170754
     2  C   -0.217902
     3  C   -0.170563
     4  C    0.156524
     5  C   -0.169477
     6  C   -0.218603
     7  H    0.225977
     8  H    0.223784
     9  H    0.275309
    10  H    0.275984
    11  H    0.223782
    12  N    0.491057
    13  O   -0.459329
    14  O   -0.461204
    15  C   -0.301436
    16  C   -0.299838
    17  C   -0.474191
    18  H    0.158176
    19  H    0.150514
    20  H    0.146486
    21  H    0.149796
    22  H    0.156443
    23  H    0.155040
    24  H    0.157161
    25  C   -0.297182
    26  C   -0.300272
    27  C   -0.475511
    28  H    0.145398
    29  H    0.148016
    30  H    0.155529
    31  H    0.152619
    32  H    0.154071
    33  H    0.153727
    34  H    0.160870
 Sum of Mulliken charges =  -0.00000

 Dipole moment (field-independent basis, Debye):
    X=              1.1772    Y=             -4.9935    Z=             -0.5458  Tot=              5.1593
 Quadrupole moment (field-independent basis, Debye-Ang):
   XX=            -88.3704   YY=            -99.8792   ZZ=            -91.5335
   XY=            -12.0952   XZ=              0.1425   YZ=              1.4811

 Normal termination of Gaussian 16 at Wed May  5 20:42:59 2021.
