 Gaussian 16, Revision A.03,
 Gaussian 16:  EM64L-G16RevA.03 25-Dec-2016

 -------------
 #p 6-31g* mp2
 -------------

 ------------------------------------------------------
 Input file generated by CHIRIPA (05-May-2021 14:53:13)
 ------------------------------------------------------
 Symbolic Z-matrix:
 Charge =  0 Multiplicity = 1

                         Standard orientation:
 ---------------------------------------------------------------------
 Center     Atomic      Atomic             Coordinates (Angstroms)
 Number     Number       Type             X           Y           Z
 ---------------------------------------------------------------------
      1          6           0        2.948827    0.745811   -0.302111
      2          6           0        2.994917   -0.781760   -0.350988
      3          6           0        4.389486   -1.321188   -0.670343
      4          1           0        3.286800    1.147563   -1.267158
      5          1           0        3.662954    1.103279    0.452630
      6          1           0        2.279914   -1.136301   -1.104438
      7          1           0        2.656613   -1.179925    0.614223
      8          1           0        5.110957   -0.995739    0.086072
      9          1           0        4.732118   -0.951867   -1.642354
     10          1           0        4.399609   -2.415198   -0.700331
     11          6           0        1.561320    1.300165    0.016075
     12          6           0        1.515230    2.827735    0.064951
     13          6           0        0.120661    3.367164    0.384307
     14          1           0        0.847193    0.942696   -0.738666
     15          1           0        1.223347    0.898413    0.981122
     16          1           0        1.853534    3.225901   -0.900259
     17          1           0        2.230232    3.182276    0.818402
     18          1           0       -0.221972    2.997843    1.356318
     19          1           0       -0.600811    3.041715   -0.372108
     20          1           0        0.110538    4.461174    0.414295
     21          6           0        0.023580   -2.291195    1.087645
     22          6           0       -0.407257   -2.484228   -0.229032
     23          6           0       -1.395856   -1.663556   -0.780135
     24          6           0       -1.934378   -0.654969    0.017385
     25          6           0       -1.526116   -0.437590    1.332436
     26          6           0       -0.536238   -1.270292    1.862811
     27          1           0        0.792045   -2.933385    1.507704
     28          1           0        0.025726   -3.276284   -0.833366
     29          1           0       -1.747918   -1.790888   -1.796627
     30          1           0       -1.976485    0.360316    1.910304
     31          1           0       -0.203586   -1.118062    2.885656
     32          7           0       -2.981641    0.220207   -0.555070
     33          8           0       -3.440248    1.101726    0.168283
     34          8           0       -3.324048    0.008080   -1.716275
 ---------------------------------------------------------------------

 SCF Done:  E(RHF) =  -669.533071401     A.U. after   15 cycles
 E2 =    -0.2097039686D+01 EUMP2 =    -0.67163011108700D+03

 The electronic state is 1-A.
 Alpha  occ. eigenvalues --  -20.60823 -20.60806 -15.85864 -11.31211 -11.27815
 Alpha  occ. eigenvalues --  -11.27789 -11.27528 -11.26800 -11.26775 -11.21974
 Alpha  occ. eigenvalues --  -11.21588 -11.21531 -11.21523 -11.21323 -11.20859
 Alpha  occ. eigenvalues --   -1.59889  -1.39442  -1.19412  -1.08829  -1.08554
 Alpha  occ. eigenvalues --   -1.04823  -1.03683  -0.96112  -0.95639  -0.87127
 Alpha  occ. eigenvalues --   -0.86212  -0.82476  -0.79774  -0.78399  -0.77514
 Alpha  occ. eigenvalues --   -0.72082  -0.71210  -0.70529  -0.65231  -0.65063
 Alpha  occ. eigenvalues --   -0.64822  -0.62165  -0.61091  -0.59537  -0.57736
 Alpha  occ. eigenvalues --   -0.55410  -0.55312  -0.53425  -0.52916  -0.52726
 Alpha  occ. eigenvalues --   -0.52466  -0.50060  -0.48843  -0.48839  -0.48120
 Alpha  occ. eigenvalues --   -0.46822  -0.45912  -0.45720  -0.44825  -0.43909
 Alpha  occ. eigenvalues --   -0.37247  -0.36299
 Alpha virt. eigenvalues --    0.04985   0.11079   0.16341   0.20629   0.23028
 Alpha virt. eigenvalues --    0.23633   0.25919   0.27067   0.27384   0.27688
 Alpha virt. eigenvalues --    0.28333   0.30460   0.31230   0.31590   0.32205

 Mulliken charges:
               1
     1  C   -0.298134
     2  C   -0.298551
     3  C   -0.475363
     4  H    0.150616
     5  H    0.147986
     6  H    0.151691
     7  H    0.144122
     8  H    0.155641
     9  H    0.157612
    10  H    0.154938
    11  C   -0.301023
    12  C   -0.300074
    13  C   -0.475115
    14  H    0.150889
    15  H    0.149261
    16  H    0.152420
    17  H    0.149146
    18  H    0.149419
    19  H    0.162522
    20  H    0.161684
    21  C   -0.164612
    22  C   -0.215891
    23  C   -0.173679
    24  C    0.160482
    25  C   -0.166701
    26  C   -0.220888
    27  H    0.225994
    28  H    0.223751
    29  H    0.275609
    30  H    0.276098
    31  H    0.223083
    32  N    0.487367
    33  O   -0.459521
    34  O   -0.460782
 Sum of Mulliken charges =  -0.00000

 Dipole moment (field-independent basis, Debye):
    X=              3.5437    Y=             -3.0773    Z=              1.9986  Tot=              5.1012
 Quadrupole moment (field-independent basis, Debye-Ang):
   XX=           -111.1780   YY=            -90.1999   ZZ=            -90.2153
   XY=              3.9087   XZ=             -3.7656   YZ=              0.7943

 Normal termination of Gaussian 16 at Thu May  6 01:01:37 2021.
