 Gaussian 16, Revision A.03,
 Gaussian 16:  EM64L-G16RevA.03 25-Dec-2016

 -------------
 #p 6-31g* mp2
 -------------

 ------------------------------------------------------
 Input file generated by CHIRIPA (05-May-2021 14:53:11)
 ------------------------------------------------------
 Symbolic Z-matrix:
 Charge =  0 Multiplicity = 1

                         Standard orientation:
 ---------------------------------------------------------------------
 Center     Atomic      Atomic             Coordinates (Angstroms)
 Number     Number       Type             X           Y           Z
 ---------------------------------------------------------------------
      1          6           0        2.917117   -0.176309    0.165430
      2          6           0        3.910219   -1.206957   -0.372621
      3          6           0        3.597921   -2.628876    0.094723
      4          1           0        2.920276   -0.211918    1.263459
      5          1           0        1.902782   -0.453581   -0.153377
      6          1           0        4.922538   -0.927063   -0.054055
      7          1           0        3.904836   -1.168758   -1.469493
      8          1           0        2.599367   -2.932475   -0.235910
      9          1           0        3.622852   -2.689407    1.187570
     10          1           0        4.320165   -3.349435   -0.301532
     11          6           0        3.216099    1.249914   -0.293074
     12          6           0        2.222997    2.280562    0.244978
     13          6           0        2.535295    3.702480   -0.222366
     14          1           0        4.230434    1.527186    0.025734
     15          1           0        3.212940    1.285522   -1.391103
     16          1           0        2.228380    2.242362    1.341850
     17          1           0        1.210678    2.000667   -0.073588
     18          1           0        2.510364    3.763011   -1.315214
     19          1           0        3.533849    4.006079    0.108267
     20          1           0        1.813051    4.423040    0.173889
     21          6           0       -4.492834    0.959749   -0.207687
     22          6           0       -3.975019    0.261806   -1.303709
     23          6           0       -2.813711   -0.505472   -1.172575
     24          6           0       -2.193053   -0.552705    0.074760
     25          6           0       -2.684468    0.131417    1.185515
     26          6           0       -3.847044    0.892446    1.031243
     27          1           0       -5.395459    1.553361   -0.318541
     28          1           0       -4.474444    0.312242   -2.267076
     29          1           0       -2.391221   -1.055726   -2.004523
     30          1           0       -2.164438    0.061822    2.133219
     31          1           0       -4.246920    1.433436    1.884163
     32          7           0       -0.962957   -1.361680    0.225833
     33          8           0       -0.434880   -1.386984    1.335397
     34          8           0       -0.550174   -1.955132   -0.768180
 ---------------------------------------------------------------------

 SCF Done:  E(RHF) =  -669.536507143     A.U. after   15 cycles
 E2 =    -0.2092550708D+01 EUMP2 =    -0.67162905785082D+03

 The electronic state is 1-A.
 Alpha  occ. eigenvalues --  -20.61069 -20.61064 -15.86057 -11.31361 -11.27915
 Alpha  occ. eigenvalues --  -11.27908 -11.27643 -11.26908 -11.26897 -11.20985
 Alpha  occ. eigenvalues --  -11.20641 -11.20449 -11.20252 -11.19894 -11.19412
 Alpha  occ. eigenvalues --   -1.60109  -1.39662  -1.19519  -1.08930  -1.07351
 Alpha  occ. eigenvalues --   -1.04907  -1.02475  -0.95775  -0.94909  -0.86309
 Alpha  occ. eigenvalues --   -0.85924  -0.82612  -0.78616  -0.77672  -0.77060
 Alpha  occ. eigenvalues --   -0.72274  -0.71427  -0.70625  -0.65172  -0.64910
 Alpha  occ. eigenvalues --   -0.63989  -0.62253  -0.59879  -0.58359  -0.56499
 Alpha  occ. eigenvalues --   -0.55413  -0.54186  -0.53242  -0.52997  -0.51673
 Alpha  occ. eigenvalues --   -0.51302  -0.49108  -0.49049  -0.48822  -0.46890
 Alpha  occ. eigenvalues --   -0.45668  -0.45119  -0.44549  -0.44403  -0.42709
 Alpha  occ. eigenvalues --   -0.37491  -0.36505
 Alpha virt. eigenvalues --    0.04814   0.11150   0.16321   0.21286   0.23796
 Alpha virt. eigenvalues --    0.25463   0.27214   0.27566   0.28076   0.28545
 Alpha virt. eigenvalues --    0.29057   0.30939   0.32334   0.32469   0.32546

 Mulliken charges:
               1
     1  C   -0.301450
     2  C   -0.297972
     3  C   -0.479628
     4  H    0.150525
     5  H    0.164908
     6  H    0.144627
     7  H    0.147792
     8  H    0.175464
     9  H    0.153207
    10  H    0.151155
    11  C   -0.298223
    12  C   -0.296692
    13  C   -0.474699
    14  H    0.145954
    15  H    0.146477
    16  H    0.151848
    17  H    0.146153
    18  H    0.153606
    19  H    0.154806
    20  H    0.155735
    21  C   -0.170294
    22  C   -0.218617
    23  C   -0.170911
    24  C    0.159487
    25  C   -0.170389
    26  C   -0.218629
    27  H    0.226311
    28  H    0.224066
    29  H    0.275852
    30  H    0.276323
    31  H    0.224167
    32  N    0.485990
    33  O   -0.455826
    34  O   -0.461122
 Sum of Mulliken charges =  -0.00000

 Dipole moment (field-independent basis, Debye):
    X=             -4.6827    Y=              2.6781    Z=             -0.4612  Tot=              5.4141
 Quadrupole moment (field-independent basis, Debye-Ang):
   XX=            -77.1186   YY=            -99.9970   ZZ=            -89.5941
   XY=             -4.1264   XZ=              1.8480   YZ=              2.3842

 Normal termination of Gaussian 16 at Thu May  6 05:40:31 2021.
