 Gaussian 16, Revision A.03,
 Gaussian 16:  EM64L-G16RevA.03 25-Dec-2016

 -------------
 #p 6-31g* mp2
 -------------

 ------------------------------------------------------
 Input file generated by CHIRIPA (05-May-2021 14:55:23)
 ------------------------------------------------------
 Symbolic Z-matrix:
 Charge =  0 Multiplicity = 1

                         Standard orientation:
 ---------------------------------------------------------------------
 Center     Atomic      Atomic             Coordinates (Angstroms)
 Number     Number       Type             X           Y           Z
 ---------------------------------------------------------------------
      1          6           0       -2.833594   -1.858281    0.890240
      2          6           0       -1.664771   -1.275005    1.390403
      3          6           0       -1.310005    0.027748    1.027741
      4          6           0       -2.150960    0.721562    0.159001
      5          6           0       -3.322006    0.167877   -0.356143
      6          6           0       -3.657030   -1.136251    0.020098
      7          1           0       -3.101517   -2.870825    1.177239
      8          1           0       -1.023380   -1.833379    2.066333
      9          1           0       -0.410893    0.503518    1.400108
     10          1           0       -3.941354    0.749404   -1.028194
     11          1           0       -4.565357   -1.586692   -0.369890
     12          7           0       -1.785835    2.101456   -0.232120
     13          8           0       -2.543621    2.691675   -0.998957
     14          8           0       -0.748778    2.566670    0.235562
     15          6           0        2.255508   -0.823248   -0.751555
     16          6           0        1.575209   -2.137784   -0.367921
     17          6           0        0.427416   -2.505919   -1.308581
     18          1           0        1.508269   -0.017906   -0.753259
     19          1           0        2.633796   -0.900821   -1.780280
     20          1           0        1.199533   -2.058242    0.660261
     21          1           0        2.324191   -2.940056   -0.366944
     22          1           0        0.790406   -2.612579   -2.335937
     23          1           0       -0.340642   -1.725755   -1.302897
     24          1           0       -0.044730   -3.448953   -1.015962
     25          6           0        3.405002   -0.441747    0.179490
     26          6           0        4.085301    0.872789   -0.204145
     27          6           0        5.233094    1.240923    0.736515
     28          1           0        3.026713   -0.364174    1.208215
     29          1           0        4.152240   -1.247089    0.181194
     30          1           0        3.336319    1.675061   -0.205121
     31          1           0        4.460976    0.793248   -1.232326
     32          1           0        6.001152    0.460760    0.730832
     33          1           0        4.870103    1.347584    1.763872
     34          1           0        5.705239    2.183958    0.443897
 ---------------------------------------------------------------------

 SCF Done:  E(RHF) =  -669.534601891     A.U. after   15 cycles
 E2 =    -0.2094928655D+01 EUMP2 =    -0.67162953054578D+03

 The electronic state is 1-A.
 Alpha  occ. eigenvalues --  -20.60901 -20.60895 -15.85945 -11.31312 -11.27861
 Alpha  occ. eigenvalues --  -11.27838 -11.27569 -11.26872 -11.26834 -11.21880
 Alpha  occ. eigenvalues --  -11.21446 -11.21392 -11.21344 -11.21197 -11.20879
 Alpha  occ. eigenvalues --   -1.59968  -1.39522  -1.19480  -1.08864  -1.08466
 Alpha  occ. eigenvalues --   -1.04881  -1.03534  -0.95987  -0.95699  -0.87009
 Alpha  occ. eigenvalues --   -0.86262  -0.82535  -0.79625  -0.78260  -0.77587
 Alpha  occ. eigenvalues --   -0.72160  -0.71291  -0.70565  -0.65193  -0.65071
 Alpha  occ. eigenvalues --   -0.64871  -0.62227  -0.60971  -0.59375  -0.57597
 Alpha  occ. eigenvalues --   -0.55425  -0.55338  -0.53127  -0.52951  -0.52668
 Alpha  occ. eigenvalues --   -0.52366  -0.49886  -0.48920  -0.48918  -0.47917
 Alpha  occ. eigenvalues --   -0.46646  -0.45809  -0.45719  -0.44900  -0.43806
 Alpha  occ. eigenvalues --   -0.37429  -0.36406
 Alpha virt. eigenvalues --    0.04916   0.11073   0.16342   0.19989   0.22976
 Alpha virt. eigenvalues --    0.24323   0.25491   0.26661   0.27368   0.28366
 Alpha virt. eigenvalues --    0.29319   0.30542   0.31457   0.31693   0.32361

 Mulliken charges:
               1
     1  C   -0.170515
     2  C   -0.213785
     3  C   -0.173088
     4  C    0.158445
     5  C   -0.171773
     6  C   -0.217854
     7  H    0.226205
     8  H    0.224493
     9  H    0.276220
    10  H    0.276107
    11  H    0.224173
    12  N    0.488470
    13  O   -0.459218
    14  O   -0.461314
    15  C   -0.303502
    16  C   -0.298255
    17  C   -0.476455
    18  H    0.155625
    19  H    0.152101
    20  H    0.139128
    21  H    0.152319
    22  H    0.155918
    23  H    0.162816
    24  H    0.152605
    25  C   -0.296903
    26  C   -0.302490
    27  C   -0.475614
    28  H    0.143384
    29  H    0.148781
    30  H    0.162280
    31  H    0.152035
    32  H    0.153133
    33  H    0.154394
    34  H    0.162135
 Sum of Mulliken charges =  -0.00000

 Dipole moment (field-independent basis, Debye):
    X=             -1.3822    Y=             -4.7320    Z=              1.3143  Tot=              5.1019
 Quadrupole moment (field-independent basis, Debye-Ang):
   XX=            -86.1552   YY=           -102.5620   ZZ=            -93.3040
   XY=              9.1390   XZ=             -1.6182   YZ=              0.0037

 Normal termination of Gaussian 16 at Thu May  6 11:01:52 2021.
