 Gaussian 16, Revision A.03,
 Gaussian 16:  EM64L-G16RevA.03 25-Dec-2016

 -------------
 #p 6-31g* mp2
 -------------

 ------------------------------------------------------
 Input file generated by CHIRIPA (05-May-2021 14:51:13)
 ------------------------------------------------------
 Symbolic Z-matrix:
 Charge =  0 Multiplicity = 1

                         Standard orientation:
 ---------------------------------------------------------------------
 Center     Atomic      Atomic             Coordinates (Angstroms)
 Number     Number       Type             X           Y           Z
 ---------------------------------------------------------------------
      1          6           0        4.589278    0.370150   -0.251042
      2          6           0        5.090937   -1.018249   -0.649378
      3          6           0        6.590903   -1.042543   -0.944852
      4          1           0        4.817158    1.080662   -1.057385
      5          1           0        5.143779    0.712881    0.633525
      6          1           0        4.534692   -1.358843   -1.532103
      7          1           0        4.861665   -1.725576    0.157925
      8          1           0        7.161933   -0.727790   -0.065388
      9          1           0        6.833101   -0.358974   -1.765019
     10          1           0        6.928214   -2.044620   -1.227561
     11          6           0        3.091620    0.410550    0.047480
     12          6           0        2.589962    1.798949    0.445817
     13          6           0        1.089996    1.823244    0.741290
     14          1           0        2.537119    0.067819   -0.837087
     15          1           0        2.863741   -0.299961    0.853823
     16          1           0        2.819233    2.506276   -0.361487
     17          1           0        3.146207    2.139544    1.328541
     18          1           0        0.847797    1.139674    1.561457
     19          1           0        0.518966    1.508491   -0.138173
     20          1           0        0.752684    2.825320    1.023999
     21          6           0       -4.245410    0.052923   -0.370392
     22          6           0       -5.717515   -0.349200   -0.466254
     23          6           0       -6.514564    0.546934   -1.414649
     24          1           0       -4.178144    1.096645   -0.034143
     25          1           0       -3.796948    0.017992   -1.372918
     26          1           0       -6.162714   -0.314857    0.536359
     27          1           0       -5.781280   -1.392146   -0.802130
     28          1           0       -6.097108    0.505313   -2.425885
     29          1           0       -6.480710    1.588723   -1.079790
     30          1           0       -7.564248    0.241705   -1.468117
     31          6           0       -3.435488   -0.833624    0.573955
     32          6           0       -1.963384   -0.431501    0.669816
     33          6           0       -1.166335   -1.327634    1.618210
     34          1           0       -3.883951   -0.798692    1.576479
     35          1           0       -3.502754   -1.877346    0.237705
     36          1           0       -1.899619    0.611445    1.005693
     37          1           0       -1.518184   -0.465844   -0.332798
     38          1           0       -1.200188   -2.369423    1.283351
     39          1           0       -1.583790   -1.286013    2.629447
     40          1           0       -0.116650   -1.022406    1.671679
 ---------------------------------------------------------------------

 SCF Done:  E(RHF) =  -470.732567763     A.U. after   11 cycles
 E2 =    -0.1583395143D+01 EUMP2 =    -0.47231596290572D+03

 The electronic state is 1-A.
 Alpha  occ. eigenvalues --  -11.21602 -11.21583 -11.21573 -11.21499 -11.21414
 Alpha  occ. eigenvalues --  -11.21357 -11.21355 -11.21293 -11.21072 -11.21051
 Alpha  occ. eigenvalues --  -11.20996 -11.20983  -1.08438  -1.08373  -1.03564
 Alpha  occ. eigenvalues --   -1.03439  -0.96031  -0.95877  -0.87003  -0.86941
 Alpha  occ. eigenvalues --   -0.79656  -0.79485  -0.78280  -0.78152  -0.65070
 Alpha  occ. eigenvalues --   -0.65005  -0.60967  -0.60845  -0.59497  -0.59224
 Alpha  occ. eigenvalues --   -0.57832  -0.57286  -0.55308  -0.55182  -0.52721
 Alpha  occ. eigenvalues --   -0.52663  -0.52444  -0.52198  -0.49920  -0.49872
 Alpha  occ. eigenvalues --   -0.47925  -0.47812  -0.46630  -0.46543  -0.45843
 Alpha  occ. eigenvalues --   -0.45740  -0.45639  -0.45607  -0.43788  -0.43709
 Alpha virt. eigenvalues --    0.21542   0.23059   0.23435   0.25064   0.25785
 Alpha virt. eigenvalues --    0.26625   0.26638   0.27466   0.27943   0.29325
 Alpha virt. eigenvalues --    0.30157   0.31058   0.31394   0.31778   0.32115

 Mulliken charges:
               1
     1  C   -0.298226
     2  C   -0.299663
     3  C   -0.475718
     4  H    0.149785
     5  H    0.149598
     6  H    0.151885
     7  H    0.152067
     8  H    0.155207
     9  H    0.155158
    10  H    0.160274
    11  C   -0.299100
    12  C   -0.300500
    13  C   -0.480370
    14  H    0.149454
    15  H    0.149748
    16  H    0.151744
    17  H    0.151581
    18  H    0.159407
    19  H    0.158920
    20  H    0.159369
    21  C   -0.298176
    22  C   -0.299566
    23  C   -0.475667
    24  H    0.149697
    25  H    0.149109
    26  H    0.151889
    27  H    0.151859
    28  H    0.155056
    29  H    0.155150
    30  H    0.160150
    31  C   -0.298432
    32  C   -0.299933
    33  C   -0.480170
    34  H    0.149242
    35  H    0.149233
    36  H    0.155843
    37  H    0.151062
    38  H    0.154817
    39  H    0.154349
    40  H    0.163867
 Sum of Mulliken charges =  -0.00000

 Dipole moment (field-independent basis, Debye):
    X=              0.0113    Y=              0.0188    Z=             -0.0002  Tot=              0.0219
 Quadrupole moment (field-independent basis, Debye-Ang):
   XX=            -86.5106   YY=            -84.7630   ZZ=            -83.6948
   XY=              0.3271   XZ=             -0.2001   YZ=              0.6293

 Normal termination of Gaussian 16 at Wed May  5 19:58:40 2021.
