 Gaussian 16, Revision A.03,
 Gaussian 16:  EM64L-G16RevA.03 25-Dec-2016

 -------------
 #p 6-31g* mp2
 -------------

 ------------------------------------------------------
 Input file generated by CHIRIPA (05-May-2021 14:57:22)
 ------------------------------------------------------
 Symbolic Z-matrix:
 Charge =  0 Multiplicity = 1

                         Standard orientation:
 ---------------------------------------------------------------------
 Center     Atomic      Atomic             Coordinates (Angstroms)
 Number     Number       Type             X           Y           Z
 ---------------------------------------------------------------------
      1          6           0        2.080258   -0.480059    0.953552
      2          6           0        2.498415    0.851137    0.855650
      3          6           0        3.765999    1.162157    0.354606
      4          6           0        4.593400    0.112362   -0.041156
      5          6           0        4.205555   -1.223902    0.044079
      6          6           0        2.933658   -1.511511    0.548169
      7          1           0        1.093893   -0.712574    1.343958
      8          1           0        1.837768    1.654223    1.169724
      9          1           0        4.115113    2.183935    0.267953
     10          1           0        4.886402   -2.002887   -0.276930
     11          1           0        2.611573   -2.546256    0.623063
     12          7           0        5.937617    0.429233   -0.573201
     13          8           0        6.647747   -0.513849   -0.915179
     14          8           0        6.255632    1.614679   -0.638167
     15          6           0       -6.561177    1.104867   -0.510819
     16          6           0       -6.393993   -0.238008   -0.864737
     17          6           0       -5.185285   -0.893624   -0.612265
     18          6           0       -4.160201   -0.172766   -0.001646
     19          6           0       -4.296124    1.165898    0.362761
     20          6           0       -5.513555    1.801307    0.100722
     21          1           0       -7.503519    1.606315   -0.710660
     22          1           0       -7.205861   -0.781367   -1.339790
     23          1           0       -5.028815   -1.932593   -0.875854
     24          1           0       -3.468601    1.681255    0.835024
     25          1           0       -5.640558    2.844268    0.376669
     26          7           0       -2.875978   -0.856141    0.270699
     27          8           0       -1.988253   -0.198867    0.809747
     28          8           0       -2.781447   -2.036103   -0.060043
 ---------------------------------------------------------------------

 SCF Done:  E(RHF) =  -868.340664587     A.U. after   16 cycles
 E2 =    -0.2598012401D+01 EUMP2 =    -0.87093867698827D+03

 The electronic state is 1-A.
 Alpha  occ. eigenvalues --  -20.61859 -20.61841 -20.60013 -20.60007 -15.86869
 Alpha  occ. eigenvalues --  -15.85062 -11.31938 -11.30195 -11.28484 -11.28454
 Alpha  occ. eigenvalues --  -11.28147 -11.27417 -11.27399 -11.26782 -11.26763
 Alpha  occ. eigenvalues --  -11.26201 -11.25645 -11.25614  -1.60905  -1.59096
 Alpha  occ. eigenvalues --   -1.40468  -1.38656  -1.20079  -1.18334  -1.09528
 Alpha  occ. eigenvalues --   -1.07717  -1.05437  -1.03722  -0.96415  -0.94596
 Alpha  occ. eigenvalues --   -0.86849  -0.85098  -0.83262  -0.81460  -0.78340
 Alpha  occ. eigenvalues --   -0.76586  -0.73117  -0.72195  -0.71283  -0.71182
 Alpha  occ. eigenvalues --   -0.70419  -0.69290  -0.65736  -0.65436  -0.63961
 Alpha  occ. eigenvalues --   -0.63700  -0.62790  -0.61092  -0.55945  -0.54022
 Alpha  occ. eigenvalues --   -0.53779  -0.53524  -0.52048  -0.51794  -0.49872
 Alpha  occ. eigenvalues --   -0.49829  -0.48052  -0.48016  -0.45934  -0.44115
 Alpha  occ. eigenvalues --   -0.38036  -0.37026  -0.36218  -0.35357
 Alpha virt. eigenvalues --    0.04182   0.05968   0.10634   0.12324   0.15741
 Alpha virt. eigenvalues --    0.17546   0.20798   0.22667   0.26729   0.27652
 Alpha virt. eigenvalues --    0.28343   0.29673   0.30424   0.31844   0.32415

 Mulliken charges:
               1
     1  C   -0.174585
     2  C   -0.220998
     3  C   -0.172471
     4  C    0.156618
     5  C   -0.171994
     6  C   -0.220783
     7  H    0.249633
     8  H    0.221918
     9  H    0.271310
    10  H    0.272356
    11  H    0.224512
    12  N    0.488372
    13  O   -0.463032
    14  O   -0.463793
    15  C   -0.169641
    16  C   -0.218460
    17  C   -0.170109
    18  C    0.157933
    19  C   -0.170236
    20  C   -0.218361
    21  H    0.228223
    22  H    0.225860
    23  H    0.276602
    24  H    0.273622
    25  H    0.225347
    26  N    0.490976
    27  O   -0.471098
    28  O   -0.457720
 Sum of Mulliken charges =  -0.00000

 Dipole moment (field-independent basis, Debye):
    X=             -9.9304    Y=              1.2040    Z=              0.9326  Tot=             10.0465
 Quadrupole moment (field-independent basis, Debye-Ang):
   XX=           -111.4116   YY=            -97.7190   ZZ=           -105.6478
   XY=            -14.6568   XZ=             14.0581   YZ=              3.0584

 Normal termination of Gaussian 16 at Fri May  7 07:52:56 2021.
