 Gaussian 16, Revision A.03,
 Gaussian 16:  EM64L-G16RevA.03 25-Dec-2016

 -------------
 #p 6-31g* mp2
 -------------

 ------------------------------------------------------
 Input file generated by CHIRIPA (05-May-2021 14:57:22)
 ------------------------------------------------------
 Symbolic Z-matrix:
 Charge =  0 Multiplicity = 1

                         Standard orientation:
 ---------------------------------------------------------------------
 Center     Atomic      Atomic             Coordinates (Angstroms)
 Number     Number       Type             X           Y           Z
 ---------------------------------------------------------------------
      1          6           0        1.631892   -0.520919    1.515257
      2          6           0        1.605796   -0.643000    0.122082
      3          6           0        2.753325   -0.387823   -0.634628
      4          6           0        3.914985   -0.010934    0.037526
      5          6           0        3.972641    0.119349    1.424246
      6          6           0        2.813148   -0.140804    2.160755
      7          1           0        0.735817   -0.721079    2.095241
      8          1           0        0.689828   -0.938033   -0.381904
      9          1           0        2.761056   -0.474701   -1.714355
     10          1           0        4.900591    0.415235    1.898354
     11          1           0        2.836342   -0.045194    3.242589
     12          7           0        5.136155    0.261845   -0.752876
     13          8           0        6.147027    0.592380   -0.136823
     14          8           0        5.059314    0.139948   -1.973479
     15          6           0       -3.961875    2.563208   -0.034747
     16          6           0       -5.060948    1.736492    0.220401
     17          6           0       -4.935022    0.345926    0.149576
     18          6           0       -3.689731   -0.186508   -0.180657
     19          6           0       -2.576036    0.610702   -0.440333
     20          6           0       -2.725108    1.998670   -0.363720
     21          1           0       -4.068687    3.642425    0.022520
     22          1           0       -6.022646    2.172142    0.476114
     23          1           0       -5.769421   -0.317446    0.342279
     24          1           0       -1.630104    0.147158   -0.692835
     25          1           0       -1.869828    2.638261   -0.562377
     26          7           0       -3.544167   -1.657263   -0.258700
     27          8           0       -2.436310   -2.101627   -0.551666
     28          8           0       -4.540689   -2.337826   -0.025427
 ---------------------------------------------------------------------

 SCF Done:  E(RHF) =  -868.338564249     A.U. after   16 cycles
 E2 =    -0.2599423377D+01 EUMP2 =    -0.87093798762613D+03

 The electronic state is 1-A.
 Alpha  occ. eigenvalues --  -20.61689 -20.61644 -20.60760 -20.60755 -15.86710
 Alpha  occ. eigenvalues --  -15.85813 -11.31980 -11.31167 -11.28592 -11.28473
 Alpha  occ. eigenvalues --  -11.28184 -11.27746 -11.27730 -11.27500 -11.27463
 Alpha  occ. eigenvalues --  -11.27445 -11.26740 -11.26693  -1.60732  -1.59836
 Alpha  occ. eigenvalues --   -1.40294  -1.39390  -1.20124  -1.19338  -1.09524
 Alpha  occ. eigenvalues --   -1.08726  -1.05511  -1.04737  -0.96384  -0.95563
 Alpha  occ. eigenvalues --   -0.86914  -0.86127  -0.83219  -0.82395  -0.78305
 Alpha  occ. eigenvalues --   -0.77447  -0.72929  -0.72050  -0.72029  -0.71228
 Alpha  occ. eigenvalues --   -0.71161  -0.70420  -0.65772  -0.65525  -0.64981
 Alpha  occ. eigenvalues --   -0.64715  -0.62884  -0.62048  -0.55985  -0.55206
 Alpha  occ. eigenvalues --   -0.53841  -0.53617  -0.53069  -0.52786  -0.49701
 Alpha  occ. eigenvalues --   -0.49657  -0.48786  -0.48786  -0.45717  -0.44798
 Alpha  occ. eigenvalues --   -0.38076  -0.37319  -0.37103  -0.36352
 Alpha virt. eigenvalues --    0.04228   0.05082   0.10524   0.11229   0.15772
 Alpha virt. eigenvalues --    0.16549   0.19450   0.21826   0.25033   0.27097
 Alpha virt. eigenvalues --    0.28323   0.28814   0.30063   0.30985   0.32044

 Mulliken charges:
               1
     1  C   -0.172472
     2  C   -0.232258
     3  C   -0.172102
     4  C    0.158470
     5  C   -0.171202
     6  C   -0.219057
     7  H    0.228926
     8  H    0.237867
     9  H    0.276257
    10  H    0.275353
    11  H    0.223323
    12  N    0.487995
    13  O   -0.460734
    14  O   -0.460377
    15  C   -0.170246
    16  C   -0.218253
    17  C   -0.170033
    18  C    0.157798
    19  C   -0.174940
    20  C   -0.220428
    21  H    0.228748
    22  H    0.226237
    23  H    0.277400
    24  H    0.272408
    25  H    0.227295
    26  N    0.488900
    27  O   -0.469820
    28  O   -0.455053
 Sum of Mulliken charges =  -0.00000

 Dipole moment (field-independent basis, Debye):
    X=             -5.0782    Y=              4.2837    Z=              3.1082  Tot=              7.3348
 Quadrupole moment (field-independent basis, Debye-Ang):
   XX=           -128.3175   YY=           -107.4878   ZZ=           -101.8340
   XY=            -22.1472   XZ=             10.8704   YZ=             -0.2689

 Normal termination of Gaussian 16 at Thu May  6 06:33:29 2021.
