 Gaussian 16, Revision A.03,
 Gaussian 16:  EM64L-G16RevA.03 25-Dec-2016

 -------------
 #p 6-31g* mp2
 -------------

 ------------------------------------------------------
 Input file generated by CHIRIPA (05-May-2021 14:53:18)
 ------------------------------------------------------
 Symbolic Z-matrix:
 Charge =  0 Multiplicity = 1

                         Standard orientation:
 ---------------------------------------------------------------------
 Center     Atomic      Atomic             Coordinates (Angstroms)
 Number     Number       Type             X           Y           Z
 ---------------------------------------------------------------------
      1          6           0       -3.916284    0.100573   -0.281283
      2          6           0       -4.764505   -0.238930    0.944785
      3          6           0       -5.901689   -1.210122    0.626363
      4          1           0       -4.562273    0.532155   -1.058058
      5          1           0       -3.501304   -0.826885   -0.699623
      6          1           0       -5.176635    0.689030    1.361505
      7          1           0       -4.116388   -0.669577    1.718803
      8          1           0       -5.505382   -2.151174    0.231443
      9          1           0       -6.571653   -0.784848   -0.127885
     10          1           0       -6.495257   -1.439131    1.516921
     11          6           0       -2.775377    1.070442    0.021065
     12          6           0       -1.927156    1.409945   -1.205004
     13          6           0       -0.789971    2.381137   -0.886581
     14          1           0       -3.190357    1.997900    0.439405
     15          1           0       -2.129387    0.638860    0.797839
     16          1           0       -2.575273    1.840593   -1.979021
     17          1           0       -1.515026    0.481985   -1.621723
     18          1           0       -0.120007    1.955863   -0.132333
     19          1           0       -1.186278    3.322190   -0.491662
     20          1           0       -0.196404    2.610146   -1.777139
     21          6           0        4.813303    0.614102    0.718499
     22          6           0        3.703399    0.761324    1.556926
     23          6           0        2.479807    0.172009    1.225143
     24          6           0        2.401302   -0.561020    0.042013
     25          6           0        3.489135   -0.725812   -0.813997
     26          6           0        4.702824   -0.127688   -0.462205
     27          1           0        5.759971    1.075317    0.984008
     28          1           0        3.786280    1.336850    2.474502
     29          1           0        1.604682    0.270003    1.855991
     30          1           0        3.375751   -1.305405   -1.722091
     31          1           0        5.563126   -0.243698   -1.115250
     32          7           0        1.111183   -1.189563   -0.319823
     33          8           0        1.067994   -1.830397   -1.367727
     34          8           0        0.167605   -1.029479    0.451325
 ---------------------------------------------------------------------

 SCF Done:  E(RHF) =  -669.536625879     A.U. after   15 cycles
 E2 =    -0.2093045172D+01 EUMP2 =    -0.67162967105099D+03

 The electronic state is 1-A.
 Alpha  occ. eigenvalues --  -20.61103 -20.61097 -15.86104 -11.31361 -11.27914
 Alpha  occ. eigenvalues --  -11.27904 -11.27634 -11.26906 -11.26897 -11.20603
 Alpha  occ. eigenvalues --  -11.20428 -11.20332 -11.20217 -11.20168 -11.20049
 Alpha  occ. eigenvalues --   -1.60143  -1.39704  -1.19519  -1.08936  -1.07265
 Alpha  occ. eigenvalues --   -1.04905  -1.02528  -0.95790  -0.95003  -0.86313
 Alpha  occ. eigenvalues --   -0.86028  -0.82631  -0.78590  -0.77701  -0.77063
 Alpha  occ. eigenvalues --   -0.72344  -0.71468  -0.70629  -0.65185  -0.64909
 Alpha  occ. eigenvalues --   -0.63829  -0.62257  -0.59902  -0.58379  -0.56624
 Alpha  occ. eigenvalues --   -0.55413  -0.54293  -0.53233  -0.52997  -0.51757
 Alpha  occ. eigenvalues --   -0.51450  -0.49214  -0.49096  -0.48819  -0.46932
 Alpha  occ. eigenvalues --   -0.45599  -0.45178  -0.44583  -0.44396  -0.42733
 Alpha  occ. eigenvalues --   -0.37481  -0.36494
 Alpha virt. eigenvalues --    0.04788   0.11072   0.16272   0.21155   0.24016
 Alpha virt. eigenvalues --    0.24979   0.26864   0.27521   0.28376   0.28762
 Alpha virt. eigenvalues --    0.28917   0.30767   0.31641   0.32509   0.32800

 Mulliken charges:
               1
     1  C   -0.299263
     2  C   -0.299332
     3  C   -0.475350
     4  H    0.143834
     5  H    0.159731
     6  H    0.147104
     7  H    0.154217
     8  H    0.157012
     9  H    0.152651
    10  H    0.156522
    11  C   -0.300258
    12  C   -0.300093
    13  C   -0.478924
    14  H    0.139725
    15  H    0.165649
    16  H    0.145834
    17  H    0.165710
    18  H    0.150893
    19  H    0.150946
    20  H    0.155434
    21  C   -0.170309
    22  C   -0.218457
    23  C   -0.171084
    24  C    0.159658
    25  C   -0.170563
    26  C   -0.218391
    27  H    0.226341
    28  H    0.224347
    29  H    0.275658
    30  H    0.275933
    31  H    0.224107
    32  N    0.491782
    33  O   -0.458430
    34  O   -0.462636
 Sum of Mulliken charges =  -0.00000

 Dipole moment (field-independent basis, Debye):
    X=              4.8491    Y=              1.9487    Z=              1.2912  Tot=              5.3832
 Quadrupole moment (field-independent basis, Debye-Ang):
   XX=            -73.7619   YY=            -97.7608   ZZ=            -91.4459
   XY=              1.4019   XZ=              1.4950   YZ=              1.2522

 Normal termination of Gaussian 16 at Wed May  5 23:39:28 2021.
