 Gaussian 16, Revision A.03,
 Gaussian 16:  EM64L-G16RevA.03 25-Dec-2016

 -------------
 #p 6-31g* mp2
 -------------

 ------------------------------------------------------
 Input file generated by CHIRIPA (05-May-2021 14:51:11)
 ------------------------------------------------------
 Symbolic Z-matrix:
 Charge =  0 Multiplicity = 1

                         Standard orientation:
 ---------------------------------------------------------------------
 Center     Atomic      Atomic             Coordinates (Angstroms)
 Number     Number       Type             X           Y           Z
 ---------------------------------------------------------------------
      1          6           0       -2.952754    0.407112   -0.560695
      2          6           0       -2.780538   -1.101291   -0.742482
      3          6           0       -3.963246   -1.748667   -1.463524
      4          1           0       -3.876666    0.599091    0.001868
      5          1           0       -3.083688    0.875554   -1.545994
      6          1           0       -2.648585   -1.566577    0.242766
      7          1           0       -1.856830   -1.289709   -1.304512
      8          1           0       -4.093766   -1.311576   -2.458771
      9          1           0       -4.890020   -1.590016   -0.902702
     10          1           0       -3.819261   -2.827045   -1.582809
     11          6           0       -1.778507    1.068601    0.158543
     12          6           0       -1.950723    2.577005    0.340330
     13          6           0       -0.768015    3.224381    1.061371
     14          1           0       -1.647573    0.600160    1.143842
     15          1           0       -0.854596    0.876623   -0.404020
     16          1           0       -2.874431    2.765423    0.902359
     17          1           0       -2.082676    3.042290   -0.644918
     18          1           0        0.158759    3.065730    0.500549
     19          1           0       -0.637495    2.787290    2.056619
     20          1           0       -0.912000    4.302759    1.180656
     21          6           0        1.889983   -0.786713    0.796730
     22          6           0        1.078041   -2.082170    0.819677
     23          6           0        0.131080   -2.165185    2.017245
     24          1           0        2.466739   -0.706399    1.728315
     25          1           0        1.201212    0.069285    0.780750
     26          1           0        1.768142   -2.935496    0.834212
     27          1           0        0.503299   -2.159504   -0.112153
     28          1           0       -0.580178   -1.332992    2.004360
     29          1           0        0.691851   -2.113393    2.956103
     30          1           0       -0.439451   -3.099178    2.013928
     31          6           0        2.841278   -0.689000   -0.394578
     32          6           0        3.653220    0.606456   -0.417525
     33          6           0        4.600181    0.689471   -1.615092
     34          1           0        3.530050   -1.544998   -0.378597
     35          1           0        2.264522   -0.769315   -1.326162
     36          1           0        4.227963    0.683791    0.514305
     37          1           0        2.963119    1.459782   -0.432061
     38          1           0        4.039411    0.637680   -2.553951
     39          1           0        5.311441   -0.142722   -1.602208
     40          1           0        5.170712    1.623464   -1.611776
 ---------------------------------------------------------------------

 SCF Done:  E(RHF) =  -470.732346109     A.U. after   11 cycles
 E2 =    -0.1585472468D+01 EUMP2 =    -0.47231781857711D+03

 The electronic state is 1-A.
 Alpha  occ. eigenvalues --  -11.21686 -11.21639 -11.21592 -11.21499 -11.21495
 Alpha  occ. eigenvalues --  -11.21430 -11.21348 -11.21229 -11.21151 -11.21107
 Alpha  occ. eigenvalues --  -11.21066 -11.20970  -1.08543  -1.08348  -1.03602
 Alpha  occ. eigenvalues --   -1.03475  -0.96054  -0.95929  -0.87070  -0.86948
 Alpha  occ. eigenvalues --   -0.79690  -0.79535  -0.78441  -0.78099  -0.65184
 Alpha  occ. eigenvalues --   -0.64990  -0.60997  -0.60893  -0.59452  -0.59273
 Alpha  occ. eigenvalues --   -0.57701  -0.57501  -0.55434  -0.55151  -0.52735
 Alpha  occ. eigenvalues --   -0.52628  -0.52484  -0.52360  -0.50034  -0.49876
 Alpha  occ. eigenvalues --   -0.48038  -0.47908  -0.46778  -0.46610  -0.46243
 Alpha  occ. eigenvalues --   -0.45710  -0.45587  -0.45120  -0.43856  -0.43723
 Alpha virt. eigenvalues --    0.20034   0.22126   0.23429   0.23876   0.25040
 Alpha virt. eigenvalues --    0.26074   0.26676   0.28160   0.28877   0.29732
 Alpha virt. eigenvalues --    0.30667   0.31245   0.31681   0.31833   0.32217

 Mulliken charges:
               1
     1  C   -0.297823
     2  C   -0.304945
     3  C   -0.475626
     4  H    0.149889
     5  H    0.149568
     6  H    0.156935
     7  H    0.153043
     8  H    0.155103
     9  H    0.155329
    10  H    0.160535
    11  C   -0.306808
    12  C   -0.299006
    13  C   -0.477549
    14  H    0.154593
    15  H    0.152420
    16  H    0.152364
    17  H    0.152119
    18  H    0.155698
    19  H    0.155999
    20  H    0.160974
    21  C   -0.305414
    22  C   -0.301373
    23  C   -0.481268
    24  H    0.149015
    25  H    0.157682
    26  H    0.151346
    27  H    0.154674
    28  H    0.160900
    29  H    0.154310
    30  H    0.159296
    31  C   -0.298297
    32  C   -0.300015
    33  C   -0.475636
    34  H    0.149564
    35  H    0.148294
    36  H    0.152351
    37  H    0.151368
    38  H    0.154824
    39  H    0.155331
    40  H    0.160235
 Sum of Mulliken charges =  -0.00000

 Dipole moment (field-independent basis, Debye):
    X=             -0.0640    Y=              0.0351    Z=              0.0057  Tot=              0.0732
 Quadrupole moment (field-independent basis, Debye-Ang):
   XX=            -85.1573   YY=            -85.0062   ZZ=            -84.6365
   XY=             -0.8679   XZ=              0.1558   YZ=             -0.4573

 Normal termination of Gaussian 16 at Wed May  5 21:28:18 2021.
