 Gaussian 16, Revision A.03,
 Gaussian 16:  EM64L-G16RevA.03 25-Dec-2016

 -------------
 #p 6-31g* mp2
 -------------

 ------------------------------------------------------
 Input file generated by CHIRIPA (05-May-2021 14:53:17)
 ------------------------------------------------------
 Symbolic Z-matrix:
 Charge =  0 Multiplicity = 1

                         Standard orientation:
 ---------------------------------------------------------------------
 Center     Atomic      Atomic             Coordinates (Angstroms)
 Number     Number       Type             X           Y           Z
 ---------------------------------------------------------------------
      1          6           0        3.299363    0.672723   -0.011183
      2          6           0        2.954046    1.820532   -0.960539
      3          6           0        1.656936    2.534046   -0.578181
      4          1           0        2.471126   -0.049002   -0.002163
      5          1           0        3.383354    1.064915    1.011816
      6          1           0        2.872093    1.426531   -1.981648
      7          1           0        3.783284    2.539512   -0.967446
      8          1           0        1.731071    2.953987    0.430161
      9          1           0        0.814702    1.834682   -0.589803
     10          1           0        1.429140    3.350962   -1.270003
     11          6           0        4.593443   -0.050326   -0.380354
     12          6           0        4.938760   -1.198134    0.569002
     13          6           0        6.235870   -1.911648    0.186645
     14          1           0        4.509452   -0.442517   -1.403352
     15          1           0        5.421680    0.671399   -0.389374
     16          1           0        4.109522   -1.917114    0.575910
     17          1           0        5.020713   -0.804133    1.590111
     18          1           0        7.078104   -1.212285    0.198266
     19          1           0        6.161735   -2.331589   -0.821698
     20          1           0        6.463666   -2.728564    0.878466
     21          6           0       -0.710516    0.077090    0.949249
     22          6           0       -0.966018   -0.663185   -0.209730
     23          6           0       -2.276656   -0.847066   -0.660247
     24          6           0       -3.312502   -0.274081    0.075960
     25          6           0       -3.090143    0.468715    1.234451
     26          6           0       -1.771523    0.639685    1.666376
     27          1           0        0.310719    0.214919    1.292000
     28          1           0       -0.143993   -1.101256   -0.768669
     29          1           0       -2.502873   -1.415538   -1.554162
     30          1           0       -3.930299    0.893266    1.770467
     31          1           0       -1.576075    1.215077    2.566803
     32          7           0       -4.704241   -0.461914   -0.391140
     33          8           0       -5.599330    0.053136    0.275325
     34          8           0       -4.873644   -1.120631   -1.414875
 ---------------------------------------------------------------------

 SCF Done:  E(RHF) =  -669.534382450     A.U. after   15 cycles
 E2 =    -0.2093222933D+01 EUMP2 =    -0.67162760538282D+03

 The electronic state is 1-A.
 Alpha  occ. eigenvalues --  -20.60748 -20.60743 -15.85804 -11.31167 -11.27766
 Alpha  occ. eigenvalues --  -11.27754 -11.27428 -11.26760 -11.26728 -11.22601
 Alpha  occ. eigenvalues --  -11.22485 -11.22426 -11.22280 -11.21812 -11.21725
 Alpha  occ. eigenvalues --   -1.59825  -1.39378  -1.19357  -1.09399  -1.08746
 Alpha  occ. eigenvalues --   -1.04761  -1.04376  -0.96832  -0.95580  -0.87842
 Alpha  occ. eigenvalues --   -0.86160  -0.82419  -0.80446  -0.79252  -0.77457
 Alpha  occ. eigenvalues --   -0.72023  -0.71149  -0.70471  -0.66045  -0.65001
 Alpha  occ. eigenvalues --   -0.64755  -0.62121  -0.61749  -0.60203  -0.58465
 Alpha  occ. eigenvalues --   -0.56158  -0.55255  -0.53468  -0.53439  -0.52929
 Alpha  occ. eigenvalues --   -0.52846  -0.50759  -0.48791  -0.48777  -0.48719
 Alpha  occ. eigenvalues --   -0.47477  -0.46737  -0.46686  -0.44785  -0.44663
 Alpha  occ. eigenvalues --   -0.37243  -0.36369
 Alpha virt. eigenvalues --    0.05067   0.11195   0.16521   0.19402   0.22474
 Alpha virt. eigenvalues --    0.23914   0.24858   0.25971   0.27108   0.27872
 Alpha virt. eigenvalues --    0.29294   0.30034   0.30784   0.31407   0.31532

 Mulliken charges:
               1
     1  C   -0.302663
     2  C   -0.299318
     3  C   -0.485223
     4  H    0.139271
     5  H    0.149465
     6  H    0.153713
     7  H    0.155887
     8  H    0.151539
     9  H    0.160820
    10  H    0.165671
    11  C   -0.298229
    12  C   -0.300174
    13  C   -0.476226
    14  H    0.151362
    15  H    0.153716
    16  H    0.149469
    17  H    0.152435
    18  H    0.157015
    19  H    0.156440
    20  H    0.162398
    21  C   -0.173029
    22  C   -0.222324
    23  C   -0.170314
    24  C    0.157962
    25  C   -0.170398
    26  C   -0.220080
    27  H    0.235038
    28  H    0.223591
    29  H    0.275607
    30  H    0.275678
    31  H    0.223844
    32  N    0.488112
    33  O   -0.460448
    34  O   -0.460606
 Sum of Mulliken charges =  -0.00000

 Dipole moment (field-independent basis, Debye):
    X=              5.0696    Y=              0.7007    Z=              1.6205  Tot=              5.3682
 Quadrupole moment (field-independent basis, Debye-Ang):
   XX=           -126.9431   YY=            -94.0805   ZZ=            -91.4036
   XY=             -3.7139   XZ=             -6.3193   YZ=              2.2491

 Normal termination of Gaussian 16 at Thu May  6 02:48:19 2021.
