 Gaussian 16, Revision A.03,
 Gaussian 16:  EM64L-G16RevA.03 25-Dec-2016

 -------------
 #p 6-31g* mp2
 -------------

 ------------------------------------------------------
 Input file generated by CHIRIPA (05-May-2021 14:55:22)
 ------------------------------------------------------
 Symbolic Z-matrix:
 Charge =  0 Multiplicity = 1

                         Standard orientation:
 ---------------------------------------------------------------------
 Center     Atomic      Atomic             Coordinates (Angstroms)
 Number     Number       Type             X           Y           Z
 ---------------------------------------------------------------------
      1          6           0        2.126443    2.006417   -0.955991
      2          6           0        3.401455    1.695816   -1.440133
      3          6           0        4.068598    0.549184   -0.998879
      4          6           0        3.428344   -0.268254   -0.068740
      5          6           0        2.158547    0.014239    0.432363
      6          6           0        1.510145    1.166119   -0.022934
      7          1           0        1.615470    2.899187   -1.304222
      8          1           0        3.882505    2.346574   -2.164805
      9          1           0        5.056137    0.284932   -1.357148
     10          1           0        1.704567   -0.653738    1.154254
     11          1           0        0.520003    1.404842    0.354790
     12          7           0        4.124698   -1.484920    0.405829
     13          8           0        3.539059   -2.188816    1.225702
     14          8           0        5.242955   -1.711608   -0.051064
     15          6           0       -3.948232    0.415109    0.812317
     16          6           0       -2.704246    1.257195    0.527062
     17          6           0       -2.129371    1.907713    1.785688
     18          1           0       -4.713057    1.049431    1.280958
     19          1           0       -3.695396   -0.363168    1.545635
     20          1           0       -2.959007    2.032785   -0.206541
     21          1           0       -1.942364    0.620840    0.058871
     22          1           0       -1.847685    1.145241    2.519097
     23          1           0       -2.870105    2.565209    2.252177
     24          1           0       -1.240708    2.504933    1.558824
     25          6           0       -4.534523   -0.241712   -0.436113
     26          6           0       -5.778510   -1.083799   -0.150857
     27          6           0       -6.353384   -1.734317   -1.409484
     28          1           0       -4.787360    0.536563   -1.169431
     29          1           0       -3.769698   -0.876034   -0.904753
     30          1           0       -6.540391   -0.447444    0.317333
     31          1           0       -5.523747   -1.859390    0.582745
     32          1           0       -5.612650   -2.391813   -1.875974
     33          1           0       -6.635070   -0.971845   -2.142893
     34          1           0       -7.242047   -2.331536   -1.182619
 ---------------------------------------------------------------------

 SCF Done:  E(RHF) =  -669.535365781     A.U. after   15 cycles
 E2 =    -0.2091388413D+01 EUMP2 =    -0.67162675419340D+03

 The electronic state is 1-A.
 Alpha  occ. eigenvalues --  -20.60732 -20.60727 -15.85784 -11.31138 -11.27708
 Alpha  occ. eigenvalues --  -11.27695 -11.27439 -11.26723 -11.26650 -11.22593
 Alpha  occ. eigenvalues --  -11.22178 -11.22080 -11.21996 -11.21891 -11.21379
 Alpha  occ. eigenvalues --   -1.59808  -1.39362  -1.19306  -1.09095  -1.08703
 Alpha  occ. eigenvalues --   -1.04710  -1.04226  -0.96671  -0.95542  -0.87683
 Alpha  occ. eigenvalues --   -0.86106  -0.82374  -0.80306  -0.78856  -0.77426
 Alpha  occ. eigenvalues --   -0.72003  -0.71130  -0.70419  -0.65747  -0.64957
 Alpha  occ. eigenvalues --   -0.64750  -0.62173  -0.61553  -0.60045  -0.58264
 Alpha  occ. eigenvalues --   -0.55935  -0.55200  -0.53436  -0.53152  -0.53035
 Alpha  occ. eigenvalues --   -0.52636  -0.50592  -0.48760  -0.48758  -0.48616
 Alpha  occ. eigenvalues --   -0.47329  -0.46402  -0.46291  -0.44770  -0.44462
 Alpha  occ. eigenvalues --   -0.37288  -0.36306
 Alpha virt. eigenvalues --    0.05105   0.11300   0.16567   0.19751   0.22598
 Alpha virt. eigenvalues --    0.23799   0.25904   0.26311   0.26914   0.28096
 Alpha virt. eigenvalues --    0.29135   0.30429   0.30776   0.31106   0.31817

 Mulliken charges:
               1
     1  C   -0.173534
     2  C   -0.218383
     3  C   -0.171310
     4  C    0.158980
     5  C   -0.174366
     6  C   -0.228938
     7  H    0.225619
     8  H    0.223142
     9  H    0.275383
    10  H    0.275353
    11  H    0.240958
    12  N    0.488086
    13  O   -0.460653
    14  O   -0.460643
    15  C   -0.298299
    16  C   -0.305334
    17  C   -0.481801
    18  H    0.152017
    19  H    0.152139
    20  H    0.153475
    21  H    0.149137
    22  H    0.159179
    23  H    0.163225
    24  H    0.152095
    25  C   -0.299141
    26  C   -0.300357
    27  C   -0.476179
    28  H    0.149630
    29  H    0.151027
    30  H    0.152506
    31  H    0.153582
    32  H    0.156347
    33  H    0.155161
    34  H    0.161898
 Sum of Mulliken charges =  -0.00000

 Dipole moment (field-independent basis, Debye):
    X=             -2.6927    Y=              4.2625    Z=             -1.6477  Tot=              5.3042
 Quadrupole moment (field-independent basis, Debye-Ang):
   XX=           -107.9130   YY=            -97.0997   ZZ=            -93.8896
   XY=             15.7156   XZ=             -8.7761   YZ=             -1.1679

 Normal termination of Gaussian 16 at Wed May  5 22:16:42 2021.
