 Gaussian 16, Revision A.03,
 Gaussian 16:  EM64L-G16RevA.03 25-Dec-2016

 -------------
 #p 6-31g* mp2
 -------------

 ------------------------------------------------------
 Input file generated by CHIRIPA (05-May-2021 14:53:13)
 ------------------------------------------------------
 Symbolic Z-matrix:
 Charge =  0 Multiplicity = 1

                         Standard orientation:
 ---------------------------------------------------------------------
 Center     Atomic      Atomic             Coordinates (Angstroms)
 Number     Number       Type             X           Y           Z
 ---------------------------------------------------------------------
      1          6           0       -4.394376    0.222172    0.436501
      2          6           0       -5.274944    0.596322   -0.756225
      3          6           0       -6.368721    1.600537   -0.391538
      4          1           0       -5.025355   -0.194141    1.233680
      5          1           0       -3.935558    1.133335    0.844745
      6          1           0       -5.730874   -0.315443   -1.162955
      7          1           0       -4.641772    1.011616   -1.550731
      8          1           0       -5.928966    2.526030   -0.005949
      9          1           0       -7.024257    1.191431    0.384031
     10          1           0       -6.986366    1.854014   -1.258789
     11          6           0       -3.296262   -0.780946    0.087750
     12          6           0       -2.415694   -1.155095    1.280477
     13          6           0       -1.321917   -2.159310    0.915789
     14          1           0       -3.755080   -1.692109   -0.320493
     15          1           0       -2.665283   -0.364632   -0.709429
     16          1           0       -3.048866   -1.570389    2.074982
     17          1           0       -1.959764   -0.243330    1.687206
     18          1           0       -0.666381   -1.750205    0.140220
     19          1           0       -1.761672   -3.084804    0.530200
     20          1           0       -0.704272   -2.412787    1.783040
     21          6           0        2.586823   -2.185881   -0.846512
     22          6           0        1.689771   -1.189252   -1.244692
     23          6           0        1.910972    0.146119   -0.894831
     24          6           0        3.044501    0.450695   -0.142746
     25          6           0        3.956719   -0.519661    0.269029
     26          6           0        3.715446   -1.848499   -0.092253
     27          1           0        2.407193   -3.220691   -1.122729
     28          1           0        0.812430   -1.448347   -1.830516
     29          1           0        1.232792    0.937625   -1.189802
     30          1           0        4.822469   -0.230620    0.852425
     31          1           0        4.413815   -2.620403    0.218373
     32          7           0        3.289302    1.860935    0.233681
     33          8           0        4.295395    2.103295    0.896761
     34          8           0        2.470448    2.697217   -0.141482
 ---------------------------------------------------------------------

 SCF Done:  E(RHF) =  -669.534807064     A.U. after   15 cycles
 E2 =    -0.2092112877D+01 EUMP2 =    -0.67162691994049D+03

 The electronic state is 1-A.
 Alpha  occ. eigenvalues --  -20.60800 -20.60795 -15.85854 -11.31229 -11.27802
 Alpha  occ. eigenvalues --  -11.27791 -11.27529 -11.26811 -11.26801 -11.21917
 Alpha  occ. eigenvalues --  -11.21797 -11.21762 -11.21592 -11.21457 -11.21185
 Alpha  occ. eigenvalues --   -1.59875  -1.39429  -1.19407  -1.08799  -1.08711
 Alpha  occ. eigenvalues --   -1.04822  -1.03798  -0.96262  -0.95626  -0.87289
 Alpha  occ. eigenvalues --   -0.86207  -0.82467  -0.79871  -0.78531  -0.77512
 Alpha  occ. eigenvalues --   -0.72073  -0.71198  -0.70499  -0.65360  -0.65057
 Alpha  occ. eigenvalues --   -0.64829  -0.62191  -0.61185  -0.59624  -0.57873
 Alpha  occ. eigenvalues --   -0.55616  -0.55289  -0.53240  -0.52952  -0.52903
 Alpha  occ. eigenvalues --   -0.52579  -0.50178  -0.48833  -0.48827  -0.48182
 Alpha  occ. eigenvalues --   -0.46895  -0.46077  -0.45985  -0.44832  -0.44058
 Alpha  occ. eigenvalues --   -0.37352  -0.36358
 Alpha virt. eigenvalues --    0.05017   0.11170   0.16423   0.20709   0.22741
 Alpha virt. eigenvalues --    0.24073   0.25809   0.26890   0.27506   0.28374
 Alpha virt. eigenvalues --    0.28507   0.30541   0.31491   0.31735   0.32102

 Mulliken charges:
               1
     1  C   -0.298939
     2  C   -0.299744
     3  C   -0.476056
     4  H    0.150668
     5  H    0.152556
     6  H    0.151151
     7  H    0.151393
     8  H    0.157039
     9  H    0.155454
    10  H    0.160679
    11  C   -0.297065
    12  C   -0.300004
    13  C   -0.480218
    14  H    0.148747
    15  H    0.143471
    16  H    0.153379
    17  H    0.155796
    18  H    0.153575
    19  H    0.151662
    20  H    0.162158
    21  C   -0.169794
    22  C   -0.217475
    23  C   -0.171367
    24  C    0.158820
    25  C   -0.170683
    26  C   -0.218634
    27  H    0.226584
    28  H    0.224639
    29  H    0.275401
    30  H    0.275770
    31  H    0.223729
    32  N    0.488100
    33  O   -0.460225
    34  O   -0.460568
 Sum of Mulliken charges =  -0.00000

 Dipole moment (field-independent basis, Debye):
    X=             -0.8494    Y=             -4.9436    Z=             -1.2812  Tot=              5.1771
 Quadrupole moment (field-independent basis, Debye-Ang):
   XX=            -96.6910   YY=            -99.4671   ZZ=            -93.8269
   XY=            -16.2120   XZ=             -1.8333   YZ=             -0.8268

 Normal termination of Gaussian 16 at Thu May  6 10:29:16 2021.
