 Gaussian 16, Revision A.03,
 Gaussian 16:  EM64L-G16RevA.03 25-Dec-2016

 -------------
 #p 6-31g* mp2
 -------------

 ------------------------------------------------------
 Input file generated by CHIRIPA (05-May-2021 14:53:11)
 ------------------------------------------------------
 Symbolic Z-matrix:
 Charge =  0 Multiplicity = 1

                         Standard orientation:
 ---------------------------------------------------------------------
 Center     Atomic      Atomic             Coordinates (Angstroms)
 Number     Number       Type             X           Y           Z
 ---------------------------------------------------------------------
      1          6           0        5.038587   -0.374591    0.178135
      2          6           0        5.928315    0.633949   -0.549337
      3          6           0        7.368696    0.629467   -0.036426
      4          1           0        5.046912   -0.152216    1.253972
      5          1           0        5.466486   -1.380153    0.063488
      6          1           0        5.498118    1.637125   -0.434519
      7          1           0        5.917719    0.409264   -1.623590
      8          1           0        7.820655   -0.359255   -0.165891
      9          1           0        7.398670    0.875582    1.029937
     10          1           0        7.987199    1.357748   -0.570207
     11          6           0        3.595651   -0.381930   -0.323472
     12          6           0        2.705923   -1.390470    0.404000
     13          6           0        1.265543   -1.385989   -0.108911
     14          1           0        3.167752    0.623632   -0.208825
     15          1           0        3.587326   -0.604305   -1.399309
     16          1           0        2.716520   -1.165785    1.478253
     17          1           0        3.136121   -2.393646    0.289182
     18          1           0        1.235569   -1.632103   -1.175274
     19          1           0        0.813584   -0.397266    0.020554
     20          1           0        0.647040   -2.114269    0.424870
     21          6           0       -2.080131    2.442790    0.347076
     22          6           0       -3.357461    2.466211   -0.222483
     23          6           0       -4.082786    1.282575   -0.388182
     24          6           0       -3.497715    0.087926    0.028707
     25          6           0       -2.227162    0.031986    0.599545
     26          6           0       -1.520045    1.227893    0.755551
     27          1           0       -1.523753    3.367033    0.472030
     28          1           0       -3.794932    3.408256   -0.540627
     29          1           0       -5.073492    1.271938   -0.826139
     30          1           0       -1.817426   -0.922473    0.907025
     31          1           0       -0.528245    1.206688    1.198191
     32          7           0       -4.255946   -1.171633   -0.141581
     33          8           0       -3.718246   -2.211134    0.233855
     34          8           0       -5.373590   -1.095523   -0.647264
 ---------------------------------------------------------------------

 SCF Done:  E(RHF) =  -669.534802178     A.U. after   15 cycles
 E2 =    -0.2091976276D+01 EUMP2 =    -0.67162677845366D+03

 The electronic state is 1-A.
 Alpha  occ. eigenvalues --  -20.60726 -20.60721 -15.85780 -11.31135 -11.27728
 Alpha  occ. eigenvalues --  -11.27688 -11.27476 -11.26738 -11.26714 -11.22134
 Alpha  occ. eigenvalues --  -11.21978 -11.21899 -11.21784 -11.21684 -11.21385
 Alpha  occ. eigenvalues --   -1.59801  -1.39354  -1.19324  -1.08899  -1.08721
 Alpha  occ. eigenvalues --   -1.04737  -1.03996  -0.96461  -0.95551  -0.87482
 Alpha  occ. eigenvalues --   -0.86128  -0.82394  -0.80067  -0.78702  -0.77427
 Alpha  occ. eigenvalues --   -0.71999  -0.71123  -0.70434  -0.65552  -0.64978
 Alpha  occ. eigenvalues --   -0.64752  -0.62178  -0.61329  -0.59818  -0.58056
 Alpha  occ. eigenvalues --   -0.55776  -0.55222  -0.53224  -0.53133  -0.52852
 Alpha  occ. eigenvalues --   -0.52680  -0.50380  -0.48758  -0.48752  -0.48366
 Alpha  occ. eigenvalues --   -0.47091  -0.46241  -0.46168  -0.44761  -0.44248
 Alpha  occ. eigenvalues --   -0.37311  -0.36289
 Alpha virt. eigenvalues --    0.05086   0.11270   0.16457   0.20324   0.22635
 Alpha virt. eigenvalues --    0.23885   0.25899   0.26278   0.26868   0.27837
 Alpha virt. eigenvalues --    0.28901   0.29759   0.31338   0.31558   0.32216

 Mulliken charges:
               1
     1  C   -0.298573
     2  C   -0.299719
     3  C   -0.475926
     4  H    0.149189
     5  H    0.151661
     6  H    0.150415
     7  H    0.153063
     8  H    0.156390
     9  H    0.155144
    10  H    0.161008
    11  C   -0.297631
    12  C   -0.300561
    13  C   -0.483558
    14  H    0.144584
    15  H    0.152242
    16  H    0.149677
    17  H    0.156428
    18  H    0.162460
    19  H    0.148987
    20  H    0.163456
    21  C   -0.171422
    22  C   -0.218933
    23  C   -0.170540
    24  C    0.157398
    25  C   -0.168488
    26  C   -0.221014
    27  H    0.225317
    28  H    0.223245
    29  H    0.275506
    30  H    0.279393
    31  H    0.223861
    32  N    0.488062
    33  O   -0.460436
    34  O   -0.460685
 Sum of Mulliken charges =  -0.00000

 Dipole moment (field-independent basis, Debye):
    X=              2.7750    Y=              4.3667    Z=              0.5432  Tot=              5.2023
 Quadrupole moment (field-independent basis, Debye-Ang):
   XX=           -111.5728   YY=            -92.4909   ZZ=            -94.2413
   XY=            -18.1319   XZ=             -0.8267   YZ=             -0.4739

 Normal termination of Gaussian 16 at Thu May  6 04:02:39 2021.
