 Gaussian 16, Revision A.03,
 Gaussian 16:  EM64L-G16RevA.03 25-Dec-2016

 -------------
 #p 6-31g* mp2
 -------------

 ------------------------------------------------------
 Input file generated by CHIRIPA (05-May-2021 14:57:27)
 ------------------------------------------------------
 Symbolic Z-matrix:
 Charge =  0 Multiplicity = 1

                         Standard orientation:
 ---------------------------------------------------------------------
 Center     Atomic      Atomic             Coordinates (Angstroms)
 Number     Number       Type             X           Y           Z
 ---------------------------------------------------------------------
      1          6           0       -3.631952    2.432384    0.256475
      2          6           0       -4.550435    1.530526   -0.290849
      3          6           0       -4.187310    0.200637   -0.523408
      4          6           0       -2.891548   -0.195156   -0.195327
      5          6           0       -1.953812    0.679614    0.351227
      6          6           0       -2.338852    2.004803    0.575204
      7          1           0       -3.922548    3.463648    0.433799
      8          1           0       -5.555359    1.859796   -0.539351
      9          1           0       -4.878402   -0.518527   -0.946033
     10          1           0       -0.959280    0.321934    0.588690
     11          1           0       -1.623454    2.702999    1.000378
     12          7           0       -2.495524   -1.600562   -0.436984
     13          8           0       -1.347854   -1.924395   -0.139285
     14          8           0       -3.340288   -2.351675   -0.919519
     15          6           0        1.683146   -1.218651    1.984744
     16          6           0        1.946435   -1.875382    0.778134
     17          6           0        2.651265   -1.230111   -0.242351
     18          6           0        3.079951    0.077816   -0.021346
     19          6           0        2.833204    0.758828    1.169715
     20          6           0        2.126589    0.094043    2.176345
     21          1           0        1.134924   -1.727493    2.772099
     22          1           0        1.603265   -2.894843    0.626549
     23          1           0        2.868836   -1.714973   -1.186273
     24          1           0        3.188085    1.775023    1.291482
     25          1           0        1.923556    0.606537    3.112386
     26          7           0        3.827068    0.771265   -1.094354
     27          8           0        4.193940    1.923599   -0.874877
     28          8           0        4.031638    0.149328   -2.134537
 ---------------------------------------------------------------------

 SCF Done:  E(RHF) =  -868.339452537     A.U. after   16 cycles
 E2 =    -0.2600606483D+01 EUMP2 =    -0.87094005902015D+03

 The electronic state is 1-A.
 Alpha  occ. eigenvalues --  -20.61292 -20.61239 -20.60615 -20.60590 -15.86313
 Alpha  occ. eigenvalues --  -15.85653 -11.31489 -11.30943 -11.28050 -11.27999
 Alpha  occ. eigenvalues --  -11.27766 -11.27561 -11.27338 -11.27149 -11.27025
 Alpha  occ. eigenvalues --  -11.27015 -11.26623 -11.26277  -1.60344  -1.59683
 Alpha  occ. eigenvalues --   -1.39903  -1.39238  -1.19653  -1.19096  -1.09087
 Alpha  occ. eigenvalues --   -1.08494  -1.05027  -1.04457  -0.95952  -0.95341
 Alpha  occ. eigenvalues --   -0.86435  -0.85848  -0.82792  -0.82159  -0.77859
 Alpha  occ. eigenvalues --   -0.77227  -0.72563  -0.71869  -0.71655  -0.71009
 Alpha  occ. eigenvalues --   -0.70756  -0.70162  -0.65314  -0.65033  -0.64723
 Alpha  occ. eigenvalues --   -0.64413  -0.62377  -0.61784  -0.55543  -0.54932
 Alpha  occ. eigenvalues --   -0.53373  -0.53213  -0.52714  -0.52512  -0.49298
 Alpha  occ. eigenvalues --   -0.49284  -0.48633  -0.48618  -0.45355  -0.44660
 Alpha  occ. eigenvalues --   -0.37632  -0.37063  -0.36622  -0.36025
 Alpha virt. eigenvalues --    0.04629   0.05303   0.11026   0.11603   0.16166
 Alpha virt. eigenvalues --    0.16826   0.21113   0.21851   0.26980   0.27750
 Alpha virt. eigenvalues --    0.27994   0.28677   0.30674   0.31388   0.32064

 Mulliken charges:
               1
     1  C   -0.169733
     2  C   -0.218901
     3  C   -0.170193
     4  C    0.156598
     5  C   -0.175372
     6  C   -0.219805
     7  H    0.226890
     8  H    0.224491
     9  H    0.275806
    10  H    0.280323
    11  H    0.223670
    12  N    0.491599
    13  O   -0.470741
    14  O   -0.458470
    15  C   -0.175003
    16  C   -0.200307
    17  C   -0.173136
    18  C    0.157164
    19  C   -0.177170
    20  C   -0.226968
    21  H    0.228141
    22  H    0.236207
    23  H    0.277600
    24  H    0.271992
    25  H    0.219728
    26  N    0.488042
    27  O   -0.463744
    28  O   -0.458710
 Sum of Mulliken charges =  -0.00000

 Dipole moment (field-independent basis, Debye):
    X=             -4.1566    Y=              2.2241    Z=              4.5372  Tot=              6.5429
 Quadrupole moment (field-independent basis, Debye-Ang):
   XX=           -109.7824   YY=           -103.8927   ZZ=           -104.3898
   XY=            -21.4900   XZ=             11.5870   YZ=              2.1144

 Normal termination of Gaussian 16 at Fri May  7 09:44:35 2021.
