 Gaussian 16, Revision A.03,
 Gaussian 16:  EM64L-G16RevA.03 25-Dec-2016

 -------------
 #p 6-31g* mp2
 -------------

 ------------------------------------------------------
 Input file generated by CHIRIPA (05-May-2021 14:57:24)
 ------------------------------------------------------
 Symbolic Z-matrix:
 Charge =  0 Multiplicity = 1

                         Standard orientation:
 ---------------------------------------------------------------------
 Center     Atomic      Atomic             Coordinates (Angstroms)
 Number     Number       Type             X           Y           Z
 ---------------------------------------------------------------------
      1          6           0        5.999985   -0.386177    0.374076
      2          6           0        5.054737   -1.343254    0.757523
      3          6           0        3.709422   -1.192075    0.408495
      4          6           0        3.342616   -0.066598   -0.327742
      5          6           0        4.260797    0.904344   -0.724611
      6          6           0        5.600702    0.732595   -0.364465
      7          1           0        7.042957   -0.511607    0.649528
      8          1           0        5.361957   -2.213107    1.331122
      9          1           0        2.956825   -1.917673    0.692261
     10          1           0        3.924324    1.760916   -1.296003
     11          1           0        6.332612    1.477481   -0.663627
     12          7           0        1.921255    0.104337   -0.703128
     13          8           0        1.623613    1.104783   -1.352092
     14          8           0        1.131748   -0.765367   -0.341283
     15          6           0       -1.780341    1.434698    1.424747
     16          6           0       -1.755889    0.037194    1.478653
     17          6           0       -2.746140   -0.715404    0.840260
     18          6           0       -3.750556   -0.034769    0.153839
     19          6           0       -3.802262    1.356436    0.081973
     20          6           0       -2.801648    2.088706    0.727807
     21          1           0       -1.007065    2.011439    1.923556
     22          1           0       -0.963942   -0.473402    2.019170
     23          1           0       -2.751338   -1.798331    0.865972
     24          1           0       -4.604518    1.837131   -0.464595
     25          1           0       -2.823167    3.173918    0.684263
     26          7           0       -4.804375   -0.820751   -0.525939
     27          8           0       -5.678457   -0.197224   -1.124129
     28          8           0       -4.736323   -2.045447   -0.447685
 ---------------------------------------------------------------------

 SCF Done:  E(RHF) =  -868.338258607     A.U. after   16 cycles
 E2 =    -0.2599565262D+01 EUMP2 =    -0.87093782386882D+03

 The electronic state is 1-A.
 Alpha  occ. eigenvalues --  -20.61477 -20.61456 -20.59758 -20.59751 -15.86506
 Alpha  occ. eigenvalues --  -15.84801 -11.31786 -11.29949 -11.28352 -11.28327
 Alpha  occ. eigenvalues --  -11.28042 -11.27325 -11.27311 -11.26509 -11.26439
 Alpha  occ. eigenvalues --  -11.26214 -11.25538 -11.25434  -1.60536  -1.58834
 Alpha  occ. eigenvalues --   -1.40096  -1.38395  -1.19945  -1.18085  -1.09352
 Alpha  occ. eigenvalues --   -1.07537  -1.05332  -1.03462  -0.96202  -0.94416
 Alpha  occ. eigenvalues --   -0.86733  -0.84894  -0.83038  -0.81260  -0.78103
 Alpha  occ. eigenvalues --   -0.76329  -0.72726  -0.71869  -0.71043  -0.71034
 Alpha  occ. eigenvalues --   -0.70146  -0.69256  -0.65597  -0.65324  -0.63764
 Alpha  occ. eigenvalues --   -0.63503  -0.62680  -0.60845  -0.55821  -0.54034
 Alpha  occ. eigenvalues --   -0.53670  -0.53417  -0.51789  -0.51595  -0.49482
 Alpha  occ. eigenvalues --   -0.49445  -0.47795  -0.47771  -0.45515  -0.43850
 Alpha  occ. eigenvalues --   -0.37919  -0.36934  -0.36035  -0.34981
 Alpha virt. eigenvalues --    0.04401   0.06204   0.10721   0.12642   0.15927
 Alpha virt. eigenvalues --    0.17768   0.20890   0.22555   0.26798   0.27683
 Alpha virt. eigenvalues --    0.28520   0.29388   0.30482   0.31738   0.32338

 Mulliken charges:
               1
     1  C   -0.170414
     2  C   -0.218299
     3  C   -0.171959
     4  C    0.157395
     5  C   -0.171266
     6  C   -0.218383
     7  H    0.227542
     8  H    0.224998
     9  H    0.273925
    10  H    0.276143
    11  H    0.225151
    12  N    0.487551
    13  O   -0.457714
    14  O   -0.463074
    15  C   -0.167894
    16  C   -0.199198
    17  C   -0.168340
    18  C    0.158276
    19  C   -0.172164
    20  C   -0.216122
    21  H    0.219422
    22  H    0.220489
    23  H    0.272287
    24  H    0.271419
    25  H    0.218843
    26  N    0.488316
    27  O   -0.463977
    28  O   -0.462954
 Sum of Mulliken charges =  -0.00000

 Dipole moment (field-independent basis, Debye):
    X=              9.1421    Y=              2.1337    Z=              3.6771  Tot=             10.0822
 Quadrupole moment (field-independent basis, Debye-Ang):
   XX=            -99.6582   YY=            -98.2514   ZZ=           -104.9176
   XY=            -13.7943   XZ=             -5.3851   YZ=             -3.5557

 Normal termination of Gaussian 16 at Thu May  6 19:38:41 2021.
