 Gaussian 16, Revision A.03,
 Gaussian 16:  EM64L-G16RevA.03 25-Dec-2016

 -------------
 #p 6-31g* mp2
 -------------

 ------------------------------------------------------
 Input file generated by CHIRIPA (05-May-2021 14:51:08)
 ------------------------------------------------------
 Symbolic Z-matrix:
 Charge =  0 Multiplicity = 1

                         Standard orientation:
 ---------------------------------------------------------------------
 Center     Atomic      Atomic             Coordinates (Angstroms)
 Number     Number       Type             X           Y           Z
 ---------------------------------------------------------------------
      1          6           0       -3.042970   -0.730852    0.439896
      2          6           0       -1.672611   -0.767456   -0.237423
      3          6           0       -0.655982   -1.612690    0.530586
      4          1           0       -2.930816   -0.335902    1.458906
      5          1           0       -3.421097   -1.757450    0.542419
      6          1           0       -1.297798    0.259010   -0.339889
      7          1           0       -1.788069   -1.162185   -1.255006
      8          1           0       -1.004452   -2.646619    0.620914
      9          1           0       -0.511395   -1.217350    1.541230
     10          1           0        0.316592   -1.625085    0.028782
     11          6           0       -4.070086    0.110204   -0.316006
     12          6           0       -5.440445    0.146808    0.361313
     13          6           0       -6.457074    0.992042   -0.406696
     14          1           0       -3.691959    1.136802   -0.418529
     15          1           0       -4.182240   -0.284746   -1.335016
     16          1           0       -5.324987    0.541537    1.378896
     17          1           0       -5.815258   -0.879658    0.463779
     18          1           0       -6.601661    0.596702   -1.417340
     19          1           0       -6.108604    2.025971   -0.497023
     20          1           0       -7.429648    1.004437    0.095108
     21          6           0        3.694679    0.973100    0.291713
     22          6           0        3.083466    2.179769   -0.421276
     23          6           0        3.368468    3.498396    0.298301
     24          1           0        3.304001    0.924648    1.317368
     25          1           0        4.780538    1.117900    0.377362
     26          1           0        1.999262    2.032100   -0.506785
     27          1           0        3.475497    2.225244   -1.445415
     28          1           0        4.446919    3.672427    0.370811
     29          1           0        2.962296    3.478185    1.314773
     30          1           0        2.922415    4.347764   -0.228454
     31          6           0        3.418378   -0.352452   -0.415603
     32          6           0        4.029590   -1.559121    0.297386
     33          6           0        3.744588   -2.877749   -0.422191
     34          1           0        2.332518   -0.497252   -0.501252
     35          1           0        3.809055   -0.304000   -1.441258
     36          1           0        3.637559   -1.604597    1.321524
     37          1           0        5.113795   -1.411452    0.382895
     38          1           0        4.150760   -2.857538   -1.438664
     39          1           0        2.666137   -3.051780   -0.494701
     40          1           0        4.190641   -3.727117    0.104563
 ---------------------------------------------------------------------

 SCF Done:  E(RHF) =  -470.733242862     A.U. after   11 cycles
 E2 =    -0.1582925525D+01 EUMP2 =    -0.47231616838673D+03

 The electronic state is 1-A.
 Alpha  occ. eigenvalues --  -11.21671 -11.21626 -11.21600 -11.21574 -11.21446
 Alpha  occ. eigenvalues --  -11.21385 -11.21385 -11.21323 -11.21145 -11.21089
 Alpha  occ. eigenvalues --  -11.21074 -11.21047  -1.08476  -1.08415  -1.03582
 Alpha  occ. eigenvalues --   -1.03514  -0.96032  -0.95965  -0.87052  -0.86980
 Alpha  occ. eigenvalues --   -0.79652  -0.79567  -0.78283  -0.78235  -0.65120
 Alpha  occ. eigenvalues --   -0.65056  -0.60972  -0.60946  -0.59447  -0.59279
 Alpha  occ. eigenvalues --   -0.57650  -0.57569  -0.55339  -0.55229  -0.52759
 Alpha  occ. eigenvalues --   -0.52655  -0.52478  -0.52372  -0.49989  -0.49885
 Alpha  occ. eigenvalues --   -0.48016  -0.47856  -0.46672  -0.46600  -0.45828
 Alpha  occ. eigenvalues --   -0.45771  -0.45750  -0.45678  -0.43787  -0.43759
 Alpha virt. eigenvalues --    0.20533   0.23045   0.23677   0.24524   0.26172
 Alpha virt. eigenvalues --    0.26659   0.27030   0.27585   0.27874   0.29191
 Alpha virt. eigenvalues --    0.29993   0.31377   0.31728   0.31868   0.32125

 Mulliken charges:
               1
     1  C   -0.298435
     2  C   -0.299552
     3  C   -0.484875
     4  H    0.149684
     5  H    0.149814
     6  H    0.151708
     7  H    0.152444
     8  H    0.155915
     9  H    0.155150
    10  H    0.168008
    11  C   -0.298306
    12  C   -0.299695
    13  C   -0.475739
    14  H    0.149596
    15  H    0.149810
    16  H    0.151968
    17  H    0.151999
    18  H    0.155249
    19  H    0.155239
    20  H    0.160343
    21  C   -0.297720
    22  C   -0.299810
    23  C   -0.475712
    24  H    0.149731
    25  H    0.149509
    26  H    0.151745
    27  H    0.152015
    28  H    0.155268
    29  H    0.155062
    30  H    0.160159
    31  C   -0.305369
    32  C   -0.299258
    33  C   -0.478478
    34  H    0.155788
    35  H    0.149567
    36  H    0.152515
    37  H    0.151908
    38  H    0.155000
    39  H    0.157325
    40  H    0.160429
 Sum of Mulliken charges =  -0.00000

 Dipole moment (field-independent basis, Debye):
    X=             -0.0205    Y=             -0.0071    Z=              0.0010  Tot=              0.0217
 Quadrupole moment (field-independent basis, Debye-Ang):
   XX=            -84.6803   YY=            -85.4886   ZZ=            -84.5600
   XY=              0.7074   XZ=             -0.7154   YZ=              0.2255

 Normal termination of Gaussian 16 at Wed May  5 15:05:43 2021.
