 Gaussian 16, Revision A.03,
 Gaussian 16:  EM64L-G16RevA.03 25-Dec-2016

 -------------
 #p 6-31g* mp2
 -------------

 ------------------------------------------------------
 Input file generated by CHIRIPA (05-May-2021 14:53:15)
 ------------------------------------------------------
 Symbolic Z-matrix:
 Charge =  0 Multiplicity = 1

                         Standard orientation:
 ---------------------------------------------------------------------
 Center     Atomic      Atomic             Coordinates (Angstroms)
 Number     Number       Type             X           Y           Z
 ---------------------------------------------------------------------
      1          6           0        4.607492    0.574198    0.189484
      2          6           0        5.738228    0.592339   -0.839638
      3          6           0        6.496513    1.919865   -0.861400
      4          1           0        3.908881    1.393625   -0.028293
      5          1           0        5.024670    0.775614    1.185872
      6          1           0        5.319237    0.389580   -1.833595
      7          1           0        6.434126   -0.227344   -0.619500
      8          1           0        6.941292    2.125553    0.117612
      9          1           0        5.820069    2.745982   -1.103382
     10          1           0        7.300359    1.910921   -1.604106
     11          6           0        3.840115   -0.746304    0.223164
     12          6           0        2.709379   -0.764445    1.252286
     13          6           0        1.951094   -2.091970    1.274049
     14          1           0        3.422937   -0.947719   -0.773224
     15          1           0        4.538726   -1.565731    0.440941
     16          1           0        2.013481    0.055239    1.032148
     17          1           0        3.128370   -0.561685    2.246244
     18          1           0        2.627538   -2.918087    1.516030
     19          1           0        1.506315   -2.297658    0.295036
     20          1           0        1.147248   -2.083026    2.016755
     21          6           0       -4.971551    1.867477    0.413642
     22          6           0       -5.376833    0.741122   -0.309955
     23          6           0       -4.459178   -0.262580   -0.634051
     24          6           0       -3.138232   -0.106813   -0.216763
     25          6           0       -2.703799    1.003635    0.505361
     26          6           0       -3.638678    1.994914    0.818277
     27          1           0       -5.691097    2.642352    0.661066
     28          1           0       -6.411309    0.639489   -0.625508
     29          1           0       -4.745896   -1.144950   -1.193188
     30          1           0       -1.665731    1.076881    0.806139
     31          1           0       -3.321097    2.868568    1.380342
     32          7           0       -2.157635   -1.162811   -0.553952
     33          8           0       -0.999664   -1.001884   -0.174687
     34          8           0       -2.565582   -2.131435   -1.191120
 ---------------------------------------------------------------------

 SCF Done:  E(RHF) =  -669.535828906     A.U. after   15 cycles
 E2 =    -0.2091214048D+01 EUMP2 =    -0.67162704295414D+03

 The electronic state is 1-A.
 Alpha  occ. eigenvalues --  -20.60935 -20.60926 -15.85968 -11.31294 -11.27859
 Alpha  occ. eigenvalues --  -11.27855 -11.27595 -11.26866 -11.26857 -11.21073
 Alpha  occ. eigenvalues --  -11.20738 -11.20675 -11.20507 -11.20444 -11.19446
 Alpha  occ. eigenvalues --   -1.59998  -1.39554  -1.19463  -1.08867  -1.07626
 Alpha  occ. eigenvalues --   -1.04860  -1.02636  -0.95714  -0.95060  -0.86262
 Alpha  occ. eigenvalues --   -0.86080  -0.82541  -0.78751  -0.77593  -0.77410
 Alpha  occ. eigenvalues --   -0.72201  -0.71312  -0.70572  -0.65123  -0.64863
 Alpha  occ. eigenvalues --   -0.64251  -0.62208  -0.60007  -0.58513  -0.56682
 Alpha  occ. eigenvalues --   -0.55366  -0.54330  -0.53192  -0.52952  -0.51755
 Alpha  occ. eigenvalues --   -0.51502  -0.49237  -0.48944  -0.48699  -0.47046
 Alpha  occ. eigenvalues --   -0.45780  -0.44982  -0.44941  -0.44812  -0.42905
 Alpha  occ. eigenvalues --   -0.37442  -0.36462
 Alpha virt. eigenvalues --    0.04934   0.11193   0.16429   0.21189   0.23564
 Alpha virt. eigenvalues --    0.24980   0.26861   0.27444   0.27967   0.28564
 Alpha virt. eigenvalues --    0.29036   0.30700   0.31768   0.32459   0.33048

 Mulliken charges:
               1
     1  C   -0.297194
     2  C   -0.299140
     3  C   -0.475128
     4  H    0.147028
     5  H    0.146889
     6  H    0.152345
     7  H    0.151397
     8  H    0.153912
     9  H    0.153590
    10  H    0.158854
    11  C   -0.298453
    12  C   -0.298736
    13  C   -0.472889
    14  H    0.153315
    15  H    0.147356
    16  H    0.151179
    17  H    0.144028
    18  H    0.144368
    19  H    0.177109
    20  H    0.156559
    21  C   -0.170614
    22  C   -0.218585
    23  C   -0.170585
    24  C    0.157703
    25  C   -0.171015
    26  C   -0.218556
    27  H    0.226005
    28  H    0.223811
    29  H    0.275865
    30  H    0.275739
    31  H    0.223919
    32  N    0.492318
    33  O   -0.463056
    34  O   -0.459338
 Sum of Mulliken charges =  -0.00000

 Dipole moment (field-independent basis, Debye):
    X=             -3.7726    Y=              3.6555    Z=              1.0704  Tot=              5.3610
 Quadrupole moment (field-independent basis, Debye-Ang):
   XX=            -71.8103   YY=            -95.4842   ZZ=            -94.7351
   XY=            -10.3453   XZ=             -0.8777   YZ=              0.6536

 Normal termination of Gaussian 16 at Thu May  6 18:50:32 2021.
