 Gaussian 16, Revision A.03,
 Gaussian 16:  EM64L-G16RevA.03 25-Dec-2016

 -------------
 #p 6-31g* mp2
 -------------

 ------------------------------------------------------
 Input file generated by CHIRIPA (05-May-2021 14:51:14)
 ------------------------------------------------------
 Symbolic Z-matrix:
 Charge =  0 Multiplicity = 1

                         Standard orientation:
 ---------------------------------------------------------------------
 Center     Atomic      Atomic             Coordinates (Angstroms)
 Number     Number       Type             X           Y           Z
 ---------------------------------------------------------------------
      1          6           0       -2.576726   -0.340908    0.552307
      2          6           0       -3.581181    0.701260    0.059417
      3          6           0       -3.951808    1.720911    1.136794
      4          1           0       -2.996507   -0.862111    1.423557
      5          1           0       -1.669369    0.171036    0.901607
      6          1           0       -4.485832    0.187416   -0.290134
      7          1           0       -3.159038    1.219911   -0.810878
      8          1           0       -3.062489    2.259592    1.479627
      9          1           0       -4.396820    1.221231    2.003330
     10          1           0       -4.670911    2.456468    0.763019
     11          6           0       -2.196371   -1.367190   -0.513434
     12          6           0       -1.191916   -2.409359   -0.020544
     13          6           0       -0.821289   -3.429010   -1.097921
     14          1           0       -3.103728   -1.879135   -0.862733
     15          1           0       -1.776590   -0.845988   -1.384684
     16          1           0       -1.614059   -2.928009    0.849752
     17          1           0       -0.287265   -1.895514    0.329008
     18          1           0       -0.376277   -2.929329   -1.964457
     19          1           0       -1.710608   -3.967691   -1.440754
     20          1           0       -0.102186   -4.164567   -0.724146
     21          6           0        2.496306    0.099202   -0.059319
     22          6           0        3.608924   -0.401297    0.862400
     23          6           0        3.816558   -1.913380    0.771361
     24          1           0        1.559847   -0.416793    0.193152
     25          1           0        2.735958   -0.177207   -1.095445
     26          1           0        3.367923   -0.122816    1.896316
     27          1           0        4.542801    0.116089    0.607833
     28          1           0        4.081387   -2.205056   -0.250104
     29          1           0        2.899836   -2.445319    1.045700
     30          1           0        4.616465   -2.249652    1.438390
     31          6           0        2.276792    1.608897    0.020445
     32          6           0        1.164172    2.109395   -0.901273
     33          6           0        0.956539    3.621478   -0.810234
     34          1           0        2.037139    1.885305    1.056572
     35          1           0        3.213250    2.124892   -0.232026
     36          1           0        0.230297    1.592009   -0.646707
     37          1           0        1.405173    1.830915   -1.935189
     38          1           0        1.873262    4.153418   -1.084574
     39          1           0        0.691709    3.913155    0.211231
     40          1           0        0.156631    3.957751   -1.477263
 ---------------------------------------------------------------------

 SCF Done:  E(RHF) =  -470.733327613     A.U. after   11 cycles
 E2 =    -0.1584086222D+01 EUMP2 =    -0.47231741383459D+03

 The electronic state is 1-A.
 Alpha  occ. eigenvalues --  -11.21682 -11.21638 -11.21628 -11.21606 -11.21461
 Alpha  occ. eigenvalues --  -11.21437 -11.21399 -11.21372 -11.21132 -11.21093
 Alpha  occ. eigenvalues --  -11.21091 -11.21060  -1.08509  -1.08439  -1.03588
 Alpha  occ. eigenvalues --   -1.03539  -0.96028  -0.95992  -0.87050  -0.87002
 Alpha  occ. eigenvalues --   -0.79673  -0.79588  -0.78374  -0.78210  -0.65354
 Alpha  occ. eigenvalues --   -0.64875  -0.61094  -0.60845  -0.59408  -0.59347
 Alpha  occ. eigenvalues --   -0.57639  -0.57604  -0.55327  -0.55272  -0.52721
 Alpha  occ. eigenvalues --   -0.52683  -0.52481  -0.52393  -0.50050  -0.49866
 Alpha  occ. eigenvalues --   -0.48037  -0.47881  -0.46847  -0.46563  -0.46192
 Alpha  occ. eigenvalues --   -0.45813  -0.45759  -0.45234  -0.43837  -0.43800
 Alpha virt. eigenvalues --    0.18937   0.22137   0.23718   0.25200   0.25448
 Alpha virt. eigenvalues --    0.26643   0.26947   0.27436   0.28314   0.29703
 Alpha virt. eigenvalues --    0.31351   0.31515   0.31669   0.31854   0.32084

 Mulliken charges:
               1
     1  C   -0.300685
     2  C   -0.300272
     3  C   -0.475632
     4  H    0.150000
     5  H    0.150161
     6  H    0.152229
     7  H    0.152565
     8  H    0.155025
     9  H    0.155160
    10  H    0.160484
    11  C   -0.298937
    12  C   -0.307770
    13  C   -0.475346
    14  H    0.149853
    15  H    0.150965
    16  H    0.151969
    17  H    0.158352
    18  H    0.155833
    19  H    0.155096
    20  H    0.160372
    21  C   -0.308051
    22  C   -0.299073
    23  C   -0.476567
    24  H    0.158273
    25  H    0.149622
    26  H    0.151932
    27  H    0.152178
    28  H    0.155408
    29  H    0.155787
    30  H    0.160455
    31  C   -0.297425
    32  C   -0.304432
    33  C   -0.475557
    34  H    0.149403
    35  H    0.150171
    36  H    0.155102
    37  H    0.152140
    38  H    0.155620
    39  H    0.155190
    40  H    0.160403
 Sum of Mulliken charges =  -0.00000

 Dipole moment (field-independent basis, Debye):
    X=              0.0106    Y=              0.0004    Z=             -0.0117  Tot=              0.0158
 Quadrupole moment (field-independent basis, Debye-Ang):
   XX=            -83.8381   YY=            -86.2030   ZZ=            -84.5677
   XY=              1.1513   XZ=             -0.5120   YZ=             -0.7794

 Normal termination of Gaussian 16 at Thu May  6 00:50:03 2021.
