 Gaussian 16, Revision A.03,
 Gaussian 16:  EM64L-G16RevA.03 25-Dec-2016

 -------------
 #p 6-31g* mp2
 -------------

 ------------------------------------------------------
 Input file generated by CHIRIPA (05-May-2021 14:51:12)
 ------------------------------------------------------
 Symbolic Z-matrix:
 Charge =  0 Multiplicity = 1

                         Standard orientation:
 ---------------------------------------------------------------------
 Center     Atomic      Atomic             Coordinates (Angstroms)
 Number     Number       Type             X           Y           Z
 ---------------------------------------------------------------------
      1          6           0       -2.899950   -1.066123    0.578885
      2          6           0       -1.376911   -1.012305    0.454631
      3          6           0       -0.671155   -1.968428    1.416675
      4          1           0       -3.185884   -0.826163    1.612136
      5          1           0       -3.240091   -2.093957    0.391119
      6          1           0       -1.039866    0.015413    0.641215
      7          1           0       -1.094580   -1.252233   -0.578491
      8          1           0       -0.978921   -3.001928    1.227573
      9          1           0       -0.923896   -1.727080    2.454208
     10          1           0        0.416822   -1.913694    1.310985
     11          6           0       -3.619672   -0.115840   -0.376463
     12          6           0       -5.142712   -0.169658   -0.252208
     13          6           0       -5.848468    0.786466   -1.214253
     14          1           0       -3.279531    0.911995   -0.188696
     15          1           0       -3.333739   -0.355799   -1.409713
     16          1           0       -5.425042    0.070270    0.780914
     17          1           0       -5.479756   -1.197375   -0.438792
     18          1           0       -5.595727    0.545117   -2.251785
     19          1           0       -5.540702    1.819965   -1.025150
     20          1           0       -6.936445    0.731732   -1.108562
     21          6           0        3.095604    1.335531   -0.055231
     22          6           0        1.728825    1.617574    0.569550
     23          6           0        1.414683    3.111516    0.654669
     24          1           0        3.872461    1.842052    0.533729
     25          1           0        3.129054    1.776098   -1.061300
     26          1           0        1.697472    1.175411    1.573605
     27          1           0        0.955150    1.110163   -0.020854
     28          1           0        1.418560    3.563419   -0.342512
     29          1           0        2.165101    3.629037    1.261007
     30          1           0        0.433030    3.290356    1.104372
     31          6           0        3.424019   -0.153569   -0.147192
     32          6           0        4.790798   -0.435612   -0.771973
     33          6           0        5.104940   -1.929553   -0.857091
     34          1           0        3.390569   -0.594136    0.858878
     35          1           0        2.647162   -0.660091   -0.736151
     36          1           0        5.564473    0.071799   -0.181569
     37          1           0        4.822150    0.006550   -1.776028
     38          1           0        4.354522   -2.447075   -1.463429
     39          1           0        5.101062   -2.381456    0.140090
     40          1           0        6.086593   -2.108394   -1.306795
 ---------------------------------------------------------------------

 SCF Done:  E(RHF) =  -470.733142175     A.U. after   11 cycles
 E2 =    -0.1583273371D+01 EUMP2 =    -0.47231641554601D+03

 The electronic state is 1-A.
 Alpha  occ. eigenvalues --  -11.21616 -11.21596 -11.21560 -11.21535 -11.21420
 Alpha  occ. eigenvalues --  -11.21389 -11.21357 -11.21325 -11.21088 -11.21080
 Alpha  occ. eigenvalues --  -11.21068 -11.21009  -1.08453  -1.08398  -1.03561
 Alpha  occ. eigenvalues --   -1.03482  -0.95991  -0.95952  -0.87008  -0.86966
 Alpha  occ. eigenvalues --   -0.79712  -0.79482  -0.78345  -0.78134  -0.65095
 Alpha  occ. eigenvalues --   -0.65021  -0.60996  -0.60859  -0.59439  -0.59244
 Alpha  occ. eigenvalues --   -0.57613  -0.57554  -0.55282  -0.55236  -0.52708
 Alpha  occ. eigenvalues --   -0.52622  -0.52420  -0.52368  -0.49961  -0.49876
 Alpha  occ. eigenvalues --   -0.48138  -0.47749  -0.46775  -0.46485  -0.45966
 Alpha  occ. eigenvalues --   -0.45767  -0.45699  -0.45370  -0.43791  -0.43751
 Alpha virt. eigenvalues --    0.21418   0.23035   0.23756   0.24273   0.26029
 Alpha virt. eigenvalues --    0.26183   0.26411   0.27342   0.28429   0.29234
 Alpha virt. eigenvalues --    0.30767   0.31336   0.31574   0.31706   0.32265

 Mulliken charges:
               1
     1  C   -0.297636
     2  C   -0.304695
     3  C   -0.477813
     4  H    0.149478
     5  H    0.149286
     6  H    0.158615
     7  H    0.150255
     8  H    0.154737
     9  H    0.154544
    10  H    0.163134
    11  C   -0.298289
    12  C   -0.299587
    13  C   -0.475701
    14  H    0.149216
    15  H    0.149345
    16  H    0.151944
    17  H    0.151958
    18  H    0.155094
    19  H    0.155175
    20  H    0.160248
    21  C   -0.297748
    22  C   -0.306341
    23  C   -0.475973
    24  H    0.149510
    25  H    0.149452
    26  H    0.152055
    27  H    0.159694
    28  H    0.155308
    29  H    0.155338
    30  H    0.159473
    31  C   -0.299848
    32  C   -0.299673
    33  C   -0.475779
    34  H    0.149795
    35  H    0.150520
    36  H    0.152083
    37  H    0.152034
    38  H    0.155201
    39  H    0.155257
    40  H    0.160333
 Sum of Mulliken charges =  -0.00000

 Dipole moment (field-independent basis, Debye):
    X=              0.0215    Y=              0.0098    Z=             -0.0046  Tot=              0.0240
 Quadrupole moment (field-independent basis, Debye-Ang):
   XX=            -85.2251   YY=            -85.8076   ZZ=            -83.8366
   XY=              0.8088   XZ=              0.0443   YZ=              0.8392

 Normal termination of Gaussian 16 at Wed May  5 16:47:05 2021.
