 Gaussian 16, Revision A.03,
 Gaussian 16:  EM64L-G16RevA.03 25-Dec-2016

 -------------
 #p 6-31g* mp2
 -------------

 ------------------------------------------------------
 Input file generated by CHIRIPA (05-May-2021 14:53:17)
 ------------------------------------------------------
 Symbolic Z-matrix:
 Charge =  0 Multiplicity = 1

                         Standard orientation:
 ---------------------------------------------------------------------
 Center     Atomic      Atomic             Coordinates (Angstroms)
 Number     Number       Type             X           Y           Z
 ---------------------------------------------------------------------
      1          6           0        3.641732   -0.569811   -0.659676
      2          6           0        4.269838   -1.819772   -0.042372
      3          6           0        4.060383   -3.070211   -0.896963
      4          1           0        2.566205   -0.740903   -0.804293
      5          1           0        4.069631   -0.408155   -1.658757
      6          1           0        3.841891   -1.978236    0.955809
      7          1           0        5.343960   -1.645615    0.100969
      8          1           0        4.503093   -2.937163   -1.889388
      9          1           0        2.992490   -3.271674   -1.029691
     10          1           0        4.517379   -3.951971   -0.437056
     11          6           0        3.842699    0.688432    0.183038
     12          6           0        3.214592    1.938393   -0.434266
     13          6           0        3.424047    3.188832    0.420325
     14          1           0        3.414799    0.526776    1.182120
     15          1           0        4.918226    0.859524    0.327655
     16          1           0        2.140470    1.764235   -0.577607
     17          1           0        3.642539    2.096857   -1.432447
     18          1           0        4.491941    3.390295    0.553053
     19          1           0        2.981337    3.055783    1.412750
     20          1           0        2.967051    4.070592   -0.039582
     21          6           0       -0.873048   -0.184477    1.649762
     22          6           0       -0.895696    0.688577    0.557159
     23          6           0       -2.026467    0.773391   -0.260590
     24          6           0       -3.121846   -0.032981    0.044693
     25          6           0       -3.129805   -0.912611    1.126118
     26          6           0       -1.988209   -0.980881    1.930261
     27          1           0        0.009566   -0.243937    2.279725
     28          1           0       -0.031099    1.308268    0.336933
     29          1           0       -2.070934    1.440649   -1.112768
     30          1           0       -4.006963   -1.517781    1.320491
     31          1           0       -1.973443   -1.659812    2.778128
     32          7           0       -4.324672    0.048050   -0.813818
     33          8           0       -5.276799   -0.672976   -0.523621
     34          8           0       -4.292546    0.831054   -1.760660
 ---------------------------------------------------------------------

 SCF Done:  E(RHF) =  -669.535530450     A.U. after   15 cycles
 E2 =    -0.2091392202D+01 EUMP2 =    -0.67162692265255D+03

 The electronic state is 1-A.
 Alpha  occ. eigenvalues --  -20.60771 -20.60766 -15.85825 -11.31201 -11.27775
 Alpha  occ. eigenvalues --  -11.27768 -11.27526 -11.26791 -11.26770 -11.22635
 Alpha  occ. eigenvalues --  -11.22312 -11.22266 -11.22118 -11.21974 -11.21585
 Alpha  occ. eigenvalues --   -1.59846  -1.39399  -1.19377  -1.09272  -1.08770
 Alpha  occ. eigenvalues --   -1.04782  -1.04327  -0.96749  -0.95603  -0.87762
 Alpha  occ. eigenvalues --   -0.86182  -0.82436  -0.80404  -0.79065  -0.77479
 Alpha  occ. eigenvalues --   -0.72043  -0.71169  -0.70488  -0.65978  -0.65028
 Alpha  occ. eigenvalues --   -0.64763  -0.62194  -0.61665  -0.60122  -0.58356
 Alpha  occ. eigenvalues --   -0.56043  -0.55285  -0.53435  -0.53165  -0.53108
 Alpha  occ. eigenvalues --   -0.52883  -0.50690  -0.48820  -0.48797  -0.48683
 Alpha  occ. eigenvalues --   -0.47454  -0.46591  -0.46529  -0.44802  -0.44578
 Alpha  occ. eigenvalues --   -0.37360  -0.36382
 Alpha virt. eigenvalues --    0.05056   0.11203   0.16528   0.18647   0.22924
 Alpha virt. eigenvalues --    0.23512   0.25310   0.25634   0.27163   0.28267
 Alpha virt. eigenvalues --    0.29338   0.30039   0.30982   0.31114   0.31902

 Mulliken charges:
               1
     1  C   -0.299920
     2  C   -0.299335
     3  C   -0.476398
     4  H    0.149171
     5  H    0.152978
     6  H    0.148620
     7  H    0.153766
     8  H    0.157223
     9  H    0.156392
    10  H    0.161708
    11  C   -0.297778
    12  C   -0.304991
    13  C   -0.476430
    14  H    0.142863
    15  H    0.154092
    16  H    0.144532
    17  H    0.158352
    18  H    0.159839
    19  H    0.152138
    20  H    0.163093
    21  C   -0.173297
    22  C   -0.226145
    23  C   -0.172822
    24  C    0.158819
    25  C   -0.170979
    26  C   -0.218521
    27  H    0.225781
    28  H    0.234613
    29  H    0.276098
    30  H    0.275704
    31  H    0.223477
    32  N    0.488072
    33  O   -0.460454
    34  O   -0.460263
 Sum of Mulliken charges =  -0.00000

 Dipole moment (field-independent basis, Debye):
    X=              4.4192    Y=             -0.2958    Z=              2.9556  Tot=              5.3247
 Quadrupole moment (field-independent basis, Debye-Ang):
   XX=           -119.1291   YY=            -93.4316   ZZ=            -93.3715
   XY=              2.7999   XZ=            -11.5310   YZ=             -3.0275

 Normal termination of Gaussian 16 at Thu May  6 05:58:37 2021.
