 Gaussian 16, Revision A.03,
 Gaussian 16:  EM64L-G16RevA.03 25-Dec-2016

 -------------
 #p 6-31g* mp2
 -------------

 ------------------------------------------------------
 Input file generated by CHIRIPA (05-May-2021 14:51:13)
 ------------------------------------------------------
 Symbolic Z-matrix:
 Charge =  0 Multiplicity = 1

                         Standard orientation:
 ---------------------------------------------------------------------
 Center     Atomic      Atomic             Coordinates (Angstroms)
 Number     Number       Type             X           Y           Z
 ---------------------------------------------------------------------
      1          6           0       -3.943558    0.056089   -0.032064
      2          6           0       -4.755015   -1.126476   -0.562219
      3          6           0       -5.996365   -0.689960   -1.340870
      4          1           0       -4.584556    0.672758    0.612750
      5          1           0       -3.643263    0.693237   -0.875427
      6          1           0       -5.052514   -1.761946    0.281753
      7          1           0       -4.111957   -1.740507   -1.205692
      8          1           0       -5.714716   -0.074050   -2.201062
      9          1           0       -6.660617   -0.095611   -0.705166
     10          1           0       -6.561658   -1.551066   -1.710733
     11          6           0       -2.699483   -0.364218    0.748544
     12          6           0       -1.888026    0.818347    1.278698
     13          6           0       -0.646676    0.381831    2.057349
     14          1           0       -2.999778   -1.001366    1.591906
     15          1           0       -2.058485   -0.980887    0.103729
     16          1           0       -2.531084    1.432378    1.922172
     17          1           0       -1.590527    1.453818    0.434726
     18          1           0        0.017576   -0.212517    1.421645
     19          1           0       -0.928325   -0.234078    2.917541
     20          1           0       -0.081383    1.242938    2.427213
     21          6           0        3.547480   -0.427694    0.082137
     22          6           0        4.211441   -1.559803   -0.702382
     23          6           0        4.658029   -2.716383    0.192424
     24          1           0        4.248901   -0.055920    0.841569
     25          1           0        2.680573   -0.827370    0.626313
     26          1           0        5.076020   -1.157828   -1.246014
     27          1           0        3.508426   -1.928796   -1.460161
     28          1           0        3.802285   -3.144501    0.724418
     29          1           0        5.378784   -2.369152    0.939781
     30          1           0        5.130021   -3.514606   -0.388887
     31          6           0        3.095561    0.735823   -0.798617
     32          6           0        2.431600    1.867932   -0.014098
     33          6           0        1.985013    3.024511   -0.908903
     34          1           0        3.962467    1.135499   -1.342793
     35          1           0        2.394140    0.364048   -1.558048
     36          1           0        3.134615    2.236925    0.743682
     37          1           0        1.567021    1.465957    0.529535
     38          1           0        1.264257    2.677281   -1.656260
     39          1           0        2.840757    3.452629   -1.440897
     40          1           0        1.513021    3.822734   -0.327591
 ---------------------------------------------------------------------

 SCF Done:  E(RHF) =  -470.732752207     A.U. after   11 cycles
 E2 =    -0.1583390384D+01 EUMP2 =    -0.47231614259110D+03

 The electronic state is 1-A.
 Alpha  occ. eigenvalues --  -11.21671 -11.21636 -11.21590 -11.21460 -11.21457
 Alpha  occ. eigenvalues --  -11.21395 -11.21377 -11.21315 -11.21142 -11.21096
 Alpha  occ. eigenvalues --  -11.21058 -11.21036  -1.08488  -1.08393  -1.03602
 Alpha  occ. eigenvalues --   -1.03478  -0.96045  -0.95948  -0.87075  -0.86953
 Alpha  occ. eigenvalues --   -0.79687  -0.79524  -0.78301  -0.78199  -0.65217
 Alpha  occ. eigenvalues --   -0.64958  -0.61154  -0.60754  -0.59461  -0.59258
 Alpha  occ. eigenvalues --   -0.57691  -0.57511  -0.55349  -0.55235  -0.52766
 Alpha  occ. eigenvalues --   -0.52626  -0.52463  -0.52364  -0.50074  -0.49845
 Alpha  occ. eigenvalues --   -0.47978  -0.47847  -0.46780  -0.46517  -0.45878
 Alpha  occ. eigenvalues --   -0.45776  -0.45733  -0.45497  -0.43823  -0.43738
 Alpha virt. eigenvalues --    0.20745   0.23096   0.23651   0.24751   0.25744
 Alpha virt. eigenvalues --    0.26698   0.27144   0.27152   0.28135   0.29186
 Alpha virt. eigenvalues --    0.31032   0.31392   0.31730   0.31981   0.32141

 Mulliken charges:
               1
     1  C   -0.298356
     2  C   -0.299695
     3  C   -0.475743
     4  H    0.149865
     5  H    0.149628
     6  H    0.152012
     7  H    0.151879
     8  H    0.155257
     9  H    0.155271
    10  H    0.160362
    11  C   -0.298402
    12  C   -0.301823
    13  C   -0.481815
    14  H    0.149831
    15  H    0.149380
    16  H    0.152692
    17  H    0.153352
    18  H    0.157209
    19  H    0.156908
    20  H    0.162542
    21  C   -0.301243
    22  C   -0.299500
    23  C   -0.475699
    24  H    0.149961
    25  H    0.151575
    26  H    0.152036
    27  H    0.151553
    28  H    0.155213
    29  H    0.155266
    30  H    0.160161
    31  C   -0.297446
    32  C   -0.311164
    33  C   -0.475059
    34  H    0.149312
    35  H    0.148386
    36  H    0.151035
    37  H    0.166494
    38  H    0.154048
    39  H    0.154936
    40  H    0.159777
 Sum of Mulliken charges =  -0.00000

 Dipole moment (field-independent basis, Debye):
    X=             -0.0421    Y=             -0.0066    Z=              0.0429  Tot=              0.0604
 Quadrupole moment (field-independent basis, Debye-Ang):
   XX=            -84.6914   YY=            -85.5390   ZZ=            -84.6116
   XY=              0.8558   XZ=             -1.0560   YZ=              0.6692

 Normal termination of Gaussian 16 at Wed May  5 16:52:33 2021.
