 Gaussian 16, Revision A.03,
 Gaussian 16:  EM64L-G16RevA.03 25-Dec-2016

 -------------
 #p 6-31g* mp2
 -------------

 ------------------------------------------------------
 Input file generated by CHIRIPA (05-May-2021 14:51:07)
 ------------------------------------------------------
 Symbolic Z-matrix:
 Charge =  0 Multiplicity = 1

                         Standard orientation:
 ---------------------------------------------------------------------
 Center     Atomic      Atomic             Coordinates (Angstroms)
 Number     Number       Type             X           Y           Z
 ---------------------------------------------------------------------
      1          6           0       -2.466661   -1.487976   -0.274828
      2          6           0       -1.120552   -2.211601   -0.226432
      3          6           0       -1.199801   -3.643596   -0.756437
      4          1           0       -3.202682   -2.056654    0.309828
      5          1           0       -2.831960   -1.476712   -1.311083
      6          1           0       -0.757242   -2.220284    0.809206
      7          1           0       -0.387602   -1.641033   -0.811114
      8          1           0       -1.538355   -3.650852   -1.797557
      9          1           0       -1.910095   -4.233394   -0.168031
     10          1           0       -0.226541   -4.142305   -0.712694
     11          6           0       -2.403587   -0.055323    0.251722
     12          6           0       -3.749696    0.668302    0.203327
     13          6           0       -3.670446    2.100296    0.733332
     14          1           0       -2.038288   -0.066587    1.287978
     15          1           0       -1.667565    0.513355   -0.332934
     16          1           0       -4.482646    0.097734    0.788008
     17          1           0       -4.113006    0.676985   -0.832311
     18          1           0       -2.960152    2.690095    0.144926
     19          1           0       -3.331893    2.107553    1.774452
     20          1           0       -4.643706    2.599006    0.689588
     21          6           0        2.459018    0.125193    0.417699
     22          6           0        3.611802   -0.797767    0.021193
     23          6           0        3.646296   -2.086911    0.842600
     24          1           0        2.544972    0.370981    1.485007
     25          1           0        1.508965   -0.413424    0.296511
     26          1           0        4.559310   -0.257112    0.141774
     27          1           0        3.523202   -1.041232   -1.045339
     28          1           0        2.716484   -2.650458    0.714283
     29          1           0        3.758479   -1.861884    1.908141
     30          1           0        4.478080   -2.731920    0.542668
     31          6           0        2.411230    1.418106   -0.394594
     32          6           0        1.258445    2.341066    0.001912
     33          6           0        1.223951    3.630210   -0.819495
     34          1           0        3.361283    1.956723   -0.273407
     35          1           0        2.325275    1.172318   -1.461902
     36          1           0        1.347046    2.584530    1.068445
     37          1           0        0.310938    1.800412   -0.118669
     38          1           0        1.111769    3.405182   -1.885036
     39          1           0        2.153764    4.193757   -0.691178
     40          1           0        0.392168    4.275219   -0.519562
 ---------------------------------------------------------------------

 SCF Done:  E(RHF) =  -470.732906562     A.U. after   11 cycles
 E2 =    -0.1584506310D+01 EUMP2 =    -0.47231741287193D+03

 The electronic state is 1-A.
 Alpha  occ. eigenvalues --  -11.21702 -11.21648 -11.21550 -11.21521 -11.21475
 Alpha  occ. eigenvalues --  -11.21412 -11.21334 -11.21246 -11.21153 -11.21098
 Alpha  occ. eigenvalues --  -11.21050 -11.21037  -1.08519  -1.08362  -1.03606
 Alpha  occ. eigenvalues --   -1.03479  -0.96044  -0.95934  -0.87068  -0.86944
 Alpha  occ. eigenvalues --   -0.79714  -0.79509  -0.78481  -0.78037  -0.65246
 Alpha  occ. eigenvalues --   -0.64912  -0.61047  -0.60860  -0.59445  -0.59267
 Alpha  occ. eigenvalues --   -0.57654  -0.57542  -0.55343  -0.55219  -0.52742
 Alpha  occ. eigenvalues --   -0.52631  -0.52523  -0.52313  -0.50040  -0.49840
 Alpha  occ. eigenvalues --   -0.48116  -0.47770  -0.46802  -0.46632  -0.46315
 Alpha  occ. eigenvalues --   -0.45777  -0.45692  -0.44955  -0.43848  -0.43725
 Alpha virt. eigenvalues --    0.20466   0.22040   0.23539   0.24956   0.25414
 Alpha virt. eigenvalues --    0.26103   0.26682   0.27155   0.28739   0.29707
 Alpha virt. eigenvalues --    0.31088   0.31223   0.31445   0.31703   0.32051

 Mulliken charges:
               1
     1  C   -0.297492
     2  C   -0.304479
     3  C   -0.475757
     4  H    0.150146
     5  H    0.149458
     6  H    0.153621
     7  H    0.154391
     8  H    0.155400
     9  H    0.155758
    10  H    0.160531
    11  C   -0.305940
    12  C   -0.299104
    13  C   -0.476330
    14  H    0.150408
    15  H    0.156287
    16  H    0.152190
    17  H    0.151810
    18  H    0.155622
    19  H    0.155561
    20  H    0.160445
    21  C   -0.306864
    22  C   -0.299023
    23  C   -0.476540
    24  H    0.149005
    25  H    0.159050
    26  H    0.151714
    27  H    0.151242
    28  H    0.155830
    29  H    0.155016
    30  H    0.159972
    31  C   -0.297372
    32  C   -0.308477
    33  C   -0.475493
    34  H    0.149308
    35  H    0.148319
    36  H    0.152022
    37  H    0.160028
    38  H    0.154356
    39  H    0.155336
    40  H    0.160047
 Sum of Mulliken charges =  -0.00000

 Dipole moment (field-independent basis, Debye):
    X=             -0.0727    Y=             -0.0312    Z=              0.0166  Tot=              0.0808
 Quadrupole moment (field-independent basis, Debye-Ang):
   XX=            -84.4946   YY=            -86.5649   ZZ=            -83.7889
   XY=              0.6211   XZ=              0.1697   YZ=              0.1573

 Normal termination of Gaussian 16 at Wed May  5 18:04:41 2021.
