 Gaussian 16, Revision A.03,
 Gaussian 16:  EM64L-G16RevA.03 25-Dec-2016

 -------------
 #p 6-31g* mp2
 -------------

 ------------------------------------------------------
 Input file generated by CHIRIPA (05-May-2021 14:55:21)
 ------------------------------------------------------
 Symbolic Z-matrix:
 Charge =  0 Multiplicity = 1

                         Standard orientation:
 ---------------------------------------------------------------------
 Center     Atomic      Atomic             Coordinates (Angstroms)
 Number     Number       Type             X           Y           Z
 ---------------------------------------------------------------------
      1          6           0       -0.686355    0.089947    0.270767
      2          6           0       -1.418321   -0.632943    1.218489
      3          6           0       -2.801812   -0.782484    1.083810
      4          6           0       -3.423864   -0.193260   -0.015806
      5          6           0       -2.722177    0.532910   -0.976848
      6          6           0       -1.339467    0.669544   -0.821950
      7          1           0        0.388071    0.201101    0.383242
      8          1           0       -0.913756   -1.084153    2.068117
      9          1           0       -3.392819   -1.336882    1.802678
     10          1           0       -3.253084    0.971242   -1.813163
     11          1           0       -0.773564    1.231499   -1.559518
     12          7           0       -4.888091   -0.344740   -0.169087
     13          8           0       -5.412538    0.184039   -1.146831
     14          8           0       -5.483578   -0.989382    0.691418
     15          6           0        4.717313   -0.194904   -0.039885
     16          6           0        4.482332   -1.670214   -0.365817
     17          6           0        5.779468   -2.478005   -0.417852
     18          1           0        5.390380    0.237672   -0.792749
     19          1           0        5.237164   -0.118073    0.925126
     20          1           0        3.961847   -1.744188   -1.329269
     21          1           0        3.809593   -2.099280    0.387801
     22          1           0        6.299595   -2.433958    0.544504
     23          1           0        6.452714   -2.076848   -1.182322
     24          1           0        5.588265   -3.529824   -0.652324
     25          6           0        3.429995    0.625738    0.015677
     26          6           0        3.664975    2.101047    0.341609
     27          6           0        2.367840    2.908837    0.393643
     28          1           0        2.910144    0.548906   -0.949334
     29          1           0        2.756928    0.193161    0.768541
     30          1           0        4.337714    2.530113   -0.412009
     31          1           0        4.185460    2.175021    1.305060
     32          1           0        1.694594    2.507681    1.158113
     33          1           0        1.847712    2.864791   -0.568713
     34          1           0        2.559042    3.960657    0.628114
 ---------------------------------------------------------------------

 SCF Done:  E(RHF) =  -669.535406812     A.U. after   15 cycles
 E2 =    -0.2091990711D+01 EUMP2 =    -0.67162739752282D+03

 The electronic state is 1-A.
 Alpha  occ. eigenvalues --  -20.60680 -20.60675 -15.85734 -11.31072 -11.27649
 Alpha  occ. eigenvalues --  -11.27644 -11.27285 -11.26642 -11.26629 -11.22753
 Alpha  occ. eigenvalues --  -11.22687 -11.22467 -11.22359 -11.22254 -11.21753
 Alpha  occ. eigenvalues --   -1.59757  -1.39311  -1.19240  -1.09526  -1.08629
 Alpha  occ. eigenvalues --   -1.04646  -1.04526  -0.96992  -0.95473  -0.88002
 Alpha  occ. eigenvalues --   -0.86039  -0.82321  -0.80605  -0.79371  -0.77370
 Alpha  occ. eigenvalues --   -0.71951  -0.71080  -0.70334  -0.66145  -0.64888
 Alpha  occ. eigenvalues --   -0.64656  -0.62008  -0.61903  -0.60371  -0.58607
 Alpha  occ. eigenvalues --   -0.56291  -0.55155  -0.53623  -0.53436  -0.52955
 Alpha  occ. eigenvalues --   -0.52736  -0.50932  -0.48894  -0.48709  -0.48706
 Alpha  occ. eigenvalues --   -0.47636  -0.46840  -0.46788  -0.44805  -0.44723
 Alpha  occ. eigenvalues --   -0.37197  -0.36258
 Alpha virt. eigenvalues --    0.05157   0.11387   0.16602   0.19420   0.22376
 Alpha virt. eigenvalues --    0.23754   0.24238   0.25850   0.26681   0.27821
 Alpha virt. eigenvalues --    0.29479   0.29822   0.30654   0.31382   0.31613

 Mulliken charges:
               1
     1  C   -0.178210
     2  C   -0.222442
     3  C   -0.170546
     4  C    0.157961
     5  C   -0.170721
     6  C   -0.222806
     7  H    0.241810
     8  H    0.222474
     9  H    0.275058
    10  H    0.275079
    11  H    0.223226
    12  N    0.488027
    13  O   -0.460801
    14  O   -0.460844
    15  C   -0.297432
    16  C   -0.300508
    17  C   -0.476384
    18  H    0.153482
    19  H    0.152446
    20  H    0.152867
    21  H    0.150054
    22  H    0.156488
    23  H    0.156980
    24  H    0.162864
    25  C   -0.304775
    26  C   -0.299672
    27  C   -0.479489
    28  H    0.147810
    29  H    0.142967
    30  H    0.156564
    31  H    0.155980
    32  H    0.153955
    33  H    0.150967
    34  H    0.167571
 Sum of Mulliken charges =  -0.00000

 Dipole moment (field-independent basis, Debye):
    X=              5.5069    Y=              0.5859    Z=              0.5340  Tot=              5.5637
 Quadrupole moment (field-independent basis, Debye-Ang):
   XX=           -130.2884   YY=            -94.1281   ZZ=            -90.4810
   XY=             -1.9882   XZ=             -2.1447   YZ=             -2.9206

 Normal termination of Gaussian 16 at Wed May  5 18:59:42 2021.
