 Gaussian 16, Revision A.03,
 Gaussian 16:  EM64L-G16RevA.03 25-Dec-2016

 -------------
 #p 6-31g* mp2
 -------------

 ------------------------------------------------------
 Input file generated by CHIRIPA (05-May-2021 14:51:07)
 ------------------------------------------------------
 Symbolic Z-matrix:
 Charge =  0 Multiplicity = 1

                         Standard orientation:
 ---------------------------------------------------------------------
 Center     Atomic      Atomic             Coordinates (Angstroms)
 Number     Number       Type             X           Y           Z
 ---------------------------------------------------------------------
      1          6           0       -3.637688    1.094127   -0.316676
      2          6           0       -2.601685    1.967099    0.392268
      3          6           0       -2.630230    3.420723   -0.080973
      4          1           0       -3.460019    1.132049   -1.400162
      5          1           0       -4.638492    1.515678   -0.149102
      6          1           0       -1.603267    1.543249    0.224559
      7          1           0       -2.781724    1.926942    1.474206
      8          1           0       -3.613645    3.865979    0.101356
      9          1           0       -2.428492    3.480105   -1.155392
     10          1           0       -1.881721    4.026908    0.438771
     11          6           0       -3.621415   -0.361784    0.145694
     12          6           0       -4.657418   -1.234756   -0.563250
     13          6           0       -4.628874   -2.688380   -0.090009
     14          1           0       -2.620611   -0.783334   -0.021880
     15          1           0       -3.799085   -0.399706    1.229180
     16          1           0       -4.477380   -1.194599   -1.645188
     17          1           0       -5.655837   -0.810905   -0.395541
     18          1           0       -4.830612   -2.747762    0.984410
     19          1           0       -3.645459   -3.133635   -0.272337
     20          1           0       -5.377383   -3.294564   -0.609753
     21          6           0        2.926962   -0.155528    0.298633
     22          6           0        1.906858   -1.292647    0.232805
     23          6           0        0.505974   -0.855680    0.662199
     24          1           0        2.962186    0.238054    1.323717
     25          1           0        2.587042    0.670189   -0.341711
     26          1           0        2.249292   -2.116530    0.872002
     27          1           0        1.874198   -1.683695   -0.792197
     28          1           0        0.139714   -0.049380    0.018512
     29          1           0        0.516939   -0.484673    1.692167
     30          1           0       -0.207322   -1.683981    0.607539
     31          6           0        4.332141   -0.576815   -0.127651
     32          6           0        5.352246    0.560304   -0.061824
     33          6           0        6.753129    0.123337   -0.491217
     34          1           0        4.672061   -1.402533    0.512693
     35          1           0        4.296918   -0.970398   -1.152735
     36          1           0        5.384905    0.951352    0.963179
     37          1           0        5.009812    1.384187   -0.701020
     38          1           0        6.742166   -0.247670   -1.521185
     39          1           0        7.119390   -0.682964    0.152471
     40          1           0        7.466425    0.951638   -0.436556
 ---------------------------------------------------------------------

 SCF Done:  E(RHF) =  -470.732810936     A.U. after   11 cycles
 E2 =    -0.1583275785D+01 EUMP2 =    -0.47231608672030D+03

 The electronic state is 1-A.
 Alpha  occ. eigenvalues --  -11.21643 -11.21622 -11.21540 -11.21492 -11.21438
 Alpha  occ. eigenvalues --  -11.21378 -11.21314 -11.21237 -11.21120 -11.21088
 Alpha  occ. eigenvalues --  -11.21040 -11.21018  -1.08467  -1.08351  -1.03570
 Alpha  occ. eigenvalues --   -1.03465  -0.96025  -0.95914  -0.87045  -0.86935
 Alpha  occ. eigenvalues --   -0.79664  -0.79516  -0.78302  -0.78122  -0.65129
 Alpha  occ. eigenvalues --   -0.64967  -0.61009  -0.60843  -0.59409  -0.59276
 Alpha  occ. eigenvalues --   -0.57650  -0.57504  -0.55321  -0.55206  -0.52765
 Alpha  occ. eigenvalues --   -0.52620  -0.52468  -0.52299  -0.50006  -0.49849
 Alpha  occ. eigenvalues --   -0.48086  -0.47739  -0.46762  -0.46492  -0.45909
 Alpha  occ. eigenvalues --   -0.45764  -0.45681  -0.45397  -0.43782  -0.43701
 Alpha virt. eigenvalues --    0.21623   0.23035   0.23933   0.24244   0.25609
 Alpha virt. eigenvalues --    0.26685   0.27055   0.27428   0.27919   0.29404
 Alpha virt. eigenvalues --    0.29727   0.31564   0.31735   0.31922   0.32326

 Mulliken charges:
               1
     1  C   -0.297646
     2  C   -0.306498
     3  C   -0.475263
     4  H    0.148608
     5  H    0.149136
     6  H    0.159417
     7  H    0.151658
     8  H    0.154993
     9  H    0.154446
    10  H    0.159944
    11  C   -0.304708
    12  C   -0.299334
    13  C   -0.475521
    14  H    0.157702
    15  H    0.149109
    16  H    0.151472
    17  H    0.151666
    18  H    0.155164
    19  H    0.154404
    20  H    0.160095
    21  C   -0.298519
    22  C   -0.299935
    23  C   -0.480694
    24  H    0.149881
    25  H    0.149332
    26  H    0.152160
    27  H    0.151727
    28  H    0.158550
    29  H    0.156478
    30  H    0.161826
    31  C   -0.298290
    32  C   -0.299673
    33  C   -0.475725
    34  H    0.149654
    35  H    0.149641
    36  H    0.152019
    37  H    0.151966
    38  H    0.155188
    39  H    0.155227
    40  H    0.160342
 Sum of Mulliken charges =  -0.00000

 Dipole moment (field-independent basis, Debye):
    X=              0.0526    Y=             -0.0174    Z=              0.0216  Tot=              0.0594
 Quadrupole moment (field-independent basis, Debye-Ang):
   XX=            -85.6300   YY=            -86.0022   ZZ=            -83.4248
   XY=             -0.1093   XZ=              0.0113   YZ=              0.1254

 Normal termination of Gaussian 16 at Thu May  6 08:25:02 2021.
