 Gaussian 16, Revision A.03,
 Gaussian 16:  EM64L-G16RevA.03 25-Dec-2016

 -------------
 #p 6-31g* mp2
 -------------

 ------------------------------------------------------
 Input file generated by CHIRIPA (05-May-2021 14:57:22)
 ------------------------------------------------------
 Symbolic Z-matrix:
 Charge =  0 Multiplicity = 1

                         Standard orientation:
 ---------------------------------------------------------------------
 Center     Atomic      Atomic             Coordinates (Angstroms)
 Number     Number       Type             X           Y           Z
 ---------------------------------------------------------------------
      1          6           0       -5.175275   -1.794778    0.070668
      2          6           0       -5.247373   -0.636634    0.851710
      3          6           0       -4.281215    0.365974    0.725756
      4          6           0       -3.252045    0.176708   -0.195264
      5          6           0       -3.152865   -0.965883   -0.987691
      6          6           0       -4.130094   -1.955423   -0.844925
      7          1           0       -5.930110   -2.568552    0.175042
      8          1           0       -6.057948   -0.509173    1.563584
      9          1           0       -4.312900    1.272539    1.317833
     10          1           0       -2.332983   -1.064473   -1.688755
     11          1           0       -4.071573   -2.853808   -1.452810
     12          7           0       -2.223357    1.231206   -0.337505
     13          8           0       -1.326670    1.040427   -1.156158
     14          8           0       -2.333236    2.228535    0.372354
     15          6           0        1.657667    1.784702    0.414605
     16          6           0        2.725531    1.970493   -0.469515
     17          6           0        3.708624    0.986757   -0.612131
     18          6           0        3.592114   -0.175734    0.148350
     19          6           0        2.540190   -0.390243    1.037580
     20          6           0        1.568561    0.607003    1.164009
     21          1           0        0.898429    2.554140    0.519105
     22          1           0        2.797296    2.884103   -1.052792
     23          1           0        4.545932    1.104646   -1.289211
     24          1           0        2.495678   -1.311577    1.605540
     25          1           0        0.740355    0.459997    1.851401
     26          7           0        4.626803   -1.224323    0.005937
     27          8           0        4.501339   -2.239526    0.687301
     28          8           0        5.543663   -1.011147   -0.784355
 ---------------------------------------------------------------------

 SCF Done:  E(RHF) =  -868.340305559     A.U. after   16 cycles
 E2 =    -0.2599508078D+01 EUMP2 =    -0.87093981363752D+03

 The electronic state is 1-A.
 Alpha  occ. eigenvalues --  -20.61914 -20.61860 -20.59991 -20.59983 -15.86867
 Alpha  occ. eigenvalues --  -15.85040 -11.31927 -11.30094 -11.28468 -11.28428
 Alpha  occ. eigenvalues --  -11.28127 -11.27397 -11.27366 -11.26728 -11.26690
 Alpha  occ. eigenvalues --  -11.26144 -11.25560 -11.25497  -1.60951  -1.59076
 Alpha  occ. eigenvalues --   -1.40503  -1.38638  -1.20069  -1.18246  -1.09525
 Alpha  occ. eigenvalues --   -1.07636  -1.05415  -1.03641  -0.96410  -0.94528
 Alpha  occ. eigenvalues --   -0.86827  -0.85026  -0.83245  -0.81408  -0.78332
 Alpha  occ. eigenvalues --   -0.76543  -0.73097  -0.72267  -0.71264  -0.71161
 Alpha  occ. eigenvalues --   -0.70400  -0.69223  -0.65716  -0.65407  -0.63885
 Alpha  occ. eigenvalues --   -0.63642  -0.62760  -0.61030  -0.55928  -0.53972
 Alpha  occ. eigenvalues --   -0.53763  -0.53495  -0.51960  -0.51735  -0.49886
 Alpha  occ. eigenvalues --   -0.49818  -0.48035  -0.47990  -0.45966  -0.44116
 Alpha  occ. eigenvalues --   -0.38036  -0.37006  -0.36029  -0.35272
 Alpha virt. eigenvalues --    0.04136   0.06060   0.10654   0.12409   0.15718
 Alpha virt. eigenvalues --    0.17666   0.20858   0.22634   0.26796   0.27723
 Alpha virt. eigenvalues --    0.28257   0.29668   0.30519   0.31932   0.32406

 Mulliken charges:
               1
     1  C   -0.169581
     2  C   -0.218630
     3  C   -0.171523
     4  C    0.156638
     5  C   -0.170550
     6  C   -0.218605
     7  H    0.228572
     8  H    0.225513
     9  H    0.275195
    10  H    0.278198
    11  H    0.226971
    12  N    0.486539
    13  O   -0.456628
    14  O   -0.467948
    15  C   -0.155196
    16  C   -0.221098
    17  C   -0.171549
    18  C    0.155641
    19  C   -0.172921
    20  C   -0.222021
    21  H    0.242432
    22  H    0.222129
    23  H    0.271639
    24  H    0.269644
    25  H    0.217546
    26  N    0.488412
    27  O   -0.465259
    28  O   -0.463561
 Sum of Mulliken charges =  -0.00000

 Dipole moment (field-independent basis, Debye):
    X=             -7.8156    Y=              0.0890    Z=              0.8716  Tot=              7.8645
 Quadrupole moment (field-independent basis, Debye-Ang):
   XX=           -106.9650   YY=           -105.0196   ZZ=           -101.1153
   XY=             26.7774   XZ=             -3.4784   YZ=              1.4193

 Normal termination of Gaussian 16 at Thu May  6 19:33:35 2021.
