 Gaussian 16, Revision A.03,
 Gaussian 16:  EM64L-G16RevA.03 25-Dec-2016

 -------------
 #p 6-31g* mp2
 -------------

 ------------------------------------------------------
 Input file generated by CHIRIPA (05-May-2021 14:57:26)
 ------------------------------------------------------
 Symbolic Z-matrix:
 Charge =  0 Multiplicity = 1

                         Standard orientation:
 ---------------------------------------------------------------------
 Center     Atomic      Atomic             Coordinates (Angstroms)
 Number     Number       Type             X           Y           Z
 ---------------------------------------------------------------------
      1          6           0       -0.905287   -0.880181    1.589063
      2          6           0       -1.932321   -1.803531    1.367372
      3          6           0       -3.072871   -1.437408    0.646507
      4          6           0       -3.153741   -0.133715    0.159541
      5          6           0       -2.147358    0.809019    0.363829
      6          6           0       -1.015889    0.420854    1.087468
      7          1           0       -0.022808   -1.173156    2.150126
      8          1           0       -1.849139   -2.814620    1.755735
      9          1           0       -3.882856   -2.132137    0.460245
     10          1           0       -2.258857    1.809672   -0.035770
     11          1           0       -0.219842    1.140047    1.258102
     12          7           0       -4.356384    0.265551   -0.605075
     13          8           0       -4.403503    1.420227   -1.023573
     14          8           0       -5.229124   -0.583740   -0.771405
     15          6           0        2.212161    2.550118    0.251105
     16          6           0        3.249730    1.960336    0.980578
     17          6           0        3.669858    0.658523    0.691924
     18          6           0        3.027398   -0.027728   -0.337442
     19          6           0        1.990725    0.532555   -1.082212
     20          6           0        1.587072    1.835604   -0.776151
     21          1           0        1.892195    3.561879    0.482100
     22          1           0        3.737002    2.512866    1.778903
     23          1           0        4.470534    0.177817    1.240794
     24          1           0        1.524157   -0.043219   -1.872287
     25          1           0        0.781013    2.291108   -1.344332
     26          7           0        3.463447   -1.406555   -0.652241
     27          8           0        2.881256   -1.990049   -1.563956
     28          8           0        4.379157   -1.877676    0.018695
 ---------------------------------------------------------------------

 SCF Done:  E(RHF) =  -868.336568920     A.U. after   16 cycles
 E2 =    -0.2602807122D+01 EUMP2 =    -0.87093937604215D+03

 The electronic state is 1-A.
 Alpha  occ. eigenvalues --  -20.61553 -20.61539 -20.60984 -20.60964 -15.86604
 Alpha  occ. eigenvalues --  -15.86026 -11.32121 -11.31372 -11.28687 -11.28618
 Alpha  occ. eigenvalues --  -11.28435 -11.27937 -11.27842 -11.27750 -11.27677
 Alpha  occ. eigenvalues --  -11.27550 -11.26864 -11.26812  -1.60626  -1.60052
 Alpha  occ. eigenvalues --   -1.40171  -1.39607  -1.20321  -1.19502  -1.09694
 Alpha  occ. eigenvalues --   -1.08890  -1.05717  -1.04892  -0.96482  -0.95743
 Alpha  occ. eigenvalues --   -0.87100  -0.86287  -0.83288  -0.82579  -0.78313
 Alpha  occ. eigenvalues --   -0.77649  -0.72810  -0.72243  -0.71963  -0.71376
 Alpha  occ. eigenvalues --   -0.71370  -0.70597  -0.65936  -0.65683  -0.65139
 Alpha  occ. eigenvalues --   -0.64924  -0.63014  -0.62288  -0.56191  -0.55387
 Alpha  occ. eigenvalues --   -0.54290  -0.53761  -0.53192  -0.52746  -0.49587
 Alpha  occ. eigenvalues --   -0.49560  -0.49009  -0.48989  -0.45540  -0.45019
 Alpha  occ. eigenvalues --   -0.38347  -0.37831  -0.37224  -0.36155
 Alpha virt. eigenvalues --    0.04133   0.04871   0.10251   0.11151   0.15441
 Alpha virt. eigenvalues --    0.16558   0.20217   0.21669   0.25770   0.27336
 Alpha virt. eigenvalues --    0.27919   0.28275   0.30170   0.31258   0.31703

 Mulliken charges:
               1
     1  C   -0.174306
     2  C   -0.216196
     3  C   -0.171735
     4  C    0.160081
     5  C   -0.180202
     6  C   -0.217347
     7  H    0.227541
     8  H    0.226540
     9  H    0.276549
    10  H    0.268478
    11  H    0.227562
    12  N    0.488099
    13  O   -0.463226
    14  O   -0.458417
    15  C   -0.180754
    16  C   -0.218705
    17  C   -0.174145
    18  C    0.155623
    19  C   -0.164791
    20  C   -0.225853
    21  H    0.229162
    22  H    0.226937
    23  H    0.277820
    24  H    0.281128
    25  H    0.228804
    26  N    0.487267
    27  O   -0.456448
    28  O   -0.459463
 Sum of Mulliken charges =  -0.00000

 Dipole moment (field-independent basis, Debye):
    X=              2.9052    Y=              3.2919    Z=              3.7335  Tot=              5.7633
 Quadrupole moment (field-independent basis, Debye-Ang):
   XX=           -138.6269   YY=           -101.0183   ZZ=           -102.9906
   XY=             21.2931   XZ=             -1.4990   YZ=             -2.7791

 Normal termination of Gaussian 16 at Thu May  6 21:21:03 2021.
