 Gaussian 16, Revision A.03,
 Gaussian 16:  EM64L-G16RevA.03 25-Dec-2016

 -------------
 #p 6-31g* mp2
 -------------

 ------------------------------------------------------
 Input file generated by CHIRIPA (05-May-2021 14:57:25)
 ------------------------------------------------------
 Symbolic Z-matrix:
 Charge =  0 Multiplicity = 1

                         Standard orientation:
 ---------------------------------------------------------------------
 Center     Atomic      Atomic             Coordinates (Angstroms)
 Number     Number       Type             X           Y           Z
 ---------------------------------------------------------------------
      1          6           0        6.764712    1.130864   -0.204892
      2          6           0        5.579551    1.818942   -0.485004
      3          6           0        4.344442    1.169437   -0.400173
      4          6           0        4.331285   -0.174645   -0.030632
      5          6           0        5.494827   -0.887440    0.254644
      6          6           0        6.718649   -0.217753    0.163389
      7          1           0        7.719791    1.643254   -0.273287
      8          1           0        5.612297    2.866335   -0.771258
      9          1           0        3.411697    1.678083   -0.611561
     10          1           0        5.430280   -1.931122    0.537449
     11          1           0        7.637464   -0.754643    0.381500
     12          7           0        3.029705   -0.872929    0.062576
     13          8           0        3.045049   -2.057413    0.390292
     14          8           0        2.018827   -0.222538   -0.193850
     15          6           0       -2.078537   -0.180882    0.515801
     16          6           0       -2.599391   -0.588405   -0.716740
     17          6           0       -3.964844   -0.459879   -0.987976
     18          6           0       -4.784327    0.082804    0.000574
     19          6           0       -4.295409    0.497980    1.238265
     20          6           0       -2.926713    0.360055    1.487656
     21          1           0       -1.016561   -0.284375    0.718017
     22          1           0       -1.943051   -1.008850   -1.473371
     23          1           0       -4.394561   -0.767295   -1.933626
     24          1           0       -4.974606    0.913462    1.972762
     25          1           0       -2.524987    0.677389    2.445759
     26          7           0       -6.231587    0.223843   -0.275007
     27          8           0       -6.932511    0.705020    0.612582
     28          8           0       -6.637623   -0.149457   -1.373378
 ---------------------------------------------------------------------

 SCF Done:  E(RHF) =  -868.340726385     A.U. after   16 cycles
 E2 =    -0.2597927405D+01 EUMP2 =    -0.87093865378986D+03

 The electronic state is 1-A.
 Alpha  occ. eigenvalues --  -20.61915 -20.61883 -20.60035 -20.60029 -15.86917
 Alpha  occ. eigenvalues --  -15.85083 -11.31974 -11.30231 -11.28509 -11.28492
 Alpha  occ. eigenvalues --  -11.28181 -11.27445 -11.27433 -11.26822 -11.26781
 Alpha  occ. eigenvalues --  -11.26245 -11.25715 -11.25620  -1.60958  -1.59116
 Alpha  occ. eigenvalues --   -1.40519  -1.38676  -1.20115  -1.18369  -1.09567
 Alpha  occ. eigenvalues --   -1.07753  -1.05469  -1.03755  -0.96454  -0.94630
 Alpha  occ. eigenvalues --   -0.86881  -0.85131  -0.83298  -0.81490  -0.78377
 Alpha  occ. eigenvalues --   -0.76611  -0.73158  -0.72253  -0.71303  -0.71215
 Alpha  occ. eigenvalues --   -0.70439  -0.69332  -0.65770  -0.65465  -0.63996
 Alpha  occ. eigenvalues --   -0.63728  -0.62819  -0.61119  -0.55977  -0.54064
 Alpha  occ. eigenvalues --   -0.53815  -0.53553  -0.52087  -0.51823  -0.49920
 Alpha  occ. eigenvalues --   -0.49875  -0.48072  -0.48038  -0.45989  -0.44131
 Alpha  occ. eigenvalues --   -0.38074  -0.37058  -0.36267  -0.35388
 Alpha virt. eigenvalues --    0.04125   0.05936   0.10601   0.12288   0.15682
 Alpha virt. eigenvalues --    0.17507   0.20777   0.22647   0.26715   0.27628
 Alpha virt. eigenvalues --    0.28338   0.29626   0.30402   0.31802   0.32416

 Mulliken charges:
               1
     1  C   -0.169637
     2  C   -0.218509
     3  C   -0.170796
     4  C    0.157307
     5  C   -0.170268
     6  C   -0.218558
     7  H    0.228305
     8  H    0.225741
     9  H    0.275004
    10  H    0.276640
    11  H    0.225877
    12  N    0.490527
    13  O   -0.456784
    14  O   -0.471635
    15  C   -0.177527
    16  C   -0.221247
    17  C   -0.172474
    18  C    0.156804
    19  C   -0.172049
    20  C   -0.220763
    21  H    0.249364
    22  H    0.227898
    23  H    0.272412
    24  H    0.271859
    25  H    0.220581
    26  N    0.488334
    27  O   -0.463461
    28  O   -0.462946
 Sum of Mulliken charges =  -0.00000

 Dipole moment (field-independent basis, Debye):
    X=             10.3897    Y=              1.9144    Z=              0.6331  Tot=             10.5836
 Quadrupole moment (field-independent basis, Debye-Ang):
   XX=           -114.0511   YY=           -102.1825   ZZ=           -101.3917
   XY=             10.5056   XZ=             -6.1508   YZ=              0.7109

 Normal termination of Gaussian 16 at Thu May  6 21:19:31 2021.
