 Gaussian 16, Revision A.03,
 Gaussian 16:  EM64L-G16RevA.03 25-Dec-2016

 -------------
 #p 6-31g* mp2
 -------------

 ------------------------------------------------------
 Input file generated by CHIRIPA (05-May-2021 14:51:13)
 ------------------------------------------------------
 Symbolic Z-matrix:
 Charge =  0 Multiplicity = 1

                         Standard orientation:
 ---------------------------------------------------------------------
 Center     Atomic      Atomic             Coordinates (Angstroms)
 Number     Number       Type             X           Y           Z
 ---------------------------------------------------------------------
      1          6           0       -1.426369    1.601669    0.535526
      2          6           0       -0.447994    2.603214   -0.079027
      3          6           0        0.441373    3.277990    0.965720
      4          1           0       -2.053824    2.118120    1.274798
      5          1           0       -0.860401    0.837090    1.085521
      6          1           0       -1.015570    3.364896   -0.628858
      7          1           0        0.177076    2.084359   -0.817061
      8          1           0        1.032676    2.532716    1.507504
      9          1           0       -0.166747    3.820529    1.696776
     10          1           0        1.133031    3.989941    0.504641
     11          6           0       -2.322331    0.918857   -0.496340
     12          6           0       -3.300706   -0.082688    0.118213
     13          6           0       -4.190073   -0.757463   -0.926535
     14          1           0       -2.888299    1.683436   -1.046336
     15          1           0       -1.694875    0.402406   -1.235612
     16          1           0       -3.925776    0.436167    0.856246
     17          1           0       -2.733130   -0.844370    0.668044
     18          1           0       -3.581953   -1.300003   -1.657590
     19          1           0       -4.781375   -0.012190   -1.468318
     20          1           0       -4.881731   -1.469415   -0.465455
     21          6           0        2.178943   -0.718749   -0.463909
     22          6           0        3.563729   -0.263554   -0.002228
     23          6           0        4.159969    0.820058   -0.901160
     24          1           0        2.247555   -1.092304   -1.494780
     25          1           0        1.505250    0.148921   -0.490058
     26          1           0        4.234245   -1.132067    0.024369
     27          1           0        3.491848    0.108784    1.027730
     28          1           0        3.513956    1.703759   -0.919638
     29          1           0        4.260572    0.455858   -1.928699
     30          1           0        5.149940    1.130735   -0.552882
     31          6           0        1.569757   -1.801778    0.424723
     32          6           0        0.184971   -2.256973   -0.036957
     33          6           0       -0.411269   -3.340584    0.861974
     34          1           0        2.243450   -2.669447    0.450872
     35          1           0        1.501144   -1.428222    1.455595
     36          1           0        0.256852   -2.629310   -1.066916
     37          1           0       -0.485545   -1.388459   -0.063554
     38          1           0       -0.511872   -2.976384    1.889514
     39          1           0        0.234743   -4.224285    0.880452
     40          1           0       -1.401240   -3.651261    0.513696
 ---------------------------------------------------------------------

 SCF Done:  E(RHF) =  -470.731927526     A.U. after   11 cycles
 E2 =    -0.1586644347D+01 EUMP2 =    -0.47231857187361D+03

 The electronic state is 1-A.
 Alpha  occ. eigenvalues --  -11.21669 -11.21633 -11.21608 -11.21604 -11.21468
 Alpha  occ. eigenvalues --  -11.21445 -11.21392 -11.21381 -11.21160 -11.21123
 Alpha  occ. eigenvalues --  -11.21085 -11.21082  -1.08596  -1.08392  -1.03646
 Alpha  occ. eigenvalues --   -1.03515  -0.96042  -0.96018  -0.87072  -0.87018
 Alpha  occ. eigenvalues --   -0.79680  -0.79619  -0.78356  -0.78268  -0.65804
 Alpha  occ. eigenvalues --   -0.64535  -0.61380  -0.60660  -0.59403  -0.59351
 Alpha  occ. eigenvalues --   -0.57648  -0.57612  -0.55347  -0.55306  -0.52726
 Alpha  occ. eigenvalues --   -0.52707  -0.52501  -0.52406  -0.50084  -0.49875
 Alpha  occ. eigenvalues --   -0.48060  -0.47849  -0.46816  -0.46648  -0.46211
 Alpha  occ. eigenvalues --   -0.45792  -0.45723  -0.45243  -0.43837  -0.43819
 Alpha virt. eigenvalues --    0.19012   0.21329   0.23457   0.25142   0.25929
 Alpha virt. eigenvalues --    0.26114   0.26772   0.27998   0.28885   0.30249
 Alpha virt. eigenvalues --    0.31348   0.31398   0.31483   0.32041   0.32723

 Mulliken charges:
               1
     1  C   -0.301779
     2  C   -0.304530
     3  C   -0.476967
     4  H    0.150784
     5  H    0.150594
     6  H    0.153388
     7  H    0.155188
     8  H    0.155295
     9  H    0.155905
    10  H    0.160739
    11  C   -0.303207
    12  C   -0.304122
    13  C   -0.475867
    14  H    0.151603
    15  H    0.151509
    16  H    0.152302
    17  H    0.156253
    18  H    0.155687
    19  H    0.155297
    20  H    0.160262
    21  C   -0.308702
    22  C   -0.299029
    23  C   -0.476984
    24  H    0.149570
    25  H    0.159323
    26  H    0.152167
    27  H    0.151785
    28  H    0.156374
    29  H    0.155080
    30  H    0.160520
    31  C   -0.297040
    32  C   -0.312666
    33  C   -0.475971
    34  H    0.149970
    35  H    0.148812
    36  H    0.151646
    37  H    0.165434
    38  H    0.154858
    39  H    0.155649
    40  H    0.160872
 Sum of Mulliken charges =  -0.00000

 Dipole moment (field-independent basis, Debye):
    X=             -0.0199    Y=              0.0180    Z=             -0.0078  Tot=              0.0279
 Quadrupole moment (field-independent basis, Debye-Ang):
   XX=            -84.9287   YY=            -84.6131   ZZ=            -85.1467
   XY=             -1.6707   XZ=             -0.4749   YZ=              0.5841

 Normal termination of Gaussian 16 at Wed May  5 23:13:20 2021.
