 Gaussian 16, Revision A.03,
 Gaussian 16:  EM64L-G16RevA.03 25-Dec-2016

 -------------
 #p 6-31g* mp2
 -------------

 ------------------------------------------------------
 Input file generated by CHIRIPA (05-May-2021 14:53:12)
 ------------------------------------------------------
 Symbolic Z-matrix:
 Charge =  0 Multiplicity = 1

                         Standard orientation:
 ---------------------------------------------------------------------
 Center     Atomic      Atomic             Coordinates (Angstroms)
 Number     Number       Type             X           Y           Z
 ---------------------------------------------------------------------
      1          6           0       -4.716800   -0.234072   -0.108482
      2          6           0       -4.684361   -1.762773   -0.106184
      3          6           0       -6.079664   -2.383554   -0.031653
      4          1           0       -5.227839    0.116859    0.798508
      5          1           0       -5.318925    0.111675   -0.960127
      6          1           0       -4.081330   -2.105509    0.744405
      7          1           0       -4.173170   -2.110100   -1.013192
      8          1           0       -6.686959   -2.070086   -0.886949
      9          1           0       -6.594597   -2.065469    0.880634
     10          1           0       -6.033074   -3.477030   -0.031231
     11          6           0       -3.329481    0.401205   -0.182634
     12          6           0       -3.361919    1.929906   -0.184932
     13          6           0       -1.966616    2.550687   -0.259463
     14          1           0       -2.727355    0.055458    0.669011
     15          1           0       -2.818441    0.050275   -1.089624
     16          1           0       -3.873110    2.277234    0.722076
     17          1           0       -3.964951    2.272643   -1.035520
     18          1           0       -1.451683    2.232602   -1.171750
     19          1           0       -1.359321    2.237220    0.595833
     20          1           0       -2.013206    3.644163   -0.259885
     21          6           0        1.624879    1.866111    0.688778
     22          6           0        1.679208    0.745612    1.524272
     23          6           0        2.516785   -0.330340    1.215499
     24          6           0        3.289852   -0.252006    0.058123
     25          6           0        3.257811    0.850556   -0.794297
     26          6           0        2.412964    1.914922   -0.465804
     27          1           0        0.971405    2.697437    0.936300
     28          1           0        1.068292    0.704958    2.421587
     29          1           0        2.578336   -1.209988    1.844666
     30          1           0        3.878616    0.862134   -1.681926
     31          1           0        2.372813    2.783838   -1.116509
     32          7           0        4.180406   -1.384937   -0.279200
     33          8           0        4.851505   -1.291485   -1.304641
     34          8           0        4.190459   -2.344925    0.488235
 ---------------------------------------------------------------------

 SCF Done:  E(RHF) =  -669.535057721     A.U. after   15 cycles
 E2 =    -0.2091483662D+01 EUMP2 =    -0.67162654138292D+03

 The electronic state is 1-A.
 Alpha  occ. eigenvalues --  -20.60729 -20.60724 -15.85784 -11.31134 -11.27724
 Alpha  occ. eigenvalues --  -11.27718 -11.27413 -11.26721 -11.26700 -11.22304
 Alpha  occ. eigenvalues --  -11.22032 -11.21935 -11.21920 -11.21789 -11.21327
 Alpha  occ. eigenvalues --   -1.59805  -1.39359  -1.19315  -1.08946  -1.08706
 Alpha  occ. eigenvalues --   -1.04719  -1.04077  -0.96555  -0.95540  -0.87579
 Alpha  occ. eigenvalues --   -0.86116  -0.82382  -0.80155  -0.78723  -0.77429
 Alpha  occ. eigenvalues --   -0.72002  -0.71129  -0.70435  -0.65576  -0.64966
 Alpha  occ. eigenvalues --   -0.64726  -0.62071  -0.61478  -0.59926  -0.58150
 Alpha  occ. eigenvalues --   -0.55936  -0.55172  -0.53259  -0.53176  -0.52812
 Alpha  occ. eigenvalues --   -0.52785  -0.50483  -0.48761  -0.48757  -0.48446
 Alpha  occ. eigenvalues --   -0.47167  -0.46272  -0.46179  -0.44768  -0.44320
 Alpha  occ. eigenvalues --   -0.37244  -0.36329
 Alpha virt. eigenvalues --    0.05097   0.11260   0.16547   0.20753   0.22462
 Alpha virt. eigenvalues --    0.23905   0.25876   0.26553   0.26990   0.27446
 Alpha virt. eigenvalues --    0.28871   0.30519   0.30902   0.31256   0.31875

 Mulliken charges:
               1
     1  C   -0.298827
     2  C   -0.299984
     3  C   -0.476040
     4  H    0.149518
     5  H    0.150613
     6  H    0.151764
     7  H    0.153660
     8  H    0.155727
     9  H    0.155060
    10  H    0.161924
    11  C   -0.297991
    12  C   -0.299926
    13  C   -0.478419
    14  H    0.147434
    15  H    0.152344
    16  H    0.152469
    17  H    0.154743
    18  H    0.158858
    19  H    0.147011
    20  H    0.158973
    21  C   -0.167026
    22  C   -0.220243
    23  C   -0.170515
    24  C    0.158113
    25  C   -0.170932
    26  C   -0.220861
    27  H    0.229046
    28  H    0.222473
    29  H    0.275371
    30  H    0.275379
    31  H    0.223500
    32  N    0.488143
    33  O   -0.460678
    34  O   -0.460683
 Sum of Mulliken charges =  -0.00000

 Dipole moment (field-independent basis, Debye):
    X=             -3.2698    Y=              3.9614    Z=              1.1272  Tot=              5.2588
 Quadrupole moment (field-independent basis, Debye-Ang):
   XX=           -116.2599   YY=            -96.5609   ZZ=            -90.4592
   XY=             14.4562   XZ=              2.5323   YZ=             -2.4025

 Normal termination of Gaussian 16 at Thu May  6 07:14:53 2021.
