 Gaussian 16, Revision A.03,
 Gaussian 16:  EM64L-G16RevA.03 25-Dec-2016

 -------------
 #p 6-31g* mp2
 -------------

 ------------------------------------------------------
 Input file generated by CHIRIPA (05-May-2021 14:51:07)
 ------------------------------------------------------
 Symbolic Z-matrix:
 Charge =  0 Multiplicity = 1

                         Standard orientation:
 ---------------------------------------------------------------------
 Center     Atomic      Atomic             Coordinates (Angstroms)
 Number     Number       Type             X           Y           Z
 ---------------------------------------------------------------------
      1          6           0       -2.927781   -0.282297   -0.788034
      2          6           0       -2.909258   -1.727758   -0.289753
      3          6           0       -2.541284   -2.726707   -1.387245
      4          1           0       -3.641999   -0.196522   -1.618384
      5          1           0       -1.939955   -0.030488   -1.198142
      6          1           0       -3.896415   -1.976325    0.120554
      7          1           0       -2.195142   -1.810060    0.539632
      8          1           0       -1.547756   -2.506683   -1.791093
      9          1           0       -3.258696   -2.673893   -2.212552
     10          1           0       -2.534020   -3.753801   -1.009243
     11          6           0       -3.293966    0.728113    0.297649
     12          6           0       -3.312488    2.173575   -0.200632
     13          6           0       -3.680463    3.172524    0.896859
     14          1           0       -4.281791    0.476304    0.707757
     15          1           0       -2.579748    0.642339    1.127998
     16          1           0       -4.026605    2.255876   -1.030018
     17          1           0       -2.325332    2.422141   -0.610940
     18          1           0       -2.963051    3.119710    1.722167
     19          1           0       -4.673990    2.952500    1.300708
     20          1           0       -3.687727    4.199618    0.518858
     21          6           0        2.598878   -0.783741    0.162982
     22          6           0        2.016557   -1.272441    1.489654
     23          6           0        0.993802   -2.394508    1.308730
     24          1           0        1.781226   -0.435866   -0.483063
     25          1           0        3.069500   -1.629812   -0.356705
     26          1           0        1.548385   -0.425416    2.007321
     27          1           0        2.835708   -1.619016    2.132689
     28          1           0        1.451906   -3.257309    0.814447
     29          1           0        0.157268   -2.056927    0.688366
     30          1           0        0.590325   -2.728739    2.269645
     31          6           0        3.622869    0.337925    0.327404
     32          6           0        4.205190    0.826625   -0.999269
     33          6           0        5.227944    1.948691   -0.818345
     34          1           0        3.152247    1.183995    0.847091
     35          1           0        4.440521   -0.009950    0.973448
     36          1           0        3.386038    1.173200   -1.642303
     37          1           0        4.673362   -0.020401   -1.516935
     38          1           0        6.064479    1.611111   -0.197981
     39          1           0        4.769841    2.811493   -0.324061
     40          1           0        5.631422    2.282921   -1.779259
 ---------------------------------------------------------------------

 SCF Done:  E(RHF) =  -470.733254631     A.U. after   11 cycles
 E2 =    -0.1582876878D+01 EUMP2 =    -0.47231613150914D+03

 The electronic state is 1-A.
 Alpha  occ. eigenvalues --  -11.21651 -11.21635 -11.21628 -11.21570 -11.21455
 Alpha  occ. eigenvalues --  -11.21428 -11.21394 -11.21369 -11.21096 -11.21095
 Alpha  occ. eigenvalues --  -11.21094 -11.21052  -1.08480  -1.08444  -1.03587
 Alpha  occ. eigenvalues --   -1.03523  -0.96034  -0.95975  -0.87040  -0.87002
 Alpha  occ. eigenvalues --   -0.79664  -0.79572  -0.78293  -0.78254  -0.65204
 Alpha  occ. eigenvalues --   -0.65007  -0.61156  -0.60783  -0.59388  -0.59352
 Alpha  occ. eigenvalues --   -0.57637  -0.57585  -0.55412  -0.55178  -0.52714
 Alpha  occ. eigenvalues --   -0.52674  -0.52449  -0.52398  -0.50038  -0.49877
 Alpha  occ. eigenvalues --   -0.48020  -0.47851  -0.46795  -0.46503  -0.45891
 Alpha  occ. eigenvalues --   -0.45783  -0.45734  -0.45636  -0.43826  -0.43793
 Alpha virt. eigenvalues --    0.20342   0.23212   0.23768   0.24896   0.26085
 Alpha virt. eigenvalues --    0.26711   0.27024   0.27915   0.28141   0.28850
 Alpha virt. eigenvalues --    0.30862   0.31555   0.31651   0.31752   0.31988

 Mulliken charges:
               1
     1  C   -0.298652
     2  C   -0.305531
     3  C   -0.476056
     4  H    0.150032
     5  H    0.148473
     6  H    0.152433
     7  H    0.157017
     8  H    0.155445
     9  H    0.155076
    10  H    0.160952
    11  C   -0.298220
    12  C   -0.299592
    13  C   -0.475701
    14  H    0.149826
    15  H    0.149403
    16  H    0.152110
    17  H    0.151517
    18  H    0.155063
    19  H    0.155340
    20  H    0.160304
    21  C   -0.298358
    22  C   -0.299419
    23  C   -0.482933
    24  H    0.148785
    25  H    0.149899
    26  H    0.151446
    27  H    0.152292
    28  H    0.155810
    29  H    0.162624
    30  H    0.160220
    31  C   -0.298325
    32  C   -0.299690
    33  C   -0.475739
    34  H    0.149462
    35  H    0.149896
    36  H    0.151847
    37  H    0.152074
    38  H    0.155264
    39  H    0.155210
    40  H    0.160397
 Sum of Mulliken charges =  -0.00000

 Dipole moment (field-independent basis, Debye):
    X=              0.0053    Y=             -0.0177    Z=              0.0052  Tot=              0.0192
 Quadrupole moment (field-independent basis, Debye-Ang):
   XX=            -83.7813   YY=            -85.6203   ZZ=            -85.2182
   XY=             -0.8348   XZ=              0.4842   YZ=             -0.5838

 Normal termination of Gaussian 16 at Thu May  6 02:03:25 2021.
