 Gaussian 16, Revision A.03,
 Gaussian 16:  EM64L-G16RevA.03 25-Dec-2016

 -------------
 #p 6-31g* mp2
 -------------

 ------------------------------------------------------
 Input file generated by CHIRIPA (05-May-2021 14:55:22)
 ------------------------------------------------------
 Symbolic Z-matrix:
 Charge =  0 Multiplicity = 1

                         Standard orientation:
 ---------------------------------------------------------------------
 Center     Atomic      Atomic             Coordinates (Angstroms)
 Number     Number       Type             X           Y           Z
 ---------------------------------------------------------------------
      1          6           0        5.388928   -0.946836   -0.726460
      2          6           0        4.331461   -1.856345   -0.621212
      3          6           0        3.092814   -1.449710   -0.116286
      4          6           0        2.945948   -0.120060    0.275826
      5          6           0        3.980400    0.809797    0.183277
      6          6           0        5.210337    0.380991   -0.324588
      7          1           0        6.347756   -1.271331   -1.119841
      8          1           0        4.467284   -2.888173   -0.932546
      9          1           0        2.257280   -2.132918   -0.023943
     10          1           0        3.814727    1.831842    0.501701
     11          1           0        6.029811    1.089519   -0.405187
     12          7           0        1.639258    0.322161    0.811925
     13          8           0        1.535431    1.499099    1.150562
     14          8           0        0.743644   -0.516536    0.883331
     15          6           0       -3.753863    0.870187   -0.570735
     16          6           0       -2.315050    1.163938   -0.144691
     17          6           0       -1.743544    2.413752   -0.814870
     18          1           0       -3.789303    0.751367   -1.662325
     19          1           0       -4.384436    1.737281   -0.330067
     20          1           0       -1.687641    0.296005   -0.384829
     21          1           0       -2.282999    1.281884    0.946033
     22          1           0       -2.345150    3.293820   -0.565565
     23          1           0       -1.746410    2.302339   -1.903988
     24          1           0       -0.714153    2.605100   -0.496122
     25          6           0       -4.339081   -0.376251    0.090810
     26          6           0       -5.777894   -0.670002   -0.335234
     27          6           0       -6.349399   -1.919816    0.334945
     28          1           0       -3.708508   -1.243344   -0.149858
     29          1           0       -4.303642   -0.257430    1.182400
     30          1           0       -5.809945   -0.787947   -1.425958
     31          1           0       -6.405302    0.197931   -0.095096
     32          1           0       -6.346534   -1.808402    1.424063
     33          1           0       -5.747794   -2.799883    0.085639
     34          1           0       -7.378791   -2.111163    0.016197
 ---------------------------------------------------------------------

 SCF Done:  E(RHF) =  -669.536381130     A.U. after   15 cycles
 E2 =    -0.2091934094D+01 EUMP2 =    -0.67162831522385D+03

 The electronic state is 1-A.
 Alpha  occ. eigenvalues --  -20.61056 -20.61050 -15.86059 -11.31353 -11.27911
 Alpha  occ. eigenvalues --  -11.27906 -11.27642 -11.26908 -11.26899 -11.20776
 Alpha  occ. eigenvalues --  -11.20392 -11.20301 -11.20096 -11.19764 -11.19477
 Alpha  occ. eigenvalues --   -1.60093  -1.39653  -1.19516  -1.08926  -1.07236
 Alpha  occ. eigenvalues --   -1.04907  -1.02294  -0.95773  -0.94803  -0.86309
 Alpha  occ. eigenvalues --   -0.85836  -0.82608  -0.78398  -0.77666  -0.76951
 Alpha  occ. eigenvalues --   -0.72272  -0.71404  -0.70624  -0.65172  -0.64909
 Alpha  occ. eigenvalues --   -0.63887  -0.62254  -0.59712  -0.58200  -0.56359
 Alpha  occ. eigenvalues --   -0.55404  -0.54136  -0.53238  -0.52998  -0.51504
 Alpha  occ. eigenvalues --   -0.51223  -0.49065  -0.49009  -0.48796  -0.46712
 Alpha  occ. eigenvalues --   -0.45503  -0.45106  -0.44478  -0.44267  -0.42535
 Alpha  occ. eigenvalues --   -0.37490  -0.36505
 Alpha virt. eigenvalues --    0.04807   0.11151   0.16287   0.21281   0.23948
 Alpha virt. eigenvalues --    0.25540   0.27211   0.27803   0.28127   0.28778
 Alpha virt. eigenvalues --    0.29137   0.30854   0.32314   0.32562   0.32892

 Mulliken charges:
               1
     1  C   -0.170427
     2  C   -0.218565
     3  C   -0.170717
     4  C    0.158565
     5  C   -0.170575
     6  C   -0.218565
     7  H    0.226237
     8  H    0.224018
     9  H    0.275760
    10  H    0.276004
    11  H    0.224080
    12  N    0.488555
    13  O   -0.459180
    14  O   -0.457333
    15  C   -0.298516
    16  C   -0.297848
    17  C   -0.483093
    18  H    0.143505
    19  H    0.144785
    20  H    0.163492
    21  H    0.157857
    22  H    0.148393
    23  H    0.144513
    24  H    0.173838
    25  C   -0.296647
    26  C   -0.298599
    27  C   -0.474831
    28  H    0.149589
    29  H    0.150443
    30  H    0.149272
    31  H    0.150221
    32  H    0.154864
    33  H    0.153799
    34  H    0.157108
 Sum of Mulliken charges =  -0.00000

 Dipole moment (field-independent basis, Debye):
    X=              5.0428    Y=             -1.6358    Z=             -1.7230  Tot=              5.5744
 Quadrupole moment (field-independent basis, Debye-Ang):
   XX=            -69.0451   YY=            -91.0111   ZZ=            -96.3717
   XY=             -3.8673   XZ=             -4.7194   YZ=              1.6068

 Normal termination of Gaussian 16 at Wed May  5 23:53:15 2021.
