 Gaussian 16, Revision A.03,
 Gaussian 16:  EM64L-G16RevA.03 25-Dec-2016

 -------------
 #p 6-31g* mp2
 -------------

 ------------------------------------------------------
 Input file generated by CHIRIPA (05-May-2021 14:57:22)
 ------------------------------------------------------
 Symbolic Z-matrix:
 Charge =  0 Multiplicity = 1

                         Standard orientation:
 ---------------------------------------------------------------------
 Center     Atomic      Atomic             Coordinates (Angstroms)
 Number     Number       Type             X           Y           Z
 ---------------------------------------------------------------------
      1          6           0       -0.651184    2.237767   -0.273940
      2          6           0       -1.797770    2.364311    0.517165
      3          6           0       -2.793558    1.383498    0.486184
      4          6           0       -2.609332    0.284314   -0.351159
      5          6           0       -1.478231    0.129733   -1.151163
      6          6           0       -0.495348    1.122847   -1.104116
      7          1           0        0.117356    3.004464   -0.243633
      8          1           0       -1.921472    3.229096    1.162835
      9          1           0       -3.691152    1.456316    1.088214
     10          1           0       -1.383146   -0.743668   -1.784840
     11          1           0        0.394063    1.021935   -1.719590
     12          7           0       -3.656698   -0.760540   -0.392462
     13          8           0       -3.470563   -1.719349   -1.138570
     14          8           0       -4.643925   -0.600904    0.322055
     15          6           0        0.509035   -1.434890    1.645415
     16          6           0        0.960436   -0.141740    1.929172
     17          6           0        2.027708    0.410486    1.214661
     18          6           0        2.623075   -0.361932    0.218570
     19          6           0        2.196184   -1.653187   -0.087561
     20          6           0        1.127260   -2.185165    0.639727
     21          1           0       -0.320689   -1.856008    2.205428
     22          1           0        0.482219    0.443237    2.709657
     23          1           0        2.397332    1.409080    1.413674
     24          1           0        2.692957   -2.212051   -0.871338
     25          1           0        0.778809   -3.189707    0.417192
     26          7           0        3.753823    0.211966   -0.544614
     27          8           0        4.261403   -0.489026   -1.417316
     28          8           0        4.111111    1.351913   -0.255645
 ---------------------------------------------------------------------

 SCF Done:  E(RHF) =  -868.336464188     A.U. after   16 cycles
 E2 =    -0.2605771404D+01 EUMP2 =    -0.87094223559214D+03

 The electronic state is 1-A.
 Alpha  occ. eigenvalues --  -20.61483 -20.61460 -20.61285 -20.61280 -15.86520
 Alpha  occ. eigenvalues --  -15.86334 -11.31746 -11.31596 -11.28300 -11.28266
 Alpha  occ. eigenvalues --  -11.28192 -11.28091 -11.27887 -11.27816 -11.27213
 Alpha  occ. eigenvalues --  -11.27200 -11.27166 -11.27011  -1.60563  -1.60369
 Alpha  occ. eigenvalues --   -1.40116  -1.39923  -1.19953  -1.19707  -1.09296
 Alpha  occ. eigenvalues --   -1.09171  -1.05272  -1.05132  -0.96176  -0.96004
 Alpha  occ. eigenvalues --   -0.86670  -0.86537  -0.82997  -0.82842  -0.78080
 Alpha  occ. eigenvalues --   -0.77918  -0.72725  -0.72548  -0.71918  -0.71707
 Alpha  occ. eigenvalues --   -0.71002  -0.70809  -0.65527  -0.65400  -0.65237
 Alpha  occ. eigenvalues --   -0.65134  -0.62623  -0.62491  -0.55718  -0.55616
 Alpha  occ. eigenvalues --   -0.54665  -0.53338  -0.53229  -0.52460  -0.49501
 Alpha  occ. eigenvalues --   -0.49471  -0.49313  -0.49297  -0.45543  -0.45351
 Alpha  occ. eigenvalues --   -0.38430  -0.37712  -0.36684  -0.36213
 Alpha virt. eigenvalues --    0.04194   0.04785   0.10634   0.11015   0.15756
 Alpha virt. eigenvalues --    0.16292   0.20556   0.21357   0.26374   0.26739
 Alpha virt. eigenvalues --    0.27539   0.28569   0.30270   0.30790   0.32093

 Mulliken charges:
               1
     1  C   -0.172862
     2  C   -0.223237
     3  C   -0.174579
     4  C    0.155070
     5  C   -0.168682
     6  C   -0.211355
     7  H    0.229520
     8  H    0.222953
     9  H    0.274802
    10  H    0.274348
    11  H    0.227466
    12  N    0.487065
    13  O   -0.461405
    14  O   -0.460775
    15  C   -0.170088
    16  C   -0.208279
    17  C   -0.174644
    18  C    0.154805
    19  C   -0.177221
    20  C   -0.219290
    21  H    0.231251
    22  H    0.223259
    23  H    0.270581
    24  H    0.276629
    25  H    0.229850
    26  N    0.486280
    27  O   -0.458297
    28  O   -0.463167
 Sum of Mulliken charges =  -0.00000

 Dipole moment (field-independent basis, Debye):
    X=             -0.2810    Y=              1.5418    Z=              2.8644  Tot=              3.2651
 Quadrupole moment (field-independent basis, Debye-Ang):
   XX=           -145.6869   YY=            -96.8290   ZZ=           -100.9142
   XY=            -14.4761   XZ=              2.2522   YZ=              1.6298

 Normal termination of Gaussian 16 at Thu May  6 16:14:43 2021.
