 Gaussian 16, Revision A.03,
 Gaussian 16:  EM64L-G16RevA.03 25-Dec-2016

 -------------
 #p 6-31g* mp2
 -------------

 ------------------------------------------------------
 Input file generated by CHIRIPA (05-May-2021 14:57:23)
 ------------------------------------------------------
 Symbolic Z-matrix:
 Charge =  0 Multiplicity = 1

                         Standard orientation:
 ---------------------------------------------------------------------
 Center     Atomic      Atomic             Coordinates (Angstroms)
 Number     Number       Type             X           Y           Z
 ---------------------------------------------------------------------
      1          6           0        4.870685   -0.703276   -1.823325
      2          6           0        5.360590   -0.964960   -0.539567
      3          6           0        4.630556   -0.584101    0.590276
      4          6           0        3.408898    0.059459    0.398770
      5          6           0        2.894097    0.334193   -0.867244
      6          6           0        3.641169   -0.055677   -1.982785
      7          1           0        5.444411   -1.002636   -2.695459
      8          1           0        6.315139   -1.467740   -0.412710
      9          1           0        4.986268   -0.774323    1.595613
     10          1           0        1.939300    0.837007   -0.961899
     11          1           0        3.258233    0.148846   -2.978564
     12          7           0        2.627025    0.467427    1.587314
     13          8           0        1.553491    1.033037    1.391748
     14          8           0        3.102532    0.213856    2.691955
     15          6           0       -2.348136    2.168218   -0.735071
     16          6           0       -1.670232    0.949849   -0.847073
     17          6           0       -2.319398   -0.253352   -0.554769
     18          6           0       -3.652769   -0.201084   -0.151433
     19          6           0       -4.355277    0.996875   -0.030321
     20          6           0       -3.686136    2.187807   -0.327771
     21          1           0       -1.836090    3.098128   -0.964139
     22          1           0       -0.631097    0.931605   -1.163159
     23          1           0       -1.818497   -1.210632   -0.633073
     24          1           0       -5.390857    0.983143    0.287177
     25          1           0       -4.215111    3.132536   -0.239908
     26          7           0       -4.350585   -1.468364    0.160740
     27          8           0       -5.525525   -1.395370    0.514047
     28          8           0       -3.709380   -2.510658    0.046203
 ---------------------------------------------------------------------

 SCF Done:  E(RHF) =  -868.337294020     A.U. after   16 cycles
 E2 =    -0.2599726147D+01 EUMP2 =    -0.87093702016665D+03

 The electronic state is 1-A.
 Alpha  occ. eigenvalues --  -20.61389 -20.61356 -20.60389 -20.60384 -15.86424
 Alpha  occ. eigenvalues --  -15.85443 -11.31827 -11.30746 -11.28501 -11.28317
 Alpha  occ. eigenvalues --  -11.28068 -11.27428 -11.27334 -11.27326 -11.27316
 Alpha  occ. eigenvalues --  -11.27059 -11.26386 -11.26323  -1.60442  -1.59465
 Alpha  occ. eigenvalues --   -1.40000  -1.39021  -1.19981  -1.18917  -1.09355
 Alpha  occ. eigenvalues --   -1.08326  -1.05398  -1.04325  -0.96197  -0.95171
 Alpha  occ. eigenvalues --   -0.86791  -0.85735  -0.83033  -0.82017  -0.78103
 Alpha  occ. eigenvalues --   -0.77069  -0.72642  -0.71762  -0.71667  -0.71092
 Alpha  occ. eigenvalues --   -0.70783  -0.70039  -0.65633  -0.65413  -0.64584
 Alpha  occ. eigenvalues --   -0.64370  -0.62772  -0.61680  -0.55862  -0.54839
 Alpha  occ. eigenvalues --   -0.53703  -0.53506  -0.52625  -0.52431  -0.49412
 Alpha  occ. eigenvalues --   -0.49385  -0.48421  -0.48419  -0.45396  -0.44441
 Alpha  occ. eigenvalues --   -0.37928  -0.36996  -0.36874  -0.35896
 Alpha virt. eigenvalues --    0.04447   0.05488   0.10640   0.11739   0.15966
 Alpha virt. eigenvalues --    0.16987   0.19010   0.22014   0.24881   0.27210
 Alpha virt. eigenvalues --    0.28672   0.28993   0.30208   0.31093   0.32504

 Mulliken charges:
               1
     1  C   -0.170164
     2  C   -0.217857
     3  C   -0.169330
     4  C    0.158726
     5  C   -0.176309
     6  C   -0.219734
     7  H    0.228094
     8  H    0.226306
     9  H    0.278045
    10  H    0.272687
    11  H    0.223465
    12  N    0.487825
    13  O   -0.465654
    14  O   -0.455580
    15  C   -0.170009
    16  C   -0.208744
    17  C   -0.170769
    18  C    0.158637
    19  C   -0.170833
    20  C   -0.218366
    21  H    0.224754
    22  H    0.218634
    23  H    0.273828
    24  H    0.274539
    25  H    0.222410
    26  N    0.488344
    27  O   -0.461415
    28  O   -0.461532
 Sum of Mulliken charges =  -0.00000

 Dipole moment (field-independent basis, Debye):
    X=              5.4828    Y=              2.9913    Z=             -5.1767  Tot=              8.1122
 Quadrupole moment (field-independent basis, Debye-Ang):
   XX=            -97.5161   YY=           -105.9880   ZZ=           -106.9247
   XY=            -26.2143   XZ=             -8.3602   YZ=             -1.8510

 Normal termination of Gaussian 16 at Fri May  7 07:58:21 2021.
