 Gaussian 16, Revision A.03,
 Gaussian 16:  EM64L-G16RevA.03 25-Dec-2016

 -------------
 #p 6-31g* mp2
 -------------

 ------------------------------------------------------
 Input file generated by CHIRIPA (05-May-2021 14:53:13)
 ------------------------------------------------------
 Symbolic Z-matrix:
 Charge =  0 Multiplicity = 1

                         Standard orientation:
 ---------------------------------------------------------------------
 Center     Atomic      Atomic             Coordinates (Angstroms)
 Number     Number       Type             X           Y           Z
 ---------------------------------------------------------------------
      1          6           0       -4.707267   -0.288901   -0.583082
      2          6           0       -5.715223    0.671933    0.048431
      3          6           0       -6.927646    0.929251   -0.846896
      4          1           0       -4.373316    0.120966   -1.546113
      5          1           0       -5.208600   -1.241032   -0.805584
      6          1           0       -5.211795    1.621493    0.270945
      7          1           0       -6.046669    0.259824    1.010161
      8          1           0       -7.455372   -0.006225   -1.059005
      9          1           0       -6.615754    1.363181   -1.802421
     10          1           0       -7.635299    1.618740   -0.376053
     11          6           0       -3.489663   -0.556054    0.299980
     12          6           0       -2.481708   -1.516889   -0.331532
     13          6           0       -1.269284   -1.774207    0.563794
     14          1           0       -2.988331    0.396077    0.522483
     15          1           0       -3.823615   -0.965921    1.263012
     16          1           0       -2.150261   -1.104779   -1.293262
     17          1           0       -2.985136   -2.466449   -0.554046
     18          1           0       -1.581176   -2.208137    1.519320
     19          1           0       -0.741558   -0.838730    0.775904
     20          1           0       -0.561631   -2.463695    0.092951
     21          6           0        1.290175    1.235831    1.485618
     22          6           0        1.766664   -0.058842    1.716486
     23          6           0        2.825403   -0.571055    0.960669
     24          6           0        3.386747    0.242494   -0.022346
     25          6           0        2.934281    1.536378   -0.276176
     26          6           0        1.874474    2.027912    0.491776
     27          1           0        0.467307    1.625698    2.077469
     28          1           0        1.314815   -0.676238    2.487653
     29          1           0        3.213937   -1.569847    1.118389
     30          1           0        3.404986    2.128070   -1.051906
     31          1           0        1.506487    3.033741    0.310280
     32          7           0        4.508151   -0.288817   -0.828919
     33          8           0        4.985576    0.447979   -1.689055
     34          8           0        4.888450   -1.431996   -0.585704
 ---------------------------------------------------------------------

 SCF Done:  E(RHF) =  -669.534559139     A.U. after   15 cycles
 E2 =    -0.2092434594D+01 EUMP2 =    -0.67162699373263D+03

 The electronic state is 1-A.
 Alpha  occ. eigenvalues --  -20.60788 -20.60783 -15.85840 -11.31227 -11.27774
 Alpha  occ. eigenvalues --  -11.27751 -11.27515 -11.26823 -11.26778 -11.22024
 Alpha  occ. eigenvalues --  -11.22017 -11.21902 -11.21785 -11.21500 -11.21413
 Alpha  occ. eigenvalues --   -1.59862  -1.39415  -1.19396  -1.08882  -1.08791
 Alpha  occ. eigenvalues --   -1.04799  -1.03952  -0.96418  -0.95622  -0.87450
 Alpha  occ. eigenvalues --   -0.86190  -0.82447  -0.80031  -0.78700  -0.77488
 Alpha  occ. eigenvalues --   -0.72059  -0.71185  -0.70500  -0.65513  -0.65047
 Alpha  occ. eigenvalues --   -0.64801  -0.62143  -0.61356  -0.59775  -0.58030
 Alpha  occ. eigenvalues --   -0.55767  -0.55299  -0.53359  -0.53038  -0.52911
 Alpha  occ. eigenvalues --   -0.52659  -0.50326  -0.48820  -0.48813  -0.48339
 Alpha  occ. eigenvalues --   -0.47054  -0.46240  -0.46166  -0.44816  -0.44218
 Alpha  occ. eigenvalues --   -0.37327  -0.36337
 Alpha virt. eigenvalues --    0.05001   0.11201   0.16432   0.21047   0.22498
 Alpha virt. eigenvalues --    0.23984   0.26040   0.26551   0.27000   0.28104
 Alpha virt. eigenvalues --    0.28604   0.30312   0.31374   0.31635   0.31715

 Mulliken charges:
               1
     1  C   -0.298548
     2  C   -0.299572
     3  C   -0.475909
     4  H    0.150700
     5  H    0.151321
     6  H    0.149931
     7  H    0.151945
     8  H    0.156313
     9  H    0.155789
    10  H    0.160738
    11  C   -0.297534
    12  C   -0.299190
    13  C   -0.482859
    14  H    0.143978
    15  H    0.149028
    16  H    0.154386
    17  H    0.153685
    18  H    0.150328
    19  H    0.157915
    20  H    0.162790
    21  C   -0.173461
    22  C   -0.214853
    23  C   -0.171889
    24  C    0.158920
    25  C   -0.171501
    26  C   -0.218198
    27  H    0.226357
    28  H    0.226855
    29  H    0.275837
    30  H    0.275626
    31  H    0.223544
    32  N    0.488001
    33  O   -0.460322
    34  O   -0.460149
 Sum of Mulliken charges =  -0.00000

 Dipole moment (field-independent basis, Debye):
    X=             -3.9524    Y=              1.8633    Z=              2.8044  Tot=              5.1921
 Quadrupole moment (field-independent basis, Debye-Ang):
   XX=           -122.7352   YY=            -89.7953   ZZ=            -94.2653
   XY=              6.2714   XZ=              9.1535   YZ=             -1.9974

 Normal termination of Gaussian 16 at Wed May  5 20:10:47 2021.
