 Gaussian 16, Revision A.03,
 Gaussian 16:  EM64L-G16RevA.03 25-Dec-2016

 -------------
 #p 6-31g* mp2
 -------------

 ------------------------------------------------------
 Input file generated by CHIRIPA (05-May-2021 14:55:22)
 ------------------------------------------------------
 Symbolic Z-matrix:
 Charge =  0 Multiplicity = 1

                         Standard orientation:
 ---------------------------------------------------------------------
 Center     Atomic      Atomic             Coordinates (Angstroms)
 Number     Number       Type             X           Y           Z
 ---------------------------------------------------------------------
      1          6           0       -5.082035    0.347787   -1.051070
      2          6           0       -3.961650    1.146786   -1.301786
      3          6           0       -2.750413    0.895743   -0.650303
      4          6           0       -2.694816   -0.167318    0.249753
      5          6           0       -3.793573   -0.981297    0.520787
      6          6           0       -4.994575   -0.711837   -0.142186
      7          1           0       -6.018978    0.549956   -1.561621
      8          1           0       -4.026655    1.970382   -2.007130
      9          1           0       -1.867598    1.498493   -0.825656
     10          1           0       -3.698034   -1.795152    1.229258
     11          1           0       -5.863061   -1.334007    0.054487
     12          7           0       -1.417951   -0.442834    0.945531
     13          8           0       -1.394922   -1.385425    1.733966
     14          8           0       -0.464351    0.289024    0.689273
     15          6           0        3.760990    0.895243   -0.360605
     16          6           0        3.150636    1.823485    0.690024
     17          6           0        3.242794    3.299067    0.300207
     18          1           0        4.813286    1.169807   -0.516273
     19          1           0        3.251109    1.054299   -1.320874
     20          1           0        3.660586    1.661735    1.648356
     21          1           0        2.099723    1.546555    0.843348
     22          1           0        2.717844    3.481861   -0.642986
     23          1           0        4.287576    3.597696    0.166596
     24          1           0        2.800563    3.944795    1.065275
     25          6           0        3.676472   -0.583154    0.014799
     26          6           0        4.286826   -1.511398   -1.035828
     27          6           0        4.194668   -2.986981   -0.646013
     28          1           0        4.186353   -0.742212    0.975068
     29          1           0        2.624176   -0.857719    0.170468
     30          1           0        5.337739   -1.234467   -1.189154
     31          1           0        3.776876   -1.349647   -1.994162
     32          1           0        3.149886   -3.285608   -0.512401
     33          1           0        4.719618   -3.169774    0.297181
     34          1           0        4.636898   -3.632708   -1.411081
 ---------------------------------------------------------------------

 SCF Done:  E(RHF) =  -669.536459062     A.U. after   15 cycles
 E2 =    -0.2091192526D+01 EUMP2 =    -0.67162765158819D+03

 The electronic state is 1-A.
 Alpha  occ. eigenvalues --  -20.61059 -20.61053 -15.86091 -11.31365 -11.27923
 Alpha  occ. eigenvalues --  -11.27919 -11.27652 -11.26920 -11.26910 -11.20641
 Alpha  occ. eigenvalues --  -11.20250 -11.20203 -11.20181 -11.20118 -11.20067
 Alpha  occ. eigenvalues --   -1.60114  -1.39672  -1.19529  -1.08941  -1.07257
 Alpha  occ. eigenvalues --   -1.04919  -1.02456  -0.95790  -0.94941  -0.86321
 Alpha  occ. eigenvalues --   -0.85962  -0.82629  -0.78502  -0.77686  -0.77036
 Alpha  occ. eigenvalues --   -0.72315  -0.71424  -0.70638  -0.65188  -0.64921
 Alpha  occ. eigenvalues --   -0.63874  -0.62266  -0.59851  -0.58309  -0.56540
 Alpha  occ. eigenvalues --   -0.55424  -0.54238  -0.53253  -0.53010  -0.51675
 Alpha  occ. eigenvalues --   -0.51365  -0.49090  -0.49066  -0.48878  -0.46829
 Alpha  occ. eigenvalues --   -0.45510  -0.45084  -0.44621  -0.44408  -0.42687
 Alpha  occ. eigenvalues --   -0.37506  -0.36518
 Alpha virt. eigenvalues --    0.04836   0.11138   0.16340   0.21243   0.23986
 Alpha virt. eigenvalues --    0.25266   0.27198   0.27635   0.28151   0.28796
 Alpha virt. eigenvalues --    0.29054   0.30863   0.32171   0.32522   0.32800

 Mulliken charges:
               1
     1  C   -0.170446
     2  C   -0.218527
     3  C   -0.170623
     4  C    0.157105
     5  C   -0.170331
     6  C   -0.218608
     7  H    0.226291
     8  H    0.224148
     9  H    0.275645
    10  H    0.276049
    11  H    0.224082
    12  N    0.495745
    13  O   -0.457952
    14  O   -0.468088
    15  C   -0.295116
    16  C   -0.311955
    17  C   -0.474186
    18  H    0.143409
    19  H    0.144822
    20  H    0.148180
    21  H    0.181334
    22  H    0.149724
    23  H    0.150743
    24  H    0.157241
    25  C   -0.303524
    26  C   -0.298580
    27  C   -0.475171
    28  H    0.147076
    29  H    0.167595
    30  H    0.147958
    31  H    0.148329
    32  H    0.157543
    33  H    0.154507
    34  H    0.155582
 Sum of Mulliken charges =  -0.00000

 Dipole moment (field-independent basis, Debye):
    X=             -4.9142    Y=              0.8744    Z=             -2.3282  Tot=              5.5076
 Quadrupole moment (field-independent basis, Debye-Ang):
   XX=            -70.5930   YY=            -94.4440   ZZ=            -95.4001
   XY=             -0.2016   XZ=              5.3384   YZ=             -1.4927

 Normal termination of Gaussian 16 at Wed May  5 17:28:45 2021.
