 Gaussian 16, Revision A.03,
 Gaussian 16:  EM64L-G16RevA.03 25-Dec-2016

 -------------
 #p 6-31g* mp2
 -------------

 ------------------------------------------------------
 Input file generated by CHIRIPA (05-May-2021 14:51:08)
 ------------------------------------------------------
 Symbolic Z-matrix:
 Charge =  0 Multiplicity = 1

                         Standard orientation:
 ---------------------------------------------------------------------
 Center     Atomic      Atomic             Coordinates (Angstroms)
 Number     Number       Type             X           Y           Z
 ---------------------------------------------------------------------
      1          6           0       -2.521996   -0.946184    0.493677
      2          6           0       -1.323128   -1.502760    1.262392
      3          6           0       -1.700248   -2.658623    2.189513
      4          1           0       -3.284554   -0.610086    1.209561
      5          1           0       -2.979348   -1.754377   -0.093731
      6          1           0       -0.867339   -0.693444    1.847098
      7          1           0       -0.563255   -1.837396    0.544597
      8          1           0       -2.135066   -3.484892    1.617836
      9          1           0       -2.440877   -2.334441    2.927738
     10          1           0       -0.828355   -3.041301    2.729161
     11          6           0       -2.160952    0.209890   -0.437381
     12          6           0       -3.359821    0.766466   -1.206095
     13          6           0       -2.982700    1.922329   -2.133216
     14          1           0       -1.703600    1.018083    0.150027
     15          1           0       -1.398395   -0.126208   -1.153265
     16          1           0       -4.119693    1.101102   -0.488301
     17          1           0       -3.815610   -0.042850   -1.790802
     18          1           0       -2.242071    1.598147   -2.871441
     19          1           0       -2.547882    2.748598   -1.561540
     20          1           0       -3.854593    2.305007   -2.672865
     21          6           0        2.859898   -0.084047   -0.360097
     22          6           0        2.265983   -1.008857   -1.423101
     23          6           0        3.315496   -1.907326   -2.078137
     24          1           0        3.641512    0.536960   -0.818765
     25          1           0        3.355270   -0.692055    0.409530
     26          1           0        1.770683   -0.399345   -2.189774
     27          1           0        1.485560   -1.627600   -0.961893
     28          1           0        3.802857   -2.539743   -1.329053
     29          1           0        4.089600   -1.304509   -2.563912
     30          1           0        2.869240   -2.560157   -2.834792
     31          6           0        1.823051    0.820340    0.303801
     32          6           0        2.416965    1.745152    1.366804
     33          6           0        1.367452    2.643619    2.021841
     34          1           0        1.327680    1.428349   -0.465827
     35          1           0        1.041438    0.199334    0.762469
     36          1           0        3.197388    2.363893    0.905596
     37          1           0        2.912265    1.135639    2.133477
     38          1           0        0.593348    2.040802    2.507615
     39          1           0        0.880091    3.276036    1.272756
     40          1           0        1.813708    3.296451    2.778496
 ---------------------------------------------------------------------

 SCF Done:  E(RHF) =  -470.732263807     A.U. after   11 cycles
 E2 =    -0.1585374375D+01 EUMP2 =    -0.47231763818215D+03

 The electronic state is 1-A.
 Alpha  occ. eigenvalues --  -11.21670 -11.21605 -11.21580 -11.21546 -11.21410
 Alpha  occ. eigenvalues --  -11.21328 -11.21306 -11.21167 -11.21132 -11.21091
 Alpha  occ. eigenvalues --  -11.21078 -11.21067  -1.08485  -1.08337  -1.03562
 Alpha  occ. eigenvalues --   -1.03512  -0.95998  -0.95952  -0.87020  -0.86972
 Alpha  occ. eigenvalues --   -0.79667  -0.79578  -0.78591  -0.77848  -0.65081
 Alpha  occ. eigenvalues --   -0.65020  -0.61067  -0.60814  -0.59379  -0.59322
 Alpha  occ. eigenvalues --   -0.57624  -0.57556  -0.55283  -0.55245  -0.52737
 Alpha  occ. eigenvalues --   -0.52647  -0.52430  -0.52377  -0.49981  -0.49874
 Alpha  occ. eigenvalues --   -0.48075  -0.47947  -0.46879  -0.46508  -0.46411
 Alpha  occ. eigenvalues --   -0.45638  -0.45601  -0.44835  -0.43793  -0.43729
 Alpha virt. eigenvalues --    0.20752   0.22175   0.23372   0.23751   0.25088
 Alpha virt. eigenvalues --    0.26486   0.26942   0.27884   0.28513   0.29155
 Alpha virt. eigenvalues --    0.30777   0.31667   0.31791   0.31862   0.32192

 Mulliken charges:
               1
     1  C   -0.297472
     2  C   -0.310325
     3  C   -0.474413
     4  H    0.149571
     5  H    0.149414
     6  H    0.154045
     7  H    0.158017
     8  H    0.155461
     9  H    0.155480
    10  H    0.159891
    11  C   -0.302129
    12  C   -0.299708
    13  C   -0.475625
    14  H    0.152431
    15  H    0.152516
    16  H    0.151779
    17  H    0.151669
    18  H    0.154872
    19  H    0.155037
    20  H    0.160239
    21  C   -0.297471
    22  C   -0.305543
    23  C   -0.475398
    24  H    0.149184
    25  H    0.148795
    26  H    0.151841
    27  H    0.156138
    28  H    0.155225
    29  H    0.155438
    30  H    0.159829
    31  C   -0.309464
    32  C   -0.299147
    33  C   -0.476937
    34  H    0.149763
    35  H    0.164162
    36  H    0.151510
    37  H    0.151269
    38  H    0.154479
    39  H    0.155130
    40  H    0.160446
 Sum of Mulliken charges =  -0.00000

 Dipole moment (field-independent basis, Debye):
    X=             -0.0316    Y=             -0.0214    Z=              0.0067  Tot=              0.0387
 Quadrupole moment (field-independent basis, Debye-Ang):
   XX=            -85.2859   YY=            -85.1116   ZZ=            -84.5915
   XY=              0.3481   XZ=              0.1758   YZ=              0.1668

 Normal termination of Gaussian 16 at Wed May  5 21:17:38 2021.
