 Gaussian 16, Revision A.03,
 Gaussian 16:  EM64L-G16RevA.03 25-Dec-2016

 -------------
 #p 6-31g* mp2
 -------------

 ------------------------------------------------------
 Input file generated by CHIRIPA (05-May-2021 14:53:15)
 ------------------------------------------------------
 Symbolic Z-matrix:
 Charge =  0 Multiplicity = 1

                         Standard orientation:
 ---------------------------------------------------------------------
 Center     Atomic      Atomic             Coordinates (Angstroms)
 Number     Number       Type             X           Y           Z
 ---------------------------------------------------------------------
      1          6           0        4.157366    0.236794    0.007391
      2          6           0        5.638445   -0.132612   -0.081647
      3          6           0        6.560395    1.022400    0.310465
      4          1           0        3.961794    1.100772   -0.642408
      5          1           0        3.927873    0.558515    1.032683
      6          1           0        5.864767   -0.454859   -1.106123
      7          1           0        5.830476   -0.995931    0.568292
      8          1           0        6.363372    1.340324    1.339400
      9          1           0        6.397858    1.884470   -0.344529
     10          1           0        7.614485    0.736496    0.239666
     11          6           0        3.223120   -0.907602   -0.381543
     12          6           0        1.742040   -0.538196   -0.292506
     13          6           0        0.820091   -1.693207   -0.684618
     14          1           0        3.452613   -1.229323   -1.406835
     15          1           0        3.418692   -1.771580    0.268255
     16          1           0        1.550010    0.325123   -0.942445
     17          1           0        1.515719   -0.215949    0.731970
     18          1           0        0.982627   -2.555278   -0.029624
     19          1           0        1.017114   -2.011132   -1.713553
     20          1           0       -0.233999   -1.407303   -0.613819
     21          6           0       -2.544404    2.748368   -0.117322
     22          6           0       -3.302421    2.041700   -1.056765
     23          6           0       -3.496614    0.663893   -0.920810
     24          6           0       -2.915737    0.021665    0.171626
     25          6           0       -2.155299    0.697951    1.124338
     26          6           0       -1.974268    2.075424    0.968317
     27          1           0       -2.398662    3.818552   -0.230730
     28          1           0       -3.746384    2.561705   -1.900884
     29          1           0       -4.078851    0.092298   -1.633338
     30          1           0       -1.725245    0.152060    1.955287
     31          1           0       -1.385100    2.621662    1.699446
     32          7           0       -3.114353   -1.436781    0.326177
     33          8           0       -2.592039   -1.979347    1.297488
     34          8           0       -3.788583   -2.009730   -0.526925
 ---------------------------------------------------------------------

 SCF Done:  E(RHF) =  -669.535464659     A.U. after   15 cycles
 E2 =    -0.2092229064D+01 EUMP2 =    -0.67162769372269D+03

 The electronic state is 1-A.
 Alpha  occ. eigenvalues --  -20.60807 -20.60800 -15.85847 -11.31219 -11.27793
 Alpha  occ. eigenvalues --  -11.27788 -11.27530 -11.26805 -11.26796 -11.21639
 Alpha  occ. eigenvalues --  -11.21524 -11.21434 -11.21309 -11.21150 -11.20716
 Alpha  occ. eigenvalues --   -1.59879  -1.39430  -1.19398  -1.08794  -1.08408
 Alpha  occ. eigenvalues --   -1.04795  -1.03468  -0.95899  -0.95624  -0.86912
 Alpha  occ. eigenvalues --   -0.86194  -0.82452  -0.79537  -0.78229  -0.77500
 Alpha  occ. eigenvalues --   -0.72069  -0.71228  -0.70499  -0.65048  -0.65039
 Alpha  occ. eigenvalues --   -0.64795  -0.62143  -0.60859  -0.59291  -0.57534
 Alpha  occ. eigenvalues --   -0.55297  -0.55173  -0.53168  -0.52886  -0.52552
 Alpha  occ. eigenvalues --   -0.52301  -0.49828  -0.48830  -0.48825  -0.47856
 Alpha  occ. eigenvalues --   -0.46579  -0.45764  -0.45698  -0.44829  -0.43715
 Alpha  occ. eigenvalues --   -0.37361  -0.36387
 Alpha virt. eigenvalues --    0.05014   0.11223   0.16501   0.21277   0.22853
 Alpha virt. eigenvalues --    0.24188   0.26461   0.27123   0.27622   0.27862
 Alpha virt. eigenvalues --    0.28384   0.30719   0.31469   0.31636   0.31818

 Mulliken charges:
               1
     1  C   -0.297657
     2  C   -0.299636
     3  C   -0.475581
     4  H    0.147707
     5  H    0.147471
     6  H    0.152411
     7  H    0.152981
     8  H    0.154428
     9  H    0.154177
    10  H    0.160709
    11  C   -0.298562
    12  C   -0.298764
    13  C   -0.473449
    14  H    0.150098
    15  H    0.151583
    16  H    0.149038
    17  H    0.146277
    18  H    0.162238
    19  H    0.154353
    20  H    0.156994
    21  C   -0.170784
    22  C   -0.218479
    23  C   -0.171453
    24  C    0.154653
    25  C   -0.170528
    26  C   -0.217588
    27  H    0.225786
    28  H    0.223583
    29  H    0.275936
    30  H    0.275820
    31  H    0.223821
    32  N    0.490800
    33  O   -0.458920
    34  O   -0.459463
 Sum of Mulliken charges =  -0.00000

 Dipole moment (field-independent basis, Debye):
    X=              0.6446    Y=              5.0799    Z=             -0.5423  Tot=              5.1493
 Quadrupole moment (field-independent basis, Debye-Ang):
   XX=            -98.6603   YY=            -95.3701   ZZ=            -90.8258
   XY=            -15.8446   XZ=              4.1867   YZ=              0.4082

 Normal termination of Gaussian 16 at Thu May  6 13:52:18 2021.
