 Gaussian 16, Revision A.03,
 Gaussian 16:  EM64L-G16RevA.03 25-Dec-2016

 -------------
 #p 6-31g* mp2
 -------------

 ------------------------------------------------------
 Input file generated by CHIRIPA (05-May-2021 14:51:14)
 ------------------------------------------------------
 Symbolic Z-matrix:
 Charge =  0 Multiplicity = 1

                         Standard orientation:
 ---------------------------------------------------------------------
 Center     Atomic      Atomic             Coordinates (Angstroms)
 Number     Number       Type             X           Y           Z
 ---------------------------------------------------------------------
      1          6           0        2.550945   -0.382659    0.913830
      2          6           0        1.963375   -1.793644    0.957026
      3          6           0        1.796771   -2.321245    2.382395
      4          1           0        3.524592   -0.382053    1.422707
      5          1           0        1.900295    0.295539    1.483126
      6          1           0        2.614208   -2.468709    0.386658
      7          1           0        0.991101   -1.790933    0.447820
      8          1           0        1.130318   -1.671109    2.958385
      9          1           0        2.762648   -2.352736    2.896876
     10          1           0        1.375288   -3.331273    2.389917
     11          6           0        2.723513    0.158568   -0.504275
     12          6           0        3.311083    1.569554   -0.547471
     13          6           0        3.477687    2.097154   -1.972839
     14          1           0        3.374163   -0.519629   -1.073571
     15          1           0        1.749866    0.157962   -1.013151
     16          1           0        4.283358    1.566842   -0.038264
     17          1           0        2.660250    2.244618    0.022897
     18          1           0        2.511810    2.128645   -2.487320
     19          1           0        4.144140    1.447018   -2.548829
     20          1           0        3.899170    3.107182   -1.980361
     21          6           0       -2.725223   -0.254296   -0.869219
     22          6           0       -2.211205   -1.694070   -0.840535
     23          6           0       -2.394202   -2.413835   -2.177038
     24          1           0       -3.789106   -0.256905   -1.143247
     25          1           0       -2.200165    0.299432   -1.659850
     26          1           0       -2.736089   -2.244545   -0.049277
     27          1           0       -1.148469   -1.688046   -0.566357
     28          1           0       -1.856256   -1.889777   -2.973641
     29          1           0       -3.452896   -2.449438   -2.453623
     30          1           0       -2.020021   -3.441459   -2.134135
     31          6           0       -2.549235    0.478387    0.459664
     32          6           0       -3.063254    1.918160    0.430979
     33          6           0       -2.880257    2.637926    1.767482
     34          1           0       -3.074292   -0.075342    1.250294
     35          1           0       -1.485351    0.480995    0.733691
     36          1           0       -4.125988    1.912136    0.156802
     37          1           0       -2.538369    2.468636   -0.360279
     38          1           0       -1.821562    2.673528    2.044068
     39          1           0       -3.418202    2.113867    2.564085
     40          1           0       -3.254437    3.665549    1.724579
 ---------------------------------------------------------------------

 SCF Done:  E(RHF) =  -470.733406842     A.U. after   11 cycles
 E2 =    -0.1583342425D+01 EUMP2 =    -0.47231674926710D+03

 The electronic state is 1-A.
 Alpha  occ. eigenvalues --  -11.21654 -11.21648 -11.21636 -11.21612 -11.21466
 Alpha  occ. eigenvalues --  -11.21455 -11.21406 -11.21395 -11.21119 -11.21111
 Alpha  occ. eigenvalues --  -11.21096 -11.21072  -1.08497  -1.08461  -1.03585
 Alpha  occ. eigenvalues --   -1.03552  -0.96024  -0.96008  -0.87042  -0.87022
 Alpha  occ. eigenvalues --   -0.79697  -0.79576  -0.78348  -0.78239  -0.65269
 Alpha  occ. eigenvalues --   -0.64966  -0.61074  -0.60870  -0.59420  -0.59347
 Alpha  occ. eigenvalues --   -0.57647  -0.57605  -0.55334  -0.55273  -0.52718
 Alpha  occ. eigenvalues --   -0.52696  -0.52455  -0.52426  -0.50004  -0.49930
 Alpha  occ. eigenvalues --   -0.48096  -0.47868  -0.46912  -0.46500  -0.46060
 Alpha  occ. eigenvalues --   -0.45798  -0.45768  -0.45382  -0.43833  -0.43815
 Alpha virt. eigenvalues --    0.19516   0.23542   0.23696   0.24155   0.25552
 Alpha virt. eigenvalues --    0.26998   0.27039   0.27805   0.27905   0.30031
 Alpha virt. eigenvalues --    0.30478   0.31556   0.31594   0.31856   0.32034

 Mulliken charges:
               1
     1  C   -0.298028
     2  C   -0.310048
     3  C   -0.475057
     4  H    0.150066
     5  H    0.149222
     6  H    0.152083
     7  H    0.161129
     8  H    0.155504
     9  H    0.155109
    10  H    0.160435
    11  C   -0.298739
    12  C   -0.299642
    13  C   -0.475677
    14  H    0.149943
    15  H    0.148763
    16  H    0.152296
    17  H    0.151724
    18  H    0.154901
    19  H    0.155368
    20  H    0.160473
    21  C   -0.297579
    22  C   -0.310077
    23  C   -0.474975
    24  H    0.150091
    25  H    0.149093
    26  H    0.152227
    27  H    0.160923
    28  H    0.155173
    29  H    0.155289
    30  H    0.160544
    31  C   -0.299299
    32  C   -0.299694
    33  C   -0.475652
    34  H    0.149954
    35  H    0.149243
    36  H    0.152329
    37  H    0.151889
    38  H    0.154758
    39  H    0.155393
    40  H    0.160541
 Sum of Mulliken charges =  -0.00000

 Dipole moment (field-independent basis, Debye):
    X=             -0.0074    Y=             -0.0117    Z=              0.0011  Tot=              0.0139
 Quadrupole moment (field-independent basis, Debye-Ang):
   XX=            -82.9384   YY=            -85.1913   ZZ=            -86.4430
   XY=             -0.2078   XZ=             -0.2103   YZ=             -0.1675

 Normal termination of Gaussian 16 at Thu May  6 05:37:54 2021.
