 Gaussian 16, Revision A.03,
 Gaussian 16:  EM64L-G16RevA.03 25-Dec-2016

 -------------
 #p 6-31g* mp2
 -------------

 ------------------------------------------------------
 Input file generated by CHIRIPA (05-May-2021 14:53:17)
 ------------------------------------------------------
 Symbolic Z-matrix:
 Charge =  0 Multiplicity = 1

                         Standard orientation:
 ---------------------------------------------------------------------
 Center     Atomic      Atomic             Coordinates (Angstroms)
 Number     Number       Type             X           Y           Z
 ---------------------------------------------------------------------
      1          6           0       -2.989823   -0.616443   -0.062066
      2          6           0       -4.312248   -1.315702    0.254498
      3          6           0       -4.166901   -2.833849    0.363582
      4          1           0       -2.587005   -1.016185   -1.002751
      5          1           0       -2.257674   -0.860357    0.720148
      6          1           0       -5.042099   -1.069426   -0.527347
      7          1           0       -4.712061   -0.914112    1.194441
      8          1           0       -3.459181   -3.097117    1.156313
      9          1           0       -3.791094   -3.253314   -0.575257
     10          1           0       -5.124158   -3.313534    0.590343
     11          6           0       -3.118912    0.901608   -0.174257
     12          6           0       -1.796487    1.600867   -0.490821
     13          6           0       -1.941834    3.119013   -0.599905
     14          1           0       -3.851061    1.145522   -0.956471
     15          1           0       -3.521730    1.301350    0.766428
     16          1           0       -1.396674    1.199277   -1.430763
     17          1           0       -1.066636    1.354590    0.291024
     18          1           0       -2.317640    3.538479    0.338935
     19          1           0       -2.649554    3.382282   -1.392636
     20          1           0       -0.984577    3.598699   -0.826665
     21          6           0        3.034349   -2.424799   -0.678407
     22          6           0        2.886269   -2.157593    0.686581
     23          6           0        2.527467   -0.879482    1.125033
     24          6           0        2.323566    0.112259    0.166824
     25          6           0        2.463369   -0.122810   -1.200102
     26          6           0        2.822799   -1.408347   -1.615740
     27          1           0        3.313319   -3.420550   -1.010146
     28          1           0        3.049926   -2.945043    1.416776
     29          1           0        2.406005   -0.645130    2.175626
     30          1           0        2.293531    0.682601   -1.904294
     31          1           0        2.937084   -1.612980   -2.676452
     32          7           0        1.943387    1.469269    0.618917
     33          8           0        1.769403    2.325734   -0.245278
     34          8           0        1.826583    1.650732    1.828903
 ---------------------------------------------------------------------

 SCF Done:  E(RHF) =  -669.536174426     A.U. after   15 cycles
 E2 =    -0.2092238719D+01 EUMP2 =    -0.67162841314471D+03

 The electronic state is 1-A.
 Alpha  occ. eigenvalues --  -20.60921 -20.60912 -15.85933 -11.31248 -11.27814
 Alpha  occ. eigenvalues --  -11.27808 -11.27549 -11.26819 -11.26809 -11.21396
 Alpha  occ. eigenvalues --  -11.21078 -11.20999 -11.20860 -11.20800 -11.19932
 Alpha  occ. eigenvalues --   -1.59973  -1.39528  -1.19415  -1.08823  -1.07979
 Alpha  occ. eigenvalues --   -1.04812  -1.02996  -0.95672  -0.95432  -0.86461
 Alpha  occ. eigenvalues --   -0.86213  -0.82505  -0.79114  -0.77785  -0.77555
 Alpha  occ. eigenvalues --   -0.72167  -0.71293  -0.70528  -0.65074  -0.64819
 Alpha  occ. eigenvalues --   -0.64614  -0.62162  -0.60400  -0.58842  -0.57009
 Alpha  occ. eigenvalues --   -0.55319  -0.54748  -0.53139  -0.52907  -0.52092
 Alpha  occ. eigenvalues --   -0.51866  -0.49415  -0.48928  -0.48914  -0.47402
 Alpha  occ. eigenvalues --   -0.46166  -0.45341  -0.45224  -0.44887  -0.43243
 Alpha  occ. eigenvalues --   -0.37390  -0.36410
 Alpha virt. eigenvalues --    0.04947   0.11229   0.16422   0.21337   0.23244
 Alpha virt. eigenvalues --    0.24832   0.26916   0.27265   0.27614   0.28290
 Alpha virt. eigenvalues --    0.28683   0.30858   0.31638   0.32005   0.32449

 Mulliken charges:
               1
     1  C   -0.297324
     2  C   -0.299134
     3  C   -0.475090
     4  H    0.146213
     5  H    0.148107
     6  H    0.151590
     7  H    0.152737
     8  H    0.153572
     9  H    0.153080
    10  H    0.159623
    11  C   -0.298224
    12  C   -0.297018
    13  C   -0.479305
    14  H    0.147436
    15  H    0.150613
    16  H    0.145161
    17  H    0.153181
    18  H    0.154397
    19  H    0.147311
    20  H    0.179001
    21  C   -0.170379
    22  C   -0.218448
    23  C   -0.171145
    24  C    0.157755
    25  C   -0.170016
    26  C   -0.218632
    27  H    0.225884
    28  H    0.223658
    29  H    0.275531
    30  H    0.275710
    31  H    0.223603
    32  N    0.489087
    33  O   -0.458832
    34  O   -0.459702
 Sum of Mulliken charges =  -0.00000

 Dipole moment (field-independent basis, Debye):
    X=              1.5299    Y=             -4.6659    Z=             -1.5599  Tot=              5.1522
 Quadrupole moment (field-independent basis, Debye-Ang):
   XX=            -89.8383   YY=            -96.9117   ZZ=            -89.8818
   XY=            -11.3317   XZ=             -3.3771   YZ=             -2.3823

 Normal termination of Gaussian 16 at Wed May  5 17:16:16 2021.
