 Gaussian 16, Revision A.03,
 Gaussian 16:  EM64L-G16RevA.03 25-Dec-2016

 -------------
 #p 6-31g* mp2
 -------------

 ------------------------------------------------------
 Input file generated by CHIRIPA (05-May-2021 14:51:09)
 ------------------------------------------------------
 Symbolic Z-matrix:
 Charge =  0 Multiplicity = 1

                         Standard orientation:
 ---------------------------------------------------------------------
 Center     Atomic      Atomic             Coordinates (Angstroms)
 Number     Number       Type             X           Y           Z
 ---------------------------------------------------------------------
      1          6           0        4.500858   -0.318138   -0.389641
      2          6           0        5.995135   -0.358055   -0.067888
      3          6           0        6.866912   -0.459631   -1.319879
      4          1           0        4.229725   -1.220399   -0.954759
      5          1           0        4.297664    0.536744   -1.049402
      6          1           0        6.195230   -1.211799    0.592189
      7          1           0        6.262704    0.544313    0.496695
      8          1           0        6.696476    0.398056   -1.978608
      9          1           0        6.628619   -1.368033   -1.882572
     10          1           0        7.931365   -0.486767   -1.066771
     11          6           0        3.616356   -0.216649    0.851763
     12          6           0        2.122078   -0.176731    0.530010
     13          6           0        1.250301   -0.075155    1.782001
     14          1           0        3.819550   -1.071530    1.511524
     15          1           0        3.887489    0.685612    1.416881
     16          1           0        1.854510   -1.079100   -0.034573
     17          1           0        1.921984    0.677012   -0.130067
     18          1           0        1.488595    0.833246    2.344694
     19          1           0        1.420737   -0.932843    2.440730
     20          1           0        0.185848   -0.048020    1.528894
     21          6           0       -3.833885    0.997416   -0.231330
     22          6           0       -2.313946    1.163975   -0.236503
     23          6           0       -1.879912    2.630062   -0.236984
     24          1           0       -4.255061    1.505697   -1.109514
     25          1           0       -4.248244    1.503736    0.651472
     26          1           0       -1.902446    0.656310   -1.118297
     27          1           0       -1.896321    0.655075    0.641692
     28          1           0       -2.262907    3.145501    0.649716
     29          1           0       -2.269066    3.146744   -1.120273
     30          1           0       -0.789662    2.725982   -0.240711
     31          6           0       -4.283329   -0.462628   -0.230792
     32          6           0       -5.803268   -0.629189   -0.225619
     33          6           0       -6.237302   -2.095275   -0.225138
     34          1           0       -3.868970   -0.968950   -1.113594
     35          1           0       -3.862153   -0.970910    0.647392
     36          1           0       -6.220892   -0.120289   -1.103814
     37          1           0       -6.214767   -0.121524    0.656175
     38          1           0       -5.848147   -2.611958    0.658151
     39          1           0       -5.854306   -2.610715   -1.111838
     40          1           0       -7.327552   -2.191195   -0.221411
 ---------------------------------------------------------------------

 SCF Done:  E(RHF) =  -470.733307927     A.U. after   11 cycles
 E2 =    -0.1582606932D+01 EUMP2 =    -0.47231591485911D+03

 The electronic state is 1-A.
 Alpha  occ. eigenvalues --  -11.21609 -11.21605 -11.21596 -11.21589 -11.21411
 Alpha  occ. eigenvalues --  -11.21396 -11.21352 -11.21336 -11.21080 -11.21073
 Alpha  occ. eigenvalues --  -11.21067 -11.21026  -1.08442  -1.08416  -1.03556
 Alpha  occ. eigenvalues --   -1.03499  -0.96003  -0.95948  -0.87008  -0.86978
 Alpha  occ. eigenvalues --   -0.79631  -0.79554  -0.78255  -0.78231  -0.65076
 Alpha  occ. eigenvalues --   -0.65049  -0.60968  -0.60909  -0.59514  -0.59197
 Alpha  occ. eigenvalues --   -0.57718  -0.57436  -0.55280  -0.55241  -0.52721
 Alpha  occ. eigenvalues --   -0.52637  -0.52416  -0.52385  -0.49923  -0.49906
 Alpha  occ. eigenvalues --   -0.48023  -0.47805  -0.46628  -0.46606  -0.45799
 Alpha  occ. eigenvalues --   -0.45771  -0.45709  -0.45696  -0.43813  -0.43711
 Alpha virt. eigenvalues --    0.21216   0.23048   0.23427   0.25140   0.26025
 Alpha virt. eigenvalues --    0.26491   0.26940   0.27381   0.27900   0.28933
 Alpha virt. eigenvalues --    0.30042   0.30797   0.31517   0.31694   0.32361

 Mulliken charges:
               1
     1  C   -0.298233
     2  C   -0.299640
     3  C   -0.475701
     4  H    0.149630
     5  H    0.149457
     6  H    0.151921
     7  H    0.151940
     8  H    0.155172
     9  H    0.155160
    10  H    0.160238
    11  C   -0.298438
    12  C   -0.299261
    13  C   -0.483107
    14  H    0.149552
    15  H    0.149598
    16  H    0.152051
    17  H    0.151899
    18  H    0.154899
    19  H    0.154829
    20  H    0.167606
    21  C   -0.297557
    22  C   -0.305769
    23  C   -0.476269
    24  H    0.149706
    25  H    0.149571
    26  H    0.152276
    27  H    0.157025
    28  H    0.155279
    29  H    0.155257
    30  H    0.160961
    31  C   -0.298404
    32  C   -0.299651
    33  C   -0.475732
    34  H    0.149565
    35  H    0.149538
    36  H    0.151969
    37  H    0.151987
    38  H    0.155231
    39  H    0.155169
    40  H    0.160275
 Sum of Mulliken charges =  -0.00000

 Dipole moment (field-independent basis, Debye):
    X=             -0.0172    Y=              0.0011    Z=             -0.0042  Tot=              0.0177
 Quadrupole moment (field-independent basis, Debye-Ang):
   XX=            -85.6338   YY=            -84.7514   ZZ=            -84.3989
   XY=             -0.3867   XZ=              0.5962   YZ=             -0.1139

 Normal termination of Gaussian 16 at Thu May  6 03:43:21 2021.
