 Gaussian 16, Revision A.03,
 Gaussian 16:  EM64L-G16RevA.03 25-Dec-2016

 -------------
 #p 6-31g* mp2
 -------------

 ------------------------------------------------------
 Input file generated by CHIRIPA (05-May-2021 14:51:09)
 ------------------------------------------------------
 Symbolic Z-matrix:
 Charge =  0 Multiplicity = 1

                         Standard orientation:
 ---------------------------------------------------------------------
 Center     Atomic      Atomic             Coordinates (Angstroms)
 Number     Number       Type             X           Y           Z
 ---------------------------------------------------------------------
      1          6           0       -4.303984   -0.281115    0.083359
      2          6           0       -3.861704   -1.710506   -0.231622
      3          6           0       -4.973709   -2.736013   -0.008966
      4          1           0       -4.647077   -0.231546    1.125844
      5          1           0       -5.169947   -0.026199   -0.543156
      6          1           0       -2.995972   -1.962166    0.394311
      7          1           0       -3.519445   -1.756635   -1.273422
      8          1           0       -5.836703   -2.512586   -0.644515
      9          1           0       -5.310257   -2.719284    1.032694
     10          1           0       -4.635901   -3.751063   -0.240093
     11          6           0       -3.203212    0.755519   -0.134400
     12          6           0       -3.645493    2.184910    0.180582
     13          6           0       -2.533488    3.210417   -0.042075
     14          1           0       -2.337249    0.500603    0.492115
     15          1           0       -2.860120    0.705950   -1.176885
     16          1           0       -3.987752    2.231039    1.222381
     17          1           0       -4.511224    2.436569   -0.445352
     18          1           0       -2.196940    3.193688   -1.083735
     19          1           0       -1.670493    2.986990    0.593474
     20          1           0       -2.871296    4.225467    0.189052
     21          6           0        3.068863   -0.127069   -0.294541
     22          6           0        1.905804   -0.567247    0.595135
     23          6           0        0.542505   -0.340597   -0.058959
     24          1           0        2.951245    0.937035   -0.541105
     25          1           0        3.021762   -0.675355   -1.245624
     26          1           0        1.955883   -0.019303    1.544801
     27          1           0        2.026307   -1.630379    0.839765
     28          1           0        0.467443   -0.900211   -0.996936
     29          1           0        0.396619    0.720019   -0.287895
     30          1           0       -0.274634   -0.662186    0.594282
     31          6           0        4.438333   -0.347335    0.345582
     32          6           0        5.601393    0.092843   -0.544094
     33          6           0        6.964692   -0.133807    0.110001
     34          1           0        4.485434    0.200950    1.296665
     35          1           0        4.555952   -1.411439    0.592146
     36          1           0        5.480890    1.155975   -0.788725
     37          1           0        5.551314   -0.455102   -1.493760
     38          1           0        7.110578   -1.194423    0.338936
     39          1           0        7.039753    0.425807    1.047976
     40          1           0        7.781830    0.187782   -0.543242
 ---------------------------------------------------------------------

 SCF Done:  E(RHF) =  -470.732802804     A.U. after   11 cycles
 E2 =    -0.1583118383D+01 EUMP2 =    -0.47231592118692D+03

 The electronic state is 1-A.
 Alpha  occ. eigenvalues --  -11.21596 -11.21583 -11.21562 -11.21541 -11.21397
 Alpha  occ. eigenvalues --  -11.21338 -11.21321 -11.21216 -11.21067 -11.21048
 Alpha  occ. eigenvalues --  -11.21043 -11.21024  -1.08426  -1.08361  -1.03524
 Alpha  occ. eigenvalues --   -1.03480  -0.95991  -0.95912  -0.87017  -0.86925
 Alpha  occ. eigenvalues --   -0.79633  -0.79519  -0.78268  -0.78120  -0.65063
 Alpha  occ. eigenvalues --   -0.65002  -0.60946  -0.60857  -0.59365  -0.59298
 Alpha  occ. eigenvalues --   -0.57632  -0.57494  -0.55265  -0.55215  -0.52799
 Alpha  occ. eigenvalues --   -0.52597  -0.52394  -0.52294  -0.49929  -0.49863
 Alpha  occ. eigenvalues --   -0.47938  -0.47828  -0.46663  -0.46541  -0.45841
 Alpha  occ. eigenvalues --   -0.45721  -0.45648  -0.45611  -0.43750  -0.43632
 Alpha virt. eigenvalues --    0.21585   0.23070   0.23731   0.24226   0.25920
 Alpha virt. eigenvalues --    0.26561   0.26712   0.27339   0.27799   0.29470
 Alpha virt. eigenvalues --    0.30850   0.31463   0.31752   0.31816   0.32277

 Mulliken charges:
               1
     1  C   -0.298245
     2  C   -0.300416
     3  C   -0.475647
     4  H    0.148900
     5  H    0.149107
     6  H    0.152249
     7  H    0.152151
     8  H    0.155208
     9  H    0.154981
    10  H    0.160053
    11  C   -0.303606
    12  C   -0.299184
    13  C   -0.476466
    14  H    0.157669
    15  H    0.149713
    16  H    0.151323
    17  H    0.151493
    18  H    0.155121
    19  H    0.155418
    20  H    0.160018
    21  C   -0.298647
    22  C   -0.300000
    23  C   -0.478771
    24  H    0.149790
    25  H    0.149499
    26  H    0.151367
    27  H    0.151681
    28  H    0.155435
    29  H    0.157291
    30  H    0.162553
    31  C   -0.298214
    32  C   -0.299626
    33  C   -0.475692
    34  H    0.149448
    35  H    0.149598
    36  H    0.151983
    37  H    0.151907
    38  H    0.155149
    39  H    0.155165
    40  H    0.160245
 Sum of Mulliken charges =  -0.00000

 Dipole moment (field-independent basis, Debye):
    X=              0.0171    Y=             -0.0036    Z=             -0.0113  Tot=              0.0209
 Quadrupole moment (field-independent basis, Debye-Ang):
   XX=            -86.5474   YY=            -84.7147   ZZ=            -83.7960
   XY=             -0.5397   XZ=              0.0035   YZ=              0.4177

 Normal termination of Gaussian 16 at Thu May  6 03:44:57 2021.
