 Gaussian 16, Revision A.03,
 Gaussian 16:  EM64L-G16RevA.03 25-Dec-2016

 -------------
 #p 6-31g* mp2
 -------------

 ------------------------------------------------------
 Input file generated by CHIRIPA (05-May-2021 14:57:24)
 ------------------------------------------------------
 Symbolic Z-matrix:
 Charge =  0 Multiplicity = 1

                         Standard orientation:
 ---------------------------------------------------------------------
 Center     Atomic      Atomic             Coordinates (Angstroms)
 Number     Number       Type             X           Y           Z
 ---------------------------------------------------------------------
      1          6           0        3.826119    2.401090    0.581604
      2          6           0        4.775554    1.663316   -0.133087
      3          6           0        4.512261    0.342836   -0.509328
      4          6           0        3.283681   -0.210968   -0.152700
      5          6           0        2.317401    0.498305    0.559006
      6          6           0        2.602231    1.817259    0.924765
      7          1           0        4.039017    3.426278    0.869806
      8          1           0        5.726892    2.114148   -0.400952
      9          1           0        5.229339   -0.251080   -1.062934
     10          1           0        1.378015    0.021721    0.811672
     11          1           0        1.863006    2.387839    1.479770
     12          7           0        2.993545   -1.608093   -0.545461
     13          8           0        1.903604   -2.073055   -0.219152
     14          8           0        3.861570   -2.211743   -1.172179
     15          6           0       -4.458705    1.993317   -0.934149
     16          6           0       -5.054590    0.731720   -1.033223
     17          6           0       -4.439026   -0.390407   -0.470674
     18          6           0       -3.222526   -0.213867    0.186783
     19          6           0       -2.603787    1.029970    0.302206
     20          6           0       -3.237358    2.138160   -0.267926
     21          1           0       -4.943884    2.859599   -1.374096
     22          1           0       -6.003071    0.616252   -1.550036
     23          1           0       -4.878243   -1.378672   -0.532625
     24          1           0       -1.657946    1.113664    0.823549
     25          1           0       -2.772269    3.116718   -0.189439
     26          7           0       -2.561324   -1.394436    0.786341
     27          8           0       -1.489878   -1.212387    1.360363
     28          8           0       -3.127038   -2.479459    0.670901
 ---------------------------------------------------------------------

 SCF Done:  E(RHF) =  -868.336779823     A.U. after   16 cycles
 E2 =    -0.2600215558D+01 EUMP2 =    -0.87093699538086D+03

 The electronic state is 1-A.
 Alpha  occ. eigenvalues --  -20.60721 -20.60714 -20.60146 -20.60080 -15.85767
 Alpha  occ. eigenvalues --  -15.85174 -11.31283 -11.30767 -11.27951 -11.27815
 Alpha  occ. eigenvalues --  -11.27614 -11.27414 -11.27302 -11.27234 -11.26954
 Alpha  occ. eigenvalues --  -11.26869 -11.26494 -11.26472  -1.59759  -1.59201
 Alpha  occ. eigenvalues --   -1.39321  -1.38738  -1.19460  -1.18988  -1.08818
 Alpha  occ. eigenvalues --   -1.08353  -1.04898  -1.04429  -0.95635  -0.95135
 Alpha  occ. eigenvalues --   -0.86288  -0.85814  -0.82477  -0.81962  -0.77518
 Alpha  occ. eigenvalues --   -0.76947  -0.71988  -0.71379  -0.71063  -0.70579
 Alpha  occ. eigenvalues --   -0.70540  -0.70090  -0.65120  -0.64910  -0.64638
 Alpha  occ. eigenvalues --   -0.64445  -0.62270  -0.61742  -0.55381  -0.54944
 Alpha  occ. eigenvalues --   -0.53198  -0.53004  -0.52753  -0.52522  -0.48741
 Alpha  occ. eigenvalues --   -0.48722  -0.48184  -0.48113  -0.44676  -0.44096
 Alpha  occ. eigenvalues --   -0.37428  -0.37007  -0.36502  -0.36048
 Alpha virt. eigenvalues --    0.05035   0.05571   0.11146   0.11604   0.16487
 Alpha virt. eigenvalues --    0.16989   0.20127   0.21979   0.25367   0.27500
 Alpha virt. eigenvalues --    0.28186   0.29236   0.30956   0.31327   0.32053

 Mulliken charges:
               1
     1  C   -0.171076
     2  C   -0.219335
     3  C   -0.170587
     4  C    0.157139
     5  C   -0.179863
     6  C   -0.220873
     7  H    0.222788
     8  H    0.221778
     9  H    0.275055
    10  H    0.293140
    11  H    0.217102
    12  N    0.485967
    13  O   -0.449202
    14  O   -0.464707
    15  C   -0.170961
    16  C   -0.218007
    17  C   -0.170092
    18  C    0.161102
    19  C   -0.169039
    20  C   -0.217700
    21  H    0.225545
    22  H    0.224395
    23  H    0.277500
    24  H    0.266025
    25  H    0.220493
    26  N    0.491998
    27  O   -0.463406
    28  O   -0.455175
 Sum of Mulliken charges =  -0.00000

 Dipole moment (field-independent basis, Debye):
    X=             -1.5770    Y=              8.7802    Z=             -0.7473  Tot=              8.9520
 Quadrupole moment (field-independent basis, Debye-Ang):
   XX=            -76.7709   YY=           -108.1539   ZZ=           -106.1547
   XY=              5.2936   XZ=             10.2592   YZ=              1.1840

 Normal termination of Gaussian 16 at Wed May  5 16:24:25 2021.
