 Gaussian 16, Revision A.03,
 Gaussian 16:  EM64L-G16RevA.03 25-Dec-2016

 -------------
 #p 6-31g* mp2
 -------------

 ------------------------------------------------------
 Input file generated by CHIRIPA (05-May-2021 14:55:22)
 ------------------------------------------------------
 Symbolic Z-matrix:
 Charge =  0 Multiplicity = 1

                         Standard orientation:
 ---------------------------------------------------------------------
 Center     Atomic      Atomic             Coordinates (Angstroms)
 Number     Number       Type             X           Y           Z
 ---------------------------------------------------------------------
      1          6           0        4.656185    0.972576    0.145025
      2          6           0        4.550655   -0.042140   -0.811915
      3          6           0        3.411883   -0.851343   -0.866095
      4          6           0        2.393103   -0.617030    0.056118
      5          6           0        2.468651    0.385948    1.021322
      6          6           0        3.616679    1.183010    1.056982
      7          1           0        5.544406    1.596469    0.179920
      8          1           0        5.356386   -0.207846   -1.521412
      9          1           0        3.304073   -1.643970   -1.596531
     10          1           0        1.648983    0.527106    1.715322
     11          1           0        3.695897    1.970312    1.801244
     12          7           0        1.182637   -1.467271    0.008563
     13          8           0        0.299002   -1.240556    0.832230
     14          8           0        1.140429   -2.344304   -0.851476
     15          6           0       -3.362490   -0.066888    0.268476
     16          6           0       -4.486461   -0.954642   -0.266844
     17          6           0       -4.561642   -2.306266    0.443970
     18          1           0       -2.404535   -0.593654    0.159917
     19          1           0       -3.511549    0.091970    1.345481
     20          1           0       -4.336092   -1.110642   -1.342795
     21          1           0       -5.441829   -0.425624   -0.157173
     22          1           0       -4.735411   -2.168564    1.516090
     23          1           0       -3.623392   -2.857474    0.323733
     24          1           0       -5.371946   -2.924818    0.045644
     25          6           0       -3.274573    1.287751   -0.432202
     26          6           0       -2.150603    2.175506    0.103118
     27          6           0       -2.075422    3.527129   -0.607695
     28          1           0       -3.125515    1.128893   -1.509208
     29          1           0       -4.232529    1.814517   -0.323642
     30          1           0       -1.195234    1.646487   -0.006552
     31          1           0       -2.300972    2.331505    1.179068
     32          1           0       -3.013672    4.078336   -0.487458
     33          1           0       -1.901653    3.389427   -1.679816
     34          1           0       -1.265118    4.145681   -0.209370
 ---------------------------------------------------------------------

 SCF Done:  E(RHF) =  -669.536599638     A.U. after   15 cycles
 E2 =    -0.2091615485D+01 EUMP2 =    -0.67162821512324D+03

 The electronic state is 1-A.
 Alpha  occ. eigenvalues --  -20.61069 -20.61050 -15.86067 -11.31344 -11.27899
 Alpha  occ. eigenvalues --  -11.27891 -11.27629 -11.26897 -11.26885 -11.20973
 Alpha  occ. eigenvalues --  -11.20685 -11.20522 -11.20500 -11.20011 -11.19917
 Alpha  occ. eigenvalues --   -1.60110  -1.39667  -1.19506  -1.08921  -1.07462
 Alpha  occ. eigenvalues --   -1.04893  -1.02664  -0.95770  -0.95103  -0.86297
 Alpha  occ. eigenvalues --   -0.86123  -0.82604  -0.78757  -0.77670  -0.77192
 Alpha  occ. eigenvalues --   -0.72288  -0.71416  -0.70612  -0.65163  -0.64896
 Alpha  occ. eigenvalues --   -0.64089  -0.62240  -0.60065  -0.58517  -0.56706
 Alpha  occ. eigenvalues --   -0.55401  -0.54384  -0.53227  -0.52984  -0.51865
 Alpha  occ. eigenvalues --   -0.51522  -0.49172  -0.49054  -0.48929  -0.47065
 Alpha  occ. eigenvalues --   -0.45808  -0.45295  -0.44762  -0.44339  -0.42871
 Alpha  occ. eigenvalues --   -0.37482  -0.36490
 Alpha virt. eigenvalues --    0.04822   0.11134   0.16304   0.21242   0.23730
 Alpha virt. eigenvalues --    0.25122   0.26992   0.27502   0.27849   0.28770
 Alpha virt. eigenvalues --    0.28937   0.30969   0.31988   0.32316   0.32412

 Mulliken charges:
               1
     1  C   -0.170390
     2  C   -0.218560
     3  C   -0.170643
     4  C    0.157639
     5  C   -0.171203
     6  C   -0.218500
     7  H    0.226246
     8  H    0.223993
     9  H    0.275840
    10  H    0.277115
    11  H    0.224234
    12  N    0.488547
    13  O   -0.459502
    14  O   -0.458631
    15  C   -0.309939
    16  C   -0.298333
    17  C   -0.476665
    18  H    0.178756
    19  H    0.144810
    20  H    0.150160
    21  H    0.145859
    22  H    0.152166
    23  H    0.165521
    24  H    0.155007
    25  C   -0.297373
    26  C   -0.299457
    27  C   -0.474722
    28  H    0.147595
    29  H    0.145336
    30  H    0.153020
    31  H    0.149201
    32  H    0.154405
    33  H    0.154236
    34  H    0.154231
 Sum of Mulliken charges =  -0.00000

 Dipole moment (field-independent basis, Debye):
    X=              4.5786    Y=              2.7923    Z=              0.1914  Tot=              5.3663
 Quadrupole moment (field-independent basis, Debye-Ang):
   XX=            -74.7861   YY=            -99.1147   ZZ=            -91.8831
   XY=              3.4485   XZ=             -1.5139   YZ=              3.1630

 Normal termination of Gaussian 16 at Thu May  6 09:22:47 2021.
