 Gaussian 16, Revision A.03,
 Gaussian 16:  EM64L-G16RevA.03 25-Dec-2016

 -------------
 #p 6-31g* mp2
 -------------

 ------------------------------------------------------
 Input file generated by CHIRIPA (05-May-2021 14:51:08)
 ------------------------------------------------------
 Symbolic Z-matrix:
 Charge =  0 Multiplicity = 1

                         Standard orientation:
 ---------------------------------------------------------------------
 Center     Atomic      Atomic             Coordinates (Angstroms)
 Number     Number       Type             X           Y           Z
 ---------------------------------------------------------------------
      1          6           0       -2.972841   -0.561620    0.369976
      2          6           0       -1.782777   -0.099297    1.211398
      3          6           0       -0.728913   -1.191692    1.395341
      4          1           0       -3.431473   -1.439122    0.845994
      5          1           0       -2.611141   -0.892757   -0.613343
      6          1           0       -2.146771    0.232168    2.192345
      7          1           0       -1.327042    0.777323    0.733424
      8          1           0       -0.337942   -1.516963    0.425835
      9          1           0       -1.162329   -2.065215    1.893045
     10          1           0        0.112862   -0.839738    1.999827
     11          6           0       -4.034880    0.519415    0.177195
     12          6           0       -5.224943    0.057091   -0.664226
     13          6           0       -6.278808    1.149487   -0.848169
     14          1           0       -4.396579    0.850551    1.160515
     15          1           0       -3.576248    1.396916   -0.298822
     16          1           0       -5.680679   -0.819528   -0.186252
     17          1           0       -4.860950   -0.274373   -1.645173
     18          1           0       -5.845392    2.023010   -1.345873
     19          1           0       -6.669778    1.474757    0.121337
     20          1           0       -7.120583    0.797532   -1.452655
     21          6           0        3.445734    0.753562   -0.482287
     22          6           0        4.303269    1.695076    0.363983
     23          6           0        4.176296    3.156952   -0.065659
     24          1           0        3.734787    0.853541   -1.537464
     25          1           0        2.394550    1.066453   -0.415165
     26          1           0        5.352347    1.379667    0.296390
     27          1           0        4.012272    1.592703    1.417291
     28          1           0        3.138262    3.494527    0.018774
     29          1           0        4.485951    3.280281   -1.108494
     30          1           0        4.797578    3.812488    0.552516
     31          6           0        3.561986   -0.711357   -0.064885
     32          6           0        2.704452   -1.652870   -0.911155
     33          6           0        2.831425   -3.114746   -0.481513
     34          1           0        4.613171   -1.024247   -0.132007
     35          1           0        3.272934   -0.811336    0.990292
     36          1           0        2.995448   -1.550497   -1.964462
     37          1           0        1.655374   -1.337462   -0.843563
     38          1           0        2.521770   -3.238076    0.561322
     39          1           0        3.869459   -3.452322   -0.565946
     40          1           0        2.210142   -3.770283   -1.099688
 ---------------------------------------------------------------------

 SCF Done:  E(RHF) =  -470.733246643     A.U. after   11 cycles
 E2 =    -0.1582854189D+01 EUMP2 =    -0.47231610083161D+03

 The electronic state is 1-A.
 Alpha  occ. eigenvalues --  -11.21667 -11.21625 -11.21592 -11.21536 -11.21445
 Alpha  occ. eigenvalues --  -11.21384 -11.21380 -11.21318 -11.21132 -11.21089
 Alpha  occ. eigenvalues --  -11.21067 -11.21018  -1.08475  -1.08400  -1.03585
 Alpha  occ. eigenvalues --   -1.03491  -0.96029  -0.95946  -0.87047  -0.86962
 Alpha  occ. eigenvalues --   -0.79660  -0.79547  -0.78286  -0.78215  -0.65170
 Alpha  occ. eigenvalues --   -0.64983  -0.61122  -0.60772  -0.59393  -0.59318
 Alpha  occ. eigenvalues --   -0.57647  -0.57553  -0.55368  -0.55183  -0.52718
 Alpha  occ. eigenvalues --   -0.52644  -0.52456  -0.52366  -0.50058  -0.49823
 Alpha  occ. eigenvalues --   -0.48006  -0.47844  -0.46805  -0.46456  -0.45860
 Alpha  occ. eigenvalues --   -0.45772  -0.45734  -0.45572  -0.43827  -0.43755
 Alpha virt. eigenvalues --    0.20629   0.23099   0.23808   0.24728   0.26164
 Alpha virt. eigenvalues --    0.26418   0.27091   0.27508   0.28017   0.29274
 Alpha virt. eigenvalues --    0.30436   0.31162   0.31749   0.31813   0.32293

 Mulliken charges:
               1
     1  C   -0.298430
     2  C   -0.299825
     3  C   -0.481594
     4  H    0.149910
     5  H    0.149637
     6  H    0.152265
     7  H    0.151505
     8  H    0.161008
     9  H    0.155869
    10  H    0.159907
    11  C   -0.298351
    12  C   -0.299714
    13  C   -0.475742
    14  H    0.149608
    15  H    0.149714
    16  H    0.152006
    17  H    0.152042
    18  H    0.155245
    19  H    0.155208
    20  H    0.160359
    21  C   -0.298510
    22  C   -0.299595
    23  C   -0.475677
    24  H    0.149491
    25  H    0.149418
    26  H    0.151957
    27  H    0.151830
    28  H    0.155044
    29  H    0.155124
    30  H    0.160244
    31  C   -0.298256
    32  C   -0.304330
    33  C   -0.476220
    34  H    0.149370
    35  H    0.150161
    36  H    0.151394
    37  H    0.156572
    38  H    0.156729
    39  H    0.154947
    40  H    0.159678
 Sum of Mulliken charges =  -0.00000

 Dipole moment (field-independent basis, Debye):
    X=             -0.0288    Y=             -0.0108    Z=              0.0094  Tot=              0.0321
 Quadrupole moment (field-independent basis, Debye-Ang):
   XX=            -84.6749   YY=            -86.3633   ZZ=            -83.7395
   XY=              0.6366   XZ=             -1.0804   YZ=              0.1352

 Normal termination of Gaussian 16 at Wed May  5 15:05:07 2021.
