 Gaussian 16, Revision A.03,
 Gaussian 16:  EM64L-G16RevA.03 25-Dec-2016

 -------------
 #p 6-31g* mp2
 -------------

 ------------------------------------------------------
 Input file generated by CHIRIPA (05-May-2021 14:51:14)
 ------------------------------------------------------
 Symbolic Z-matrix:
 Charge =  0 Multiplicity = 1

                         Standard orientation:
 ---------------------------------------------------------------------
 Center     Atomic      Atomic             Coordinates (Angstroms)
 Number     Number       Type             X           Y           Z
 ---------------------------------------------------------------------
      1          6           0        3.538526    0.450751    0.193758
      2          6           0        3.934409    0.326640   -1.277928
      3          6           0        5.052330    1.292097   -1.672819
      4          1           0        3.221788    1.483114    0.395867
      5          1           0        4.421921    0.266424    0.820679
      6          1           0        3.050220    0.509784   -1.901854
      7          1           0        4.250059   -0.705595   -1.476602
      8          1           0        5.950646    1.106460   -1.075184
      9          1           0        4.743990    2.328745   -1.502852
     10          1           0        5.319612    1.186454   -2.728878
     11          6           0        2.422068   -0.507992    0.603709
     12          6           0        2.026185   -0.383882    2.075394
     13          6           0        0.908264   -1.349339    2.470286
     14          1           0        1.538672   -0.323665   -0.023213
     15          1           0        2.738806   -1.540356    0.401600
     16          1           0        1.710534    0.648353    2.274069
     17          1           0        2.910373   -0.567026    2.699321
     18          1           0        1.216604   -2.385986    2.300319
     19          1           0        0.009948   -1.163702    1.872650
     20          1           0        0.640982   -1.243695    3.526345
     21          6           0       -2.916989   -0.513204   -0.933383
     22          6           0       -2.449688   -1.859719   -0.379747
     23          6           0       -2.327873   -2.933473   -1.461417
     24          1           0       -3.887166   -0.645558   -1.431566
     25          1           0       -2.211814   -0.177853   -1.706470
     26          1           0       -3.154783   -2.191768    0.393039
     27          1           0       -1.480601   -1.724107    0.117342
     28          1           0       -1.609302   -2.627594   -2.228681
     29          1           0       -3.292995   -3.097913   -1.951417
     30          1           0       -1.992486   -3.887882   -1.043710
     31          6           0       -3.043605    0.570446    0.135916
     32          6           0       -3.510906    1.916960   -0.417719
     33          6           0       -3.632720    2.990714    0.663950
     34          1           0       -3.748780    0.235095    0.909003
     35          1           0       -2.073428    0.702799    0.634098
     36          1           0       -4.479992    1.781348   -0.914809
     37          1           0       -2.805811    2.249009   -1.190507
     38          1           0       -2.667599    3.155154    1.153949
     39          1           0       -4.351292    2.684836    1.431214
     40          1           0       -3.968108    3.945122    0.246243
 ---------------------------------------------------------------------

 SCF Done:  E(RHF) =  -470.733300087     A.U. after   11 cycles
 E2 =    -0.1582997515D+01 EUMP2 =    -0.47231629760172D+03

 The electronic state is 1-A.
 Alpha  occ. eigenvalues --  -11.21638 -11.21637 -11.21635 -11.21581 -11.21453
 Alpha  occ. eigenvalues --  -11.21437 -11.21393 -11.21374 -11.21098 -11.21098
 Alpha  occ. eigenvalues --  -11.21074 -11.21056  -1.08478  -1.08449  -1.03572
 Alpha  occ. eigenvalues --   -1.03534  -0.96013  -0.95991  -0.87039  -0.86999
 Alpha  occ. eigenvalues --   -0.79677  -0.79562  -0.78324  -0.78230  -0.65187
 Alpha  occ. eigenvalues --   -0.65014  -0.61041  -0.60872  -0.59401  -0.59340
 Alpha  occ. eigenvalues --   -0.57644  -0.57581  -0.55311  -0.55279  -0.52701
 Alpha  occ. eigenvalues --   -0.52690  -0.52468  -0.52391  -0.50018  -0.49901
 Alpha  occ. eigenvalues --   -0.48091  -0.47822  -0.46807  -0.46540  -0.45970
 Alpha  occ. eigenvalues --   -0.45786  -0.45761  -0.45435  -0.43820  -0.43799
 Alpha virt. eigenvalues --    0.20243   0.23309   0.23778   0.24387   0.25669
 Alpha virt. eigenvalues --    0.26893   0.27034   0.27742   0.28018   0.29171
 Alpha virt. eigenvalues --    0.30810   0.31642   0.31711   0.31902   0.31932

 Mulliken charges:
               1
     1  C   -0.298308
     2  C   -0.299634
     3  C   -0.475740
     4  H    0.149603
     5  H    0.149869
     6  H    0.151649
     7  H    0.152117
     8  H    0.155303
     9  H    0.155201
    10  H    0.160371
    11  C   -0.298813
    12  C   -0.299409
    13  C   -0.483864
    14  H    0.148725
    15  H    0.150010
    16  H    0.151571
    17  H    0.152226
    18  H    0.155199
    19  H    0.163118
    20  H    0.160778
    21  C   -0.297841
    22  C   -0.308119
    23  C   -0.475066
    24  H    0.149900
    25  H    0.148949
    26  H    0.152022
    27  H    0.160146
    28  H    0.155094
    29  H    0.155012
    30  H    0.160541
    31  C   -0.299972
    32  C   -0.299640
    33  C   -0.475678
    34  H    0.149998
    35  H    0.149922
    36  H    0.152296
    37  H    0.151729
    38  H    0.154993
    39  H    0.155399
    40  H    0.160345
 Sum of Mulliken charges =  -0.00000

 Dipole moment (field-independent basis, Debye):
    X=              0.0004    Y=             -0.0110    Z=              0.0088  Tot=              0.0140
 Quadrupole moment (field-independent basis, Debye-Ang):
   XX=            -83.9033   YY=            -85.3727   ZZ=            -85.3511
   XY=             -0.6332   XZ=              0.4389   YZ=             -0.5459

 Normal termination of Gaussian 16 at Wed May  5 18:24:53 2021.
