 Gaussian 16, Revision A.03,
 Gaussian 16:  EM64L-G16RevA.03 25-Dec-2016

 -------------
 #p 6-31g* mp2
 -------------

 ------------------------------------------------------
 Input file generated by CHIRIPA (05-May-2021 14:53:13)
 ------------------------------------------------------
 Symbolic Z-matrix:
 Charge =  0 Multiplicity = 1

                         Standard orientation:
 ---------------------------------------------------------------------
 Center     Atomic      Atomic             Coordinates (Angstroms)
 Number     Number       Type             X           Y           Z
 ---------------------------------------------------------------------
      1          6           0       -5.557016   -0.102327    0.370735
      2          6           0       -6.267271   -0.560021   -0.903643
      3          6           0       -7.676836   -1.089150   -0.637294
      4          1           0       -5.507512   -0.942257    1.077142
      5          1           0       -6.157471    0.679431    0.856229
      6          1           0       -5.664971   -1.339706   -1.387319
      7          1           0       -6.314920    0.281044   -1.607174
      8          1           0       -8.298254   -0.314747   -0.176058
      9          1           0       -7.644613   -1.944705    0.045046
     10          1           0       -8.166263   -1.410838   -1.561869
     11          6           0       -4.146827    0.429272    0.120742
     12          6           0       -3.436573    0.886966    1.395120
     13          6           0       -2.027008    1.416095    1.128771
     14          1           0       -3.546372   -0.352486   -0.364752
     15          1           0       -4.196332    1.269202   -0.585665
     16          1           0       -3.388923    0.045901    2.098651
     17          1           0       -4.038872    1.666651    1.878796
     18          1           0       -2.059231    2.271650    0.446431
     19          1           0       -1.405589    0.641691    0.667535
     20          1           0       -1.537581    1.737783    2.053346
     21          6           0        1.356113    0.227843   -0.751404
     22          6           0        2.316494    1.145030   -1.190672
     23          6           0        3.668211    0.958088   -0.886596
     24          6           0        4.025918   -0.162087   -0.137901
     25          6           0        3.092623   -1.093708    0.314131
     26          6           0        1.746555   -0.886634   -0.001726
     27          1           0        0.308261    0.380884   -0.992193
     28          1           0        2.016167    2.011454   -1.773046
     29          1           0        4.432493    1.652433   -1.213976
     30          1           0        3.422508   -1.947858    0.892943
     31          1           0        1.002888   -1.600580    0.340745
     32          7           0        5.453930   -0.370650    0.190247
     33          8           0        5.743316   -1.365584    0.851307
     34          8           0        6.256780    0.464759   -0.219824
 ---------------------------------------------------------------------

 SCF Done:  E(RHF) =  -669.535313165     A.U. after   15 cycles
 E2 =    -0.2091026021D+01 EUMP2 =    -0.67162633918515D+03

 The electronic state is 1-A.
 Alpha  occ. eigenvalues --  -20.60728 -20.60723 -15.85783 -11.31140 -11.27716
 Alpha  occ. eigenvalues --  -11.27710 -11.27418 -11.26727 -11.26707 -11.22451
 Alpha  occ. eigenvalues --  -11.22216 -11.22177 -11.22138 -11.22024 -11.21544
 Alpha  occ. eigenvalues --   -1.59804  -1.39358  -1.19313  -1.09174  -1.08707
 Alpha  occ. eigenvalues --   -1.04718  -1.04271  -0.96738  -0.95543  -0.87755
 Alpha  occ. eigenvalues --   -0.86114  -0.82380  -0.80342  -0.78972  -0.77427
 Alpha  occ. eigenvalues --   -0.72001  -0.71128  -0.70438  -0.65805  -0.64966
 Alpha  occ. eigenvalues --   -0.64726  -0.62070  -0.61669  -0.60099  -0.58348
 Alpha  occ. eigenvalues --   -0.56099  -0.55199  -0.53411  -0.53177  -0.52987
 Alpha  occ. eigenvalues --   -0.52810  -0.50675  -0.48766  -0.48756  -0.48641
 Alpha  occ. eigenvalues --   -0.47370  -0.46515  -0.46428  -0.44766  -0.44512
 Alpha  occ. eigenvalues --   -0.37270  -0.36324
 Alpha virt. eigenvalues --    0.05094   0.11303   0.16541   0.20144   0.22388
 Alpha virt. eigenvalues --    0.23786   0.25568   0.26313   0.27043   0.27311
 Alpha virt. eigenvalues --    0.29063   0.30570   0.31035   0.31225   0.32158

 Mulliken charges:
               1
     1  C   -0.298650
     2  C   -0.300033
     3  C   -0.476090
     4  H    0.150691
     5  H    0.151572
     6  H    0.151339
     7  H    0.152346
     8  H    0.156243
     9  H    0.155914
    10  H    0.161650
    11  C   -0.298209
    12  C   -0.300117
    13  C   -0.477681
    14  H    0.144573
    15  H    0.149989
    16  H    0.153609
    17  H    0.155860
    18  H    0.155016
    19  H    0.145149
    20  H    0.166777
    21  C   -0.170225
    22  C   -0.219568
    23  C   -0.170942
    24  C    0.158312
    25  C   -0.170966
    26  C   -0.219402
    27  H    0.229028
    28  H    0.223513
    29  H    0.275422
    30  H    0.275389
    31  H    0.222567
    32  N    0.488107
    33  O   -0.460633
    34  O   -0.460552
 Sum of Mulliken charges =  -0.00000

 Dipole moment (field-independent basis, Debye):
    X=             -5.2264    Y=              0.7855    Z=             -1.0995  Tot=              5.3983
 Quadrupole moment (field-independent basis, Debye-Ang):
   XX=           -135.8326   YY=            -90.9034   ZZ=            -93.7531
   XY=              4.1006   XZ=             -4.7455   YZ=             -2.3728

 Normal termination of Gaussian 16 at Thu May  6 15:25:09 2021.
