 Gaussian 16, Revision A.03,
 Gaussian 16:  EM64L-G16RevA.03 25-Dec-2016

 -------------
 #p 6-31g* mp2
 -------------

 ------------------------------------------------------
 Input file generated by CHIRIPA (05-May-2021 14:57:21)
 ------------------------------------------------------
 Symbolic Z-matrix:
 Charge =  0 Multiplicity = 1

                         Standard orientation:
 ---------------------------------------------------------------------
 Center     Atomic      Atomic             Coordinates (Angstroms)
 Number     Number       Type             X           Y           Z
 ---------------------------------------------------------------------
      1          6           0        1.148295    1.963974   -1.326954
      2          6           0        0.582745    0.685170   -1.290454
      3          6           0        1.306179   -0.396811   -0.780054
      4          6           0        2.598445   -0.163015   -0.312424
      5          6           0        3.189482    1.099300   -0.335376
      6          6           0        2.447569    2.166601   -0.850139
      7          1           0        0.579136    2.798781   -1.725140
      8          1           0       -0.426082    0.524856   -1.660068
      9          1           0        0.892671   -1.397221   -0.739961
     10          1           0        4.197306    1.228007    0.040316
     11          1           0        2.889332    3.158647   -0.877245
     12          7           0        3.374095   -1.300688    0.230224
     13          8           0        4.510746   -1.068455    0.636091
     14          8           0        2.830710   -2.403089    0.239408
     15          6           0       -3.753599   -1.632369   -1.059161
     16          6           0       -2.845589   -2.118463   -0.112719
     17          6           0       -2.129233   -1.236798    0.702172
     18          6           0       -2.346575    0.130956    0.543105
     19          6           0       -3.244291    0.646043   -0.390748
     20          6           0       -3.949706   -0.254097   -1.194916
     21          1           0       -4.305832   -2.324444   -1.688023
     22          1           0       -2.691259   -3.188344   -0.005088
     23          1           0       -1.420145   -1.585957    1.442914
     24          1           0       -3.376738    1.717866   -0.474834
     25          1           0       -4.654235    0.126257   -1.929091
     26          7           0       -1.593992    1.074115    1.400117
     27          8           0       -1.803533    2.274622    1.240386
     28          8           0       -0.808825    0.594998    2.215346
 ---------------------------------------------------------------------

 SCF Done:  E(RHF) =  -868.337359995     A.U. after   16 cycles
 E2 =    -0.2604286091D+01 EUMP2 =    -0.87094164608548D+03

 The electronic state is 1-A.
 Alpha  occ. eigenvalues --  -20.61346 -20.61297 -20.60426 -20.60398 -15.86358
 Alpha  occ. eigenvalues --  -15.85467 -11.31887 -11.30699 -11.28488 -11.28377
 Alpha  occ. eigenvalues --  -11.28179 -11.27552 -11.27458 -11.27353 -11.27262
 Alpha  occ. eigenvalues --  -11.26999 -11.26240 -11.26216  -1.60378  -1.59486
 Alpha  occ. eigenvalues --   -1.39933  -1.39048  -1.20103  -1.18873  -1.09435
 Alpha  occ. eigenvalues --   -1.08286  -1.05499  -1.04294  -0.96239  -0.95146
 Alpha  occ. eigenvalues --   -0.86867  -0.85701  -0.83059  -0.82008  -0.78093
 Alpha  occ. eigenvalues --   -0.77085  -0.72587  -0.71741  -0.71692  -0.71128
 Alpha  occ. eigenvalues --   -0.70790  -0.69997  -0.65707  -0.65448  -0.64548
 Alpha  occ. eigenvalues --   -0.64332  -0.62805  -0.61699  -0.55933  -0.54824
 Alpha  occ. eigenvalues --   -0.53863  -0.53536  -0.52555  -0.52319  -0.49365
 Alpha  occ. eigenvalues --   -0.49332  -0.48458  -0.48435  -0.45314  -0.44486
 Alpha  occ. eigenvalues --   -0.38145  -0.37165  -0.36773  -0.35761
 Alpha virt. eigenvalues --    0.04347   0.05483   0.10371   0.11870   0.15878
 Alpha virt. eigenvalues --    0.17014   0.20752   0.21904   0.26549   0.27372
 Alpha virt. eigenvalues --    0.27935   0.28776   0.30477   0.31375   0.31878

 Mulliken charges:
               1
     1  C   -0.161913
     2  C   -0.234703
     3  C   -0.167723
     4  C    0.162698
     5  C   -0.168062
     6  C   -0.216156
     7  H    0.226473
     8  H    0.224781
     9  H    0.268094
    10  H    0.275057
    11  H    0.223596
    12  N    0.489010
    13  O   -0.459894
    14  O   -0.465982
    15  C   -0.172268
    16  C   -0.220380
    17  C   -0.177707
    18  C    0.155711
    19  C   -0.181025
    20  C   -0.218652
    21  H    0.229061
    22  H    0.230051
    23  H    0.283266
    24  H    0.274911
    25  H    0.225578
    26  N    0.493898
    27  O   -0.464239
    28  O   -0.453476
 Sum of Mulliken charges =  -0.00000

 Dipole moment (field-independent basis, Debye):
    X=             -5.4261    Y=              0.7218    Z=             -4.7554  Tot=              7.2510
 Quadrupole moment (field-independent basis, Debye-Ang):
   XX=           -103.0568   YY=           -102.5202   ZZ=           -107.0857
   XY=             19.9420   XZ=              3.6834   YZ=             -4.5746

 Normal termination of Gaussian 16 at Thu May  6 04:56:59 2021.
