 Gaussian 16, Revision A.03,
 Gaussian 16:  EM64L-G16RevA.03 25-Dec-2016

 -------------
 #p 6-31g* mp2
 -------------

 ------------------------------------------------------
 Input file generated by CHIRIPA (05-May-2021 14:57:23)
 ------------------------------------------------------
 Symbolic Z-matrix:
 Charge =  0 Multiplicity = 1

                         Standard orientation:
 ---------------------------------------------------------------------
 Center     Atomic      Atomic             Coordinates (Angstroms)
 Number     Number       Type             X           Y           Z
 ---------------------------------------------------------------------
      1          6           0       -1.993210    1.503878   -0.110897
      2          6           0       -3.214672    2.158225   -0.301636
      3          6           0       -4.412819    1.437834   -0.307016
      4          6           0       -4.352399    0.058033   -0.117840
      5          6           0       -3.151178   -0.622621    0.074693
      6          6           0       -1.965411    0.117987    0.076329
      7          1           0       -1.067269    2.071347   -0.108172
      8          1           0       -3.239288    3.234434   -0.447282
      9          1           0       -5.372334    1.919073   -0.452477
     10          1           0       -3.158531   -1.696411    0.217309
     11          1           0       -1.018264   -0.392843    0.224689
     12          7           0       -5.614271   -0.715314   -0.121553
     13          8           0       -5.534117   -1.930101    0.047282
     14          8           0       -6.659587   -0.092033   -0.293229
     15          6           0        2.020523   -0.511298    1.439650
     16          6           0        2.103828   -0.976727    0.123232
     17          6           0        3.275639   -0.801709   -0.618912
     18          6           0        4.349759   -0.153991   -0.010619
     19          6           0        4.297562    0.320948    1.298961
     20          6           0        3.115724    0.134915    2.022285
     21          1           0        1.106337   -0.651534    2.008856
     22          1           0        1.254858   -1.478942   -0.331822
     23          1           0        3.367311   -1.152126   -1.639804
     24          1           0        5.160481    0.817801    1.725488
     25          1           0        3.053877    0.497411    3.044448
     26          7           0        5.595609    0.037123   -0.786332
     27          8           0        6.527876    0.610954   -0.227553
     28          8           0        5.616251   -0.390533   -1.938427
 ---------------------------------------------------------------------

 SCF Done:  E(RHF) =  -868.336685411     A.U. after   16 cycles
 E2 =    -0.2600150494D+01 EUMP2 =    -0.87093683590514D+03

 The electronic state is 1-A.
 Alpha  occ. eigenvalues --  -20.61412 -20.61406 -20.61292 -20.61283 -15.86472
 Alpha  occ. eigenvalues --  -15.86351 -11.32012 -11.31824 -11.28621 -11.28576
 Alpha  occ. eigenvalues --  -11.28483 -11.28446 -11.28390 -11.28187 -11.27749
 Alpha  occ. eigenvalues --  -11.27628 -11.27569 -11.27390  -1.60484  -1.60364
 Alpha  occ. eigenvalues --   -1.40032  -1.39915  -1.20218  -1.20025  -1.09601
 Alpha  occ. eigenvalues --   -1.09392  -1.05643  -1.05460  -0.96394  -0.96203
 Alpha  occ. eigenvalues --   -0.87077  -0.86829  -0.83212  -0.83049  -0.78236
 Alpha  occ. eigenvalues --   -0.78068  -0.72687  -0.72566  -0.71810  -0.71691
 Alpha  occ. eigenvalues --   -0.71356  -0.71107  -0.65951  -0.65805  -0.65679
 Alpha  occ. eigenvalues --   -0.65310  -0.63039  -0.62731  -0.56184  -0.55926
 Alpha  occ. eigenvalues --   -0.53993  -0.53804  -0.53753  -0.53478  -0.49461
 Alpha  occ. eigenvalues --   -0.49429  -0.49333  -0.49314  -0.45398  -0.45297
 Alpha  occ. eigenvalues --   -0.38239  -0.37999  -0.37240  -0.37069
 Alpha virt. eigenvalues --    0.04307   0.04485   0.10264   0.10550   0.15736
 Alpha virt. eigenvalues --    0.15929   0.18317   0.21895   0.24807   0.26925
 Alpha virt. eigenvalues --    0.27676   0.28641   0.29830   0.30679   0.31642

 Mulliken charges:
               1
     1  C   -0.172228
     2  C   -0.218467
     3  C   -0.169559
     4  C    0.159148
     5  C   -0.171458
     6  C   -0.224118
     7  H    0.228887
     8  H    0.226275
     9  H    0.277961
    10  H    0.275365
    11  H    0.216745
    12  N    0.488080
    13  O   -0.460012
    14  O   -0.458330
    15  C   -0.175364
    16  C   -0.223474
    17  C   -0.169829
    18  C    0.158904
    19  C   -0.170021
    20  C   -0.218655
    21  H    0.224559
    22  H    0.220523
    23  H    0.278649
    24  H    0.278431
    25  H    0.226518
    26  N    0.487894
    27  O   -0.458154
    28  O   -0.458271
 Sum of Mulliken charges =  -0.00000

 Dipole moment (field-independent basis, Debye):
    X=              0.1539    Y=              2.1873    Z=              2.7176  Tot=              3.4919
 Quadrupole moment (field-independent basis, Debye-Ang):
   XX=           -178.5924   YY=           -100.3091   ZZ=           -102.6107
   XY=            -15.5518   XZ=             13.9115   YZ=              0.6198

 Normal termination of Gaussian 16 at Thu May  6 21:10:10 2021.
