 Gaussian 16, Revision A.03,
 Gaussian 16:  EM64L-G16RevA.03 25-Dec-2016

 -------------
 #p 6-31g* mp2
 -------------

 ------------------------------------------------------
 Input file generated by CHIRIPA (05-May-2021 14:55:25)
 ------------------------------------------------------
 Symbolic Z-matrix:
 Charge =  0 Multiplicity = 1

                         Standard orientation:
 ---------------------------------------------------------------------
 Center     Atomic      Atomic             Coordinates (Angstroms)
 Number     Number       Type             X           Y           Z
 ---------------------------------------------------------------------
      1          6           0       -5.737003    0.878418    0.476568
      2          6           0       -5.639737   -0.505684    0.653547
      3          6           0       -4.453459   -1.179029    0.347118
      4          6           0       -3.379265   -0.433669   -0.136446
      5          6           0       -3.445170    0.946160   -0.323583
      6          6           0       -4.641341    1.598653   -0.010573
      7          1           0       -6.662375    1.393390    0.717166
      8          1           0       -6.489030   -1.067596    1.031703
      9          1           0       -4.350802   -2.249837    0.474592
     10          1           0       -2.581555    1.479235   -0.702289
     11          1           0       -4.714012    2.673640   -0.149017
     12          7           0       -2.118169   -1.135472   -0.464333
     13          8           0       -1.186153   -0.455957   -0.888883
     14          8           0       -2.085617   -2.351771   -0.290571
     15          6           0        5.317430    0.312860   -0.112661
     16          6           0        5.988657   -0.904783    0.523564
     17          6           0        7.440582   -1.079863    0.077409
     18          1           0        5.357320    0.215919   -1.206259
     19          1           0        5.891604    1.214348    0.142370
     20          1           0        5.412608   -1.803535    0.268555
     21          1           0        5.946996   -0.805024    1.615776
     22          1           0        8.034865   -0.200529    0.346108
     23          1           0        7.497442   -1.204713   -1.008768
     24          1           0        7.901125   -1.956144    0.544197
     25          6           0        3.865569    0.501227    0.323622
     26          6           0        3.194342    1.718871   -0.312604
     27          6           0        1.742418    1.893951    0.133553
     28          1           0        3.291395   -0.400260    0.068590
     29          1           0        3.825679    0.598168    1.417220
     30          1           0        3.236004    1.619112   -1.404816
     31          1           0        3.770390    2.617623   -0.057595
     32          1           0        1.685557    2.018801    1.219729
     33          1           0        1.148134    1.014617   -0.135147
     34          1           0        1.281873    2.770232   -0.333236
 ---------------------------------------------------------------------

 SCF Done:  E(RHF) =  -669.536261643     A.U. after   15 cycles
 E2 =    -0.2090678008D+01 EUMP2 =    -0.67162693965067D+03

 The electronic state is 1-A.
 Alpha  occ. eigenvalues --  -20.60923 -20.60913 -15.85957 -11.31259 -11.27826
 Alpha  occ. eigenvalues --  -11.27814 -11.27564 -11.26831 -11.26819 -11.20985
 Alpha  occ. eigenvalues --  -11.20755 -11.20699 -11.20558 -11.20525 -11.20006
 Alpha  occ. eigenvalues --   -1.59983  -1.39539  -1.19429  -1.08838  -1.07676
 Alpha  occ. eigenvalues --   -1.04823  -1.02773  -0.95684  -0.95217  -0.86239
 Alpha  occ. eigenvalues --   -0.86223  -0.82517  -0.78852  -0.77576  -0.77472
 Alpha  occ. eigenvalues --   -0.72187  -0.71295  -0.70539  -0.65087  -0.64827
 Alpha  occ. eigenvalues --   -0.64301  -0.62169  -0.60156  -0.58615  -0.56835
 Alpha  occ. eigenvalues --   -0.55331  -0.54480  -0.53156  -0.52915  -0.51942
 Alpha  occ. eigenvalues --   -0.51638  -0.49171  -0.48941  -0.48894  -0.47164
 Alpha  occ. eigenvalues --   -0.45885  -0.45070  -0.44994  -0.44800  -0.43044
 Alpha  occ. eigenvalues --   -0.37409  -0.36424
 Alpha virt. eigenvalues --    0.04934   0.11231   0.16411   0.21312   0.23621
 Alpha virt. eigenvalues --    0.25042   0.27160   0.27417   0.27883   0.28289
 Alpha virt. eigenvalues --    0.29024   0.30873   0.31958   0.32363   0.32709

 Mulliken charges:
               1
     1  C   -0.170571
     2  C   -0.218643
     3  C   -0.170759
     4  C    0.157818
     5  C   -0.170558
     6  C   -0.218636
     7  H    0.225876
     8  H    0.223661
     9  H    0.275692
    10  H    0.276727
    11  H    0.223869
    12  N    0.492021
    13  O   -0.463975
    14  O   -0.459207
    15  C   -0.297862
    16  C   -0.299543
    17  C   -0.475343
    18  H    0.149507
    19  H    0.146790
    20  H    0.154082
    21  H    0.150612
    22  H    0.153589
    23  H    0.154889
    24  H    0.158927
    25  C   -0.299611
    26  C   -0.297791
    27  C   -0.487389
    28  H    0.157540
    29  H    0.146901
    30  H    0.151991
    31  H    0.146561
    32  H    0.148560
    33  H    0.183489
    34  H    0.150785
 Sum of Mulliken charges =  -0.00000

 Dipole moment (field-independent basis, Debye):
    X=             -4.6936    Y=              2.3242    Z=              1.1079  Tot=              5.3534
 Quadrupole moment (field-independent basis, Debye-Ang):
   XX=            -66.1970   YY=            -93.4523   ZZ=            -95.0668
   XY=             -4.4566   XZ=             -3.7602   YZ=             -1.8813

 Normal termination of Gaussian 16 at Thu May  6 03:11:51 2021.
