 Gaussian 16, Revision A.03,
 Gaussian 16:  EM64L-G16RevA.03 25-Dec-2016

 -------------
 #p 6-31g* mp2
 -------------

 ------------------------------------------------------
 Input file generated by CHIRIPA (05-May-2021 14:57:26)
 ------------------------------------------------------
 Symbolic Z-matrix:
 Charge =  0 Multiplicity = 1

                         Standard orientation:
 ---------------------------------------------------------------------
 Center     Atomic      Atomic             Coordinates (Angstroms)
 Number     Number       Type             X           Y           Z
 ---------------------------------------------------------------------
      1          6           0       -4.555255    2.170362    1.018199
      2          6           0       -5.476280    1.185837    0.645449
      3          6           0       -5.043537   -0.000932    0.046400
      4          6           0       -3.676319   -0.170865   -0.166037
      5          6           0       -2.734117    0.791317    0.194171
      6          6           0       -3.189520    1.970312    0.791770
      7          1           0       -4.900222    3.089254    1.482992
      8          1           0       -6.537529    1.338481    0.820079
      9          1           0       -5.734891   -0.779641   -0.252030
     10          1           0       -1.682548    0.610519    0.007265
     11          1           0       -2.471968    2.733176    1.080220
     12          7           0       -3.206199   -1.423130   -0.799456
     13          8           0       -1.996329   -1.548667   -0.975784
     14          8           0       -4.056490   -2.255407   -1.107607
     15          6           0        2.830797   -2.148450    1.086106
     16          6           0        2.000748   -1.319181    0.324625
     17          6           0        2.501408   -0.146031   -0.247745
     18          6           0        3.843034    0.168747   -0.037399
     19          6           0        4.695186   -0.636970    0.716224
     20          6           0        4.173000   -1.805302    1.279135
     21          1           0        2.433511   -3.057910    1.527063
     22          1           0        0.957972   -1.583168    0.173049
     23          1           0        1.881007    0.514052   -0.841723
     24          1           0        5.730432   -0.347396    0.849755
     25          1           0        4.819954   -2.447426    1.870044
     26          7           0        4.384454    1.408159   -0.638335
     27          8           0        5.570012    1.663174   -0.438190
     28          8           0        3.613011    2.101124   -1.298116
 ---------------------------------------------------------------------

 SCF Done:  E(RHF) =  -868.339720230     A.U. after   16 cycles
 E2 =    -0.2598626086D+01 EUMP2 =    -0.87093834631587D+03

 The electronic state is 1-A.
 Alpha  occ. eigenvalues --  -20.61576 -20.61513 -20.60579 -20.60571 -15.86585
 Alpha  occ. eigenvalues --  -15.85623 -11.31727 -11.30865 -11.28303 -11.28239
 Alpha  occ. eigenvalues --  -11.27931 -11.27412 -11.27372 -11.27212 -11.27202
 Alpha  occ. eigenvalues --  -11.27056 -11.26414 -11.26220  -1.60603  -1.59655
 Alpha  occ. eigenvalues --   -1.40170  -1.39212  -1.19868  -1.18999  -1.09296
 Alpha  occ. eigenvalues --   -1.08409  -1.05238  -1.04368  -0.96174  -0.95276
 Alpha  occ. eigenvalues --   -0.86647  -0.85763  -0.83020  -0.82100  -0.78103
 Alpha  occ. eigenvalues --   -0.77172  -0.72815  -0.71908  -0.71844  -0.70976
 Alpha  occ. eigenvalues --   -0.70974  -0.70101  -0.65525  -0.65231  -0.64639
 Alpha  occ. eigenvalues --   -0.64320  -0.62600  -0.61699  -0.55731  -0.54854
 Alpha  occ. eigenvalues --   -0.53574  -0.53326  -0.52723  -0.52422  -0.49578
 Alpha  occ. eigenvalues --   -0.49527  -0.48609  -0.48585  -0.45620  -0.44646
 Alpha  occ. eigenvalues --   -0.37822  -0.36968  -0.36829  -0.35977
 Alpha virt. eigenvalues --    0.04410   0.05325   0.10826   0.11680   0.15948
 Alpha virt. eigenvalues --    0.16855   0.20090   0.21983   0.25377   0.27275
 Alpha virt. eigenvalues --    0.28598   0.29019   0.30775   0.31342   0.32842

 Mulliken charges:
               1
     1  C   -0.170044
     2  C   -0.218258
     3  C   -0.170653
     4  C    0.158606
     5  C   -0.169790
     6  C   -0.218128
     7  H    0.228309
     8  H    0.225398
     9  H    0.276437
    10  H    0.269100
    11  H    0.227358
    12  N    0.492168
    13  O   -0.472982
    14  O   -0.455406
    15  C   -0.171866
    16  C   -0.227696
    17  C   -0.174926
    18  C    0.158783
    19  C   -0.172497
    20  C   -0.218321
    21  H    0.227356
    22  H    0.244493
    23  H    0.272319
    24  H    0.273977
    25  H    0.222179
    26  N    0.488121
    27  O   -0.461249
    28  O   -0.462786
 Sum of Mulliken charges =  -0.00000

 Dipole moment (field-independent basis, Debye):
    X=             -3.9440    Y=              0.0191    Z=              4.3995  Tot=              5.9085
 Quadrupole moment (field-independent basis, Debye-Ang):
   XX=            -98.4305   YY=           -107.9397   ZZ=           -106.4825
   XY=            -33.0793   XZ=              2.4779   YZ=             -0.7759

 Normal termination of Gaussian 16 at Thu May  6 16:29:22 2021.
