 Gaussian 16, Revision A.03,
 Gaussian 16:  EM64L-G16RevA.03 25-Dec-2016

 -------------
 #p 6-31g* mp2
 -------------

 ------------------------------------------------------
 Input file generated by CHIRIPA (05-May-2021 14:57:24)
 ------------------------------------------------------
 Symbolic Z-matrix:
 Charge =  0 Multiplicity = 1

                         Standard orientation:
 ---------------------------------------------------------------------
 Center     Atomic      Atomic             Coordinates (Angstroms)
 Number     Number       Type             X           Y           Z
 ---------------------------------------------------------------------
      1          6           0       -3.093860    1.933282    1.553905
      2          6           0       -2.867168    2.052226    0.178774
      3          6           0       -2.752397    0.912747   -0.623076
      4          6           0       -2.870036   -0.335629   -0.013971
      5          6           0       -3.095906   -0.486859    1.353289
      6          6           0       -3.207306    0.666353    2.135748
      7          1           0       -3.181708    2.823790    2.169269
      8          1           0       -2.778638    3.034855   -0.275812
      9          1           0       -2.576909    0.975956   -1.690141
     10          1           0       -3.179664   -1.479936    1.777791
     11          1           0       -3.383360    0.570953    3.203431
     12          7           0       -2.750317   -1.549213   -0.852590
     13          8           0       -2.857750   -2.637600   -0.291778
     14          8           0       -2.551317   -1.389055   -2.054831
     15          6           0        1.543370    1.882123   -1.350150
     16          6           0        1.054229    0.577061   -1.231518
     17          6           0        1.791698   -0.398784   -0.554457
     18          6           0        3.019931   -0.033230   -0.005726
     19          6           0        3.534164    1.258505   -0.107101
     20          6           0        2.779597    2.218088   -0.788552
     21          1           0        0.963844    2.633868   -1.877813
     22          1           0        0.094478    0.313297   -1.666664
     23          1           0        1.436748   -1.416647   -0.447775
     24          1           0        4.494254    1.491398    0.337202
     25          1           0        3.161957    3.230828   -0.879127
     26          7           0        3.809708   -1.057706    0.713372
     27          8           0        4.888943   -0.710292    1.187914
     28          8           0        3.334545   -2.188706    0.788842
 ---------------------------------------------------------------------

 SCF Done:  E(RHF) =  -868.337859421     A.U. after   16 cycles
 E2 =    -0.2601042664D+01 EUMP2 =    -0.87093890208543D+03

 The electronic state is 1-A.
 Alpha  occ. eigenvalues --  -20.61670 -20.61622 -20.60629 -20.60612 -15.86664
 Alpha  occ. eigenvalues --  -15.85675 -11.31958 -11.31067 -11.28594 -11.28438
 Alpha  occ. eigenvalues --  -11.28188 -11.27658 -11.27563 -11.27546 -11.27438
 Alpha  occ. eigenvalues --  -11.27423 -11.26722 -11.26580  -1.60709  -1.59700
 Alpha  occ. eigenvalues --   -1.40265  -1.39250  -1.20114  -1.19242  -1.09513
 Alpha  occ. eigenvalues --   -1.08651  -1.05508  -1.04634  -0.96364  -0.95478
 Alpha  occ. eigenvalues --   -0.86915  -0.86043  -0.83196  -0.82297  -0.78276
 Alpha  occ. eigenvalues --   -0.77326  -0.72872  -0.72040  -0.71893  -0.71214
 Alpha  occ. eigenvalues --   -0.71024  -0.70388  -0.65764  -0.65516  -0.64896
 Alpha  occ. eigenvalues --   -0.64640  -0.62869  -0.61957  -0.55979  -0.55201
 Alpha  occ. eigenvalues --   -0.53865  -0.53599  -0.52961  -0.52692  -0.49656
 Alpha  occ. eigenvalues --   -0.49621  -0.48658  -0.48643  -0.45660  -0.44649
 Alpha  occ. eigenvalues --   -0.38072  -0.37383  -0.37001  -0.36176
 Alpha virt. eigenvalues --    0.04221   0.05187   0.10381   0.11476   0.15757
 Alpha virt. eigenvalues --    0.16673   0.20099   0.21785   0.25854   0.26958
 Alpha virt. eigenvalues --    0.27956   0.28851   0.29851   0.31162   0.31997

 Mulliken charges:
               1
     1  C   -0.169384
     2  C   -0.216804
     3  C   -0.177975
     4  C    0.159164
     5  C   -0.169250
     6  C   -0.217094
     7  H    0.228299
     8  H    0.222097
     9  H    0.270199
    10  H    0.279323
    11  H    0.227607
    12  N    0.486644
    13  O   -0.452365
    14  O   -0.465547
    15  C   -0.172424
    16  C   -0.222193
    17  C   -0.173409
    18  C    0.158561
    19  C   -0.172030
    20  C   -0.218611
    21  H    0.219463
    22  H    0.231089
    23  H    0.280860
    24  H    0.274717
    25  H    0.221296
    26  N    0.487695
    27  O   -0.461916
    28  O   -0.458011
 Sum of Mulliken charges =  -0.00000

 Dipole moment (field-independent basis, Debye):
    X=             -3.4327    Y=              7.7225    Z=              0.6677  Tot=              8.4774
 Quadrupole moment (field-independent basis, Debye-Ang):
   XX=           -117.4667   YY=           -104.5896   ZZ=           -102.2958
   XY=              1.9753   XZ=            -16.7775   YZ=             -2.7366

 Normal termination of Gaussian 16 at Thu May  6 14:41:20 2021.
