 Gaussian 16, Revision A.03,
 Gaussian 16:  EM64L-G16RevA.03 25-Dec-2016

 -------------
 #p 6-31g* mp2
 -------------

 ------------------------------------------------------
 Input file generated by CHIRIPA (05-May-2021 14:57:21)
 ------------------------------------------------------
 Symbolic Z-matrix:
 Charge =  0 Multiplicity = 1

                         Standard orientation:
 ---------------------------------------------------------------------
 Center     Atomic      Atomic             Coordinates (Angstroms)
 Number     Number       Type             X           Y           Z
 ---------------------------------------------------------------------
      1          6           0        1.658623    2.283183    0.632019
      2          6           0        2.331315    1.544243    1.610781
      3          6           0        3.153092    0.471929    1.251095
      4          6           0        3.279980    0.164781   -0.102733
      5          6           0        2.622852    0.881999   -1.101266
      6          6           0        1.806278    1.950290   -0.718499
      7          1           0        1.022269    3.114620    0.920397
      8          1           0        2.218515    1.800504    2.660376
      9          1           0        3.685419   -0.116904    1.988198
     10          1           0        2.755006    0.602647   -2.139494
     11          1           0        1.285068    2.522403   -1.480780
     12          7           0        4.147204   -0.968301   -0.495734
     13          8           0        4.242354   -1.218722   -1.695264
     14          8           0        4.715364   -1.584533    0.403204
     15          6           0       -5.415683    0.601259   -0.477755
     16          6           0       -5.287417   -0.737412   -0.093009
     17          6           0       -4.029856   -1.275981    0.195137
     18          6           0       -2.916762   -0.443638    0.087819
     19          6           0       -3.012037    0.893972   -0.292986
     20          6           0       -4.279586    1.411250   -0.576342
     21          1           0       -6.396466    1.011363   -0.699734
     22          1           0       -6.167984   -1.368803   -0.015604
     23          1           0       -3.901863   -2.308930    0.495225
     24          1           0       -2.115896    1.498691   -0.361285
     25          1           0       -4.376190    2.451237   -0.874908
     26          7           0       -1.580151   -1.002527    0.390331
     27          8           0       -0.615005   -0.248392    0.288302
     28          8           0       -1.522969   -2.184139    0.723741
 ---------------------------------------------------------------------

 SCF Done:  E(RHF) =  -868.336607464     A.U. after   16 cycles
 E2 =    -0.2601208624D+01 EUMP2 =    -0.87093781608828D+03

 The electronic state is 1-A.
 Alpha  occ. eigenvalues --  -20.61086 -20.61074 -20.59709 -20.59700 -15.86121
 Alpha  occ. eigenvalues --  -15.84757 -11.31589 -11.29965 -11.28220 -11.28122
 Alpha  occ. eigenvalues --  -11.27893 -11.27219 -11.27150 -11.26588 -11.26552
 Alpha  occ. eigenvalues --  -11.26397 -11.25651 -11.25585  -1.60159  -1.58778
 Alpha  occ. eigenvalues --   -1.39712  -1.38341  -1.19762  -1.18131  -1.09135
 Alpha  occ. eigenvalues --   -1.07598  -1.05181  -1.03566  -0.95959  -0.94464
 Alpha  occ. eigenvalues --   -0.86572  -0.85016  -0.82793  -0.81328  -0.77837
 Alpha  occ. eigenvalues --   -0.76365  -0.72361  -0.71488  -0.71001  -0.70866
 Alpha  occ. eigenvalues --   -0.70076  -0.69390  -0.65415  -0.65182  -0.63864
 Alpha  occ. eigenvalues --   -0.63676  -0.62536  -0.60976  -0.55662  -0.54197
 Alpha  occ. eigenvalues --   -0.53499  -0.53276  -0.51786  -0.51751  -0.49121
 Alpha  occ. eigenvalues --   -0.49068  -0.47750  -0.47741  -0.45111  -0.43784
 Alpha  occ. eigenvalues --   -0.37737  -0.36790  -0.36061  -0.35073
 Alpha virt. eigenvalues --    0.04685   0.06223   0.10865   0.12484   0.16180
 Alpha virt. eigenvalues --    0.17727   0.20796   0.22210   0.26645   0.27526
 Alpha virt. eigenvalues --    0.28398   0.29139   0.30746   0.31740   0.32146

 Mulliken charges:
               1
     1  C   -0.161800
     2  C   -0.212181
     3  C   -0.165267
     4  C    0.164198
     5  C   -0.164861
     6  C   -0.210174
     7  H    0.214821
     8  H    0.217948
     9  H    0.272716
    10  H    0.270891
    11  H    0.212289
    12  N    0.488447
    13  O   -0.464169
    14  O   -0.462515
    15  C   -0.170813
    16  C   -0.218159
    17  C   -0.170584
    18  C    0.158806
    19  C   -0.171127
    20  C   -0.218044
    21  H    0.226609
    22  H    0.225134
    23  H    0.277533
    24  H    0.268248
    25  H    0.222076
    26  N    0.491323
    27  O   -0.463913
    28  O   -0.457432
 Sum of Mulliken charges =  -0.00000

 Dipole moment (field-independent basis, Debye):
    X=             -7.9532    Y=              5.7446    Z=              0.3980  Tot=              9.8190
 Quadrupole moment (field-independent basis, Debye-Ang):
   XX=            -97.7423   YY=           -102.5323   ZZ=           -101.5684
   XY=             10.8485   XZ=              8.5218   YZ=             -1.5249

 Normal termination of Gaussian 16 at Wed May  5 20:53:32 2021.
