 Gaussian 16, Revision A.03,
 Gaussian 16:  EM64L-G16RevA.03 25-Dec-2016

 -------------
 #p 6-31g* mp2
 -------------

 ------------------------------------------------------
 Input file generated by CHIRIPA (05-May-2021 14:57:21)
 ------------------------------------------------------
 Symbolic Z-matrix:
 Charge =  0 Multiplicity = 1

                         Standard orientation:
 ---------------------------------------------------------------------
 Center     Atomic      Atomic             Coordinates (Angstroms)
 Number     Number       Type             X           Y           Z
 ---------------------------------------------------------------------
      1          6           0       -2.637623    2.524618   -0.621926
      2          6           0       -2.911318    1.492415   -1.525347
      3          6           0       -2.900631    0.159211   -1.104635
      4          6           0       -2.610970   -0.106948    0.232730
      5          6           0       -2.334197    0.899403    1.156821
      6          6           0       -2.350442    2.225345    0.713919
      7          1           0       -2.648083    3.557462   -0.957365
      8          1           0       -3.134674    1.721873   -2.563377
      9          1           0       -3.108914   -0.659349   -1.782865
     10          1           0       -2.114991    0.639468    2.185315
     11          1           0       -2.137508    3.024927    1.417747
     12          7           0       -2.596714   -1.514508    0.689865
     13          8           0       -2.338613   -1.722653    1.873376
     14          8           0       -2.843912   -2.382956   -0.143998
     15          6           0        1.763580   -2.416282   -0.785124
     16          6           0        3.047689   -2.268106   -0.250682
     17          6           0        3.528905   -1.003391    0.100707
     18          6           0        2.695470    0.096475   -0.096702
     19          6           0        1.411412   -0.018719   -0.627002
     20          6           0        0.950973   -1.293095   -0.971250
     21          1           0        1.397830   -3.402496   -1.055318
     22          1           0        3.680974   -3.138612   -0.105027
     23          1           0        4.518901   -0.860056    0.516377
     24          1           0        0.803333    0.867749   -0.760535
     25          1           0       -0.046715   -1.405171   -1.386104
     26          7           0        3.193914    1.440486    0.271518
     27          8           0        2.440060    2.393677    0.087754
     28          8           0        4.329010    1.515282    0.736921
 ---------------------------------------------------------------------

 SCF Done:  E(RHF) =  -868.339792444     A.U. after   16 cycles
 E2 =    -0.2601249596D+01 EUMP2 =    -0.87094104203997D+03

 The electronic state is 1-A.
 Alpha  occ. eigenvalues --  -20.61528 -20.61467 -20.60753 -20.60727 -15.86526
 Alpha  occ. eigenvalues --  -15.85791 -11.31800 -11.30954 -11.28376 -11.28246
 Alpha  occ. eigenvalues --  -11.27965 -11.27519 -11.27504 -11.27338 -11.27211
 Alpha  occ. eigenvalues --  -11.27147 -11.26452 -11.26409  -1.60566  -1.59821
 Alpha  occ. eigenvalues --   -1.40123  -1.39381  -1.19950  -1.19105  -1.09336
 Alpha  occ. eigenvalues --   -1.08519  -1.05307  -1.04487  -0.96188  -0.95391
 Alpha  occ. eigenvalues --   -0.86695  -0.85882  -0.83010  -0.82244  -0.78094
 Alpha  occ. eigenvalues --   -0.77334  -0.72739  -0.72018  -0.71900  -0.71141
 Alpha  occ. eigenvalues --   -0.70981  -0.70174  -0.65567  -0.65256  -0.64753
 Alpha  occ. eigenvalues --   -0.64471  -0.62636  -0.61852  -0.55743  -0.54950
 Alpha  occ. eigenvalues --   -0.53650  -0.53354  -0.52803  -0.52575  -0.49516
 Alpha  occ. eigenvalues --   -0.49488  -0.48780  -0.48751  -0.45534  -0.44834
 Alpha  occ. eigenvalues --   -0.37916  -0.37051  -0.36918  -0.36051
 Alpha virt. eigenvalues --    0.04384   0.05202   0.10613   0.11579   0.15942
 Alpha virt. eigenvalues --    0.16749   0.20944   0.21793   0.26608   0.27321
 Alpha virt. eigenvalues --    0.28051   0.28625   0.30298   0.31313   0.32205

 Mulliken charges:
               1
     1  C   -0.170822
     2  C   -0.219766
     3  C   -0.182855
     4  C    0.156713
     5  C   -0.171278
     6  C   -0.215895
     7  H    0.231651
     8  H    0.226100
     9  H    0.273617
    10  H    0.279055
    11  H    0.231541
    12  N    0.488872
    13  O   -0.454231
    14  O   -0.466480
    15  C   -0.167452
    16  C   -0.218677
    17  C   -0.170777
    18  C    0.157735
    19  C   -0.173905
    20  C   -0.225127
    21  H    0.231573
    22  H    0.223725
    23  H    0.274469
    24  H    0.273853
    25  H    0.226204
    26  N    0.488349
    27  O   -0.465759
    28  O   -0.460433
 Sum of Mulliken charges =  -0.00000

 Dipole moment (field-independent basis, Debye):
    X=             -1.9644    Y=              0.3087    Z=             -2.7460  Tot=              3.3904
 Quadrupole moment (field-independent basis, Debye-Ang):
   XX=           -110.9752   YY=           -105.7660   ZZ=           -101.2555
   XY=            -28.6674   XZ=              3.3146   YZ=              2.6127

 Normal termination of Gaussian 16 at Thu May  6 03:16:43 2021.
