 Gaussian 16, Revision A.03,
 Gaussian 16:  EM64L-G16RevA.03 25-Dec-2016

 -------------
 #p 6-31g* mp2
 -------------

 ------------------------------------------------------
 Input file generated by CHIRIPA (05-May-2021 14:57:26)
 ------------------------------------------------------
 Symbolic Z-matrix:
 Charge =  0 Multiplicity = 1

                         Standard orientation:
 ---------------------------------------------------------------------
 Center     Atomic      Atomic             Coordinates (Angstroms)
 Number     Number       Type             X           Y           Z
 ---------------------------------------------------------------------
      1          6           0        2.522060    2.639629   -0.393094
      2          6           0        3.439063    1.981354   -1.219109
      3          6           0        3.820059    0.663737   -0.948415
      4          6           0        3.261836    0.031699    0.161632
      5          6           0        2.345889    0.660742    1.003437
      6          6           0        1.979357    1.978388    0.713592
      7          1           0        2.231711    3.663197   -0.610815
      8          1           0        3.862154    2.492406   -2.079263
      9          1           0        4.527930    0.130463   -1.571276
     10          1           0        1.941200    0.125207    1.853642
     11          1           0        1.266986    2.487133    1.356827
     12          7           0        3.657523   -1.363219    0.458341
     13          8           0        3.151316   -1.898016    1.442406
     14          8           0        4.466378   -1.895344   -0.298781
     15          6           0       -5.389845    0.897088    0.348941
     16          6           0       -4.182773    1.560160    0.593555
     17          6           0       -2.961610    0.927904    0.341443
     18          6           0       -2.984588   -0.373616   -0.157363
     19          6           0       -4.170644   -1.060679   -0.411343
     20          6           0       -5.379946   -0.408912   -0.151845
     21          1           0       -6.333867    1.395818    0.547656
     22          1           0       -4.187424    2.574446    0.982459
     23          1           0       -2.012506    1.417912    0.521758
     24          1           0       -4.134002   -2.071459   -0.799157
     25          1           0       -6.315839   -0.926306   -0.342765
     26          7           0       -1.698077   -1.053284   -0.428173
     27          8           0       -1.745344   -2.200187   -0.867507
     28          8           0       -0.666801   -0.426234   -0.195970
 ---------------------------------------------------------------------

 SCF Done:  E(RHF) =  -868.337033821     A.U. after   16 cycles
 E2 =    -0.2600404711D+01 EUMP2 =    -0.87093743853216D+03

 The electronic state is 1-A.
 Alpha  occ. eigenvalues --  -20.60990 -20.60948 -20.59669 -20.59645 -15.86021
 Alpha  occ. eigenvalues --  -15.84719 -11.31469 -11.30070 -11.28100 -11.28003
 Alpha  occ. eigenvalues --  -11.27781 -11.27101 -11.27034 -11.26747 -11.26701
 Alpha  occ. eigenvalues --  -11.26591 -11.25805 -11.25787  -1.60038  -1.58724
 Alpha  occ. eigenvalues --   -1.39595  -1.38282  -1.19643  -1.18296  -1.09018
 Alpha  occ. eigenvalues --   -1.07720  -1.05062  -1.03736  -0.95845  -0.94547
 Alpha  occ. eigenvalues --   -0.86454  -0.85159  -0.82682  -0.81401  -0.77723
 Alpha  occ. eigenvalues --   -0.76413  -0.72253  -0.71361  -0.70960  -0.70751
 Alpha  occ. eigenvalues --   -0.70017  -0.69498  -0.65297  -0.65066  -0.63998
 Alpha  occ. eigenvalues --   -0.63820  -0.62418  -0.61115  -0.55547  -0.54334
 Alpha  occ. eigenvalues --   -0.53378  -0.53159  -0.52003  -0.51892  -0.49007
 Alpha  occ. eigenvalues --   -0.48979  -0.47717  -0.47694  -0.44984  -0.43693
 Alpha  occ. eigenvalues --   -0.37616  -0.36668  -0.36303  -0.35259
 Alpha virt. eigenvalues --    0.04815   0.06178   0.10987   0.12328   0.16309
 Alpha virt. eigenvalues --    0.17572   0.20836   0.22148   0.26316   0.27458
 Alpha virt. eigenvalues --    0.28720   0.29133   0.30570   0.31453   0.32810

 Mulliken charges:
               1
     1  C   -0.170676
     2  C   -0.219190
     3  C   -0.169617
     4  C    0.161128
     5  C   -0.148692
     6  C   -0.216417
     7  H    0.218686
     8  H    0.218788
     9  H    0.273161
    10  H    0.274576
    11  H    0.212429
    12  N    0.489671
    13  O   -0.459615
    14  O   -0.464340
    15  C   -0.170788
    16  C   -0.218079
    17  C   -0.170860
    18  C    0.159100
    19  C   -0.170274
    20  C   -0.218237
    21  H    0.226234
    22  H    0.221756
    23  H    0.268850
    24  H    0.277625
    25  H    0.224853
    26  N    0.491899
    27  O   -0.454935
    28  O   -0.467035
 Sum of Mulliken charges =  -0.00000

 Dipole moment (field-independent basis, Debye):
    X=             -6.1513    Y=              7.0075    Z=             -0.0933  Tot=              9.3248
 Quadrupole moment (field-independent basis, Debye-Ang):
   XX=            -85.0283   YY=           -104.4626   ZZ=           -103.0221
   XY=             12.6536   XZ=             -7.5215   YZ=              1.5356

 Normal termination of Gaussian 16 at Thu May  6 16:28:59 2021.
