 Gaussian 16, Revision A.03,
 Gaussian 16:  EM64L-G16RevA.03 25-Dec-2016

 -------------
 #p 6-31g* mp2
 -------------

 ------------------------------------------------------
 Input file generated by CHIRIPA (05-May-2021 14:57:24)
 ------------------------------------------------------
 Symbolic Z-matrix:
 Charge =  0 Multiplicity = 1

                         Standard orientation:
 ---------------------------------------------------------------------
 Center     Atomic      Atomic             Coordinates (Angstroms)
 Number     Number       Type             X           Y           Z
 ---------------------------------------------------------------------
      1          6           0       -1.926962    1.251385   -0.820967
      2          6           0       -1.915211   -0.106294   -0.484681
      3          6           0       -3.098560   -0.759621   -0.127754
      4          6           0       -4.281024   -0.021402   -0.117622
      5          6           0       -4.325166    1.332281   -0.447597
      6          6           0       -3.129782    1.965082   -0.801386
      7          1           0       -1.003033    1.750933   -1.097019
      8          1           0       -0.982559   -0.663071   -0.499021
      9          1           0       -3.118082   -1.809815    0.137066
     10          1           0       -5.270410    1.860849   -0.424164
     11          1           0       -3.141908    3.019566   -1.062081
     12          7           0       -5.540153   -0.702184    0.258581
     13          8           0       -6.568794   -0.029477    0.259792
     14          8           0       -5.474577   -1.895598    0.545114
     15          6           0        1.683008    0.135031    0.954514
     16          6           0        2.626251    1.107823    1.301632
     17          6           0        3.953564    0.992954    0.877846
     18          6           0        4.304608   -0.112631    0.104711
     19          6           0        3.387962   -1.098458   -0.257497
     20          6           0        2.066198   -0.963069    0.177427
     21          1           0        0.654075    0.232235    1.288047
     22          1           0        2.331503    1.961688    1.905025
     23          1           0        4.704201    1.731400    1.132132
     24          1           0        3.711736   -1.938405   -0.860057
     25          1           0        1.335802   -1.720087   -0.093662
     26          7           0        5.706837   -0.245101   -0.349828
     27          8           0        5.990817   -1.228603   -1.030061
     28          8           0        6.495374    0.637080   -0.017257
 ---------------------------------------------------------------------

 SCF Done:  E(RHF) =  -868.336599208     A.U. after   16 cycles
 E2 =    -0.2600913248D+01 EUMP2 =    -0.87093751245687D+03

 The electronic state is 1-A.
 Alpha  occ. eigenvalues --  -20.61421 -20.61413 -20.61393 -20.61388 -15.86481
 Alpha  occ. eigenvalues --  -15.86454 -11.32002 -11.31990 -11.28658 -11.28607
 Alpha  occ. eigenvalues --  -11.28575 -11.28561 -11.28388 -11.28372 -11.27739
 Alpha  occ. eigenvalues --  -11.27731 -11.27607 -11.27583  -1.60492  -1.60465
 Alpha  occ. eigenvalues --   -1.40041  -1.40014  -1.20218  -1.20188  -1.09617
 Alpha  occ. eigenvalues --   -1.09532  -1.05662  -1.05610  -0.96406  -0.96336
 Alpha  occ. eigenvalues --   -0.87125  -0.86950  -0.83212  -0.83190  -0.78276
 Alpha  occ. eigenvalues --   -0.78165  -0.72699  -0.72667  -0.71819  -0.71792
 Alpha  occ. eigenvalues --   -0.71414  -0.71207  -0.66028  -0.65859  -0.65800
 Alpha  occ. eigenvalues --   -0.65374  -0.63093  -0.62832  -0.56159  -0.56112
 Alpha  occ. eigenvalues --   -0.53998  -0.53931  -0.53804  -0.53598  -0.49470
 Alpha  occ. eigenvalues --   -0.49440  -0.49439  -0.49410  -0.45412  -0.45380
 Alpha  occ. eigenvalues --   -0.38299  -0.38110  -0.37252  -0.37225
 Alpha virt. eigenvalues --    0.04261   0.04382   0.10230   0.10301   0.15677
 Alpha virt. eigenvalues --    0.15802   0.18795   0.21834   0.24576   0.27078
 Alpha virt. eigenvalues --    0.27611   0.28662   0.29360   0.30811   0.31540

 Mulliken charges:
               1
     1  C   -0.175268
     2  C   -0.227327
     3  C   -0.171447
     4  C    0.159055
     5  C   -0.169177
     6  C   -0.218391
     7  H    0.229560
     8  H    0.220646
     9  H    0.276801
    10  H    0.278540
    11  H    0.226523
    12  N    0.488065
    13  O   -0.457968
    14  O   -0.459138
    15  C   -0.178926
    16  C   -0.220036
    17  C   -0.169684
    18  C    0.158925
    19  C   -0.169248
    20  C   -0.224369
    21  H    0.229121
    22  H    0.225974
    23  H    0.278224
    24  H    0.278428
    25  H    0.219740
    26  N    0.487953
    27  O   -0.458314
    28  O   -0.458261
 Sum of Mulliken charges =  -0.00000

 Dipole moment (field-independent basis, Debye):
    X=             -0.4993    Y=              2.9782    Z=              0.2628  Tot=              3.0312
 Quadrupole moment (field-independent basis, Debye-Ang):
   XX=           -182.7787   YY=            -97.8002   ZZ=           -104.3927
   XY=             -9.3473   XZ=             12.7315   YZ=              1.2547

 Normal termination of Gaussian 16 at Thu May  6 16:18:13 2021.
