 Gaussian 16, Revision A.03,
 Gaussian 16:  EM64L-G16RevA.03 25-Dec-2016

 -------------
 #p 6-31g* mp2
 -------------

 ------------------------------------------------------
 Input file generated by CHIRIPA (05-May-2021 14:53:13)
 ------------------------------------------------------
 Symbolic Z-matrix:
 Charge =  0 Multiplicity = 1

                         Standard orientation:
 ---------------------------------------------------------------------
 Center     Atomic      Atomic             Coordinates (Angstroms)
 Number     Number       Type             X           Y           Z
 ---------------------------------------------------------------------
      1          6           0       -4.157465   -0.252342   -0.445933
      2          6           0       -4.431556   -1.582740    0.256136
      3          6           0       -5.364080   -2.492428   -0.544278
      4          1           0       -5.110673    0.263675   -0.625001
      5          1           0       -3.718941   -0.450543   -1.433763
      6          1           0       -4.868154   -1.382053    1.242910
      7          1           0       -3.477569   -2.095562    0.433725
      8          1           0       -4.931473   -2.721815   -1.523479
      9          1           0       -6.329958   -2.004252   -0.709696
     10          1           0       -5.546501   -3.437924   -0.024066
     11          6           0       -3.226818    0.667948    0.341907
     12          6           0       -2.952726    1.998346   -0.360161
     13          6           0       -2.020203    2.908034    0.440252
     14          1           0       -3.665342    0.866149    1.329737
     15          1           0       -2.273610    0.151931    0.520976
     16          1           0       -3.906713    2.511168   -0.537751
     17          1           0       -2.516129    1.797659   -1.346935
     18          1           0       -1.054324    2.419858    0.605671
     19          1           0       -2.452810    3.137421    1.419453
     20          1           0       -1.837782    3.853530   -0.079959
     21          6           0        2.354731    2.299564   -0.115201
     22          6           0        1.768182    1.519376    0.886693
     23          6           0        2.054443    0.154306    0.982538
     24          6           0        2.935700   -0.400354    0.055700
     25          6           0        3.536026    0.350547   -0.953777
     26          6           0        3.235228    1.713692   -1.030625
     27          1           0        2.126711    3.359235   -0.182277
     28          1           0        1.084007    1.971684    1.598989
     29          1           0        1.614416   -0.472999    1.748229
     30          1           0        4.214151   -0.128655   -1.649427
     31          1           0        3.692223    2.317152   -1.809749
     32          7           0        3.246446   -1.844474    0.147112
     33          8           0        4.026123   -2.309221   -0.681593
     34          8           0        2.704449   -2.484282    1.045734
 ---------------------------------------------------------------------

 SCF Done:  E(RHF) =  -669.535429500     A.U. after   15 cycles
 E2 =    -0.2091552684D+01 EUMP2 =    -0.67162698218411D+03

 The electronic state is 1-A.
 Alpha  occ. eigenvalues --  -20.60803 -20.60798 -15.85858 -11.31235 -11.27810
 Alpha  occ. eigenvalues --  -11.27806 -11.27542 -11.26813 -11.26791 -11.22108
 Alpha  occ. eigenvalues --  -11.21823 -11.21761 -11.21705 -11.21587 -11.21110
 Alpha  occ. eigenvalues --   -1.59879  -1.39432  -1.19412  -1.08803  -1.08743
 Alpha  occ. eigenvalues --   -1.04818  -1.03867  -0.96343  -0.95631  -0.87373
 Alpha  occ. eigenvalues --   -0.86208  -0.82464  -0.79949  -0.78534  -0.77512
 Alpha  occ. eigenvalues --   -0.72075  -0.71203  -0.70504  -0.65394  -0.65060
 Alpha  occ. eigenvalues --   -0.64825  -0.62197  -0.61238  -0.59724  -0.57936
 Alpha  occ. eigenvalues --   -0.55659  -0.55292  -0.53182  -0.53047  -0.52985
 Alpha  occ. eigenvalues --   -0.52643  -0.50267  -0.48836  -0.48829  -0.48251
 Alpha  occ. eigenvalues --   -0.46959  -0.46084  -0.45979  -0.44835  -0.44114
 Alpha  occ. eigenvalues --   -0.37372  -0.36403
 Alpha virt. eigenvalues --    0.05021   0.11085   0.16469   0.20783   0.22712
 Alpha virt. eigenvalues --    0.24105   0.25863   0.26613   0.27224   0.28210
 Alpha virt. eigenvalues --    0.28822   0.30392   0.31260   0.31677   0.31877

 Mulliken charges:
               1
     1  C   -0.298645
     2  C   -0.300574
     3  C   -0.475983
     4  H    0.149767
     5  H    0.150902
     6  H    0.151540
     7  H    0.154720
     8  H    0.156227
     9  H    0.154569
    10  H    0.161876
    11  C   -0.298879
    12  C   -0.298299
    13  C   -0.482415
    14  H    0.149310
    15  H    0.149119
    16  H    0.153812
    17  H    0.153777
    18  H    0.151333
    19  H    0.156001
    20  H    0.158807
    21  C   -0.170760
    22  C   -0.218803
    23  C   -0.172911
    24  C    0.158386
    25  C   -0.170571
    26  C   -0.218730
    27  H    0.226977
    28  H    0.226483
    29  H    0.276014
    30  H    0.275816
    31  H    0.223703
    32  N    0.488082
    33  O   -0.460303
    34  O   -0.460348
 Sum of Mulliken charges =  -0.00000

 Dipole moment (field-independent basis, Debye):
    X=             -1.1326    Y=              5.0316    Z=             -0.3679  Tot=              5.1706
 Quadrupole moment (field-independent basis, Debye-Ang):
   XX=            -99.3095   YY=            -99.9511   ZZ=            -91.9735
   XY=             15.1725   XZ=             -4.4457   YZ=             -0.2010

 Normal termination of Gaussian 16 at Thu May  6 17:04:18 2021.
