 Gaussian 16, Revision A.03,
 Gaussian 16:  EM64L-G16RevA.03 25-Dec-2016

 -------------
 #p 6-31g* mp2
 -------------

 ------------------------------------------------------
 Input file generated by CHIRIPA (05-May-2021 14:51:09)
 ------------------------------------------------------
 Symbolic Z-matrix:
 Charge =  0 Multiplicity = 1

                         Standard orientation:
 ---------------------------------------------------------------------
 Center     Atomic      Atomic             Coordinates (Angstroms)
 Number     Number       Type             X           Y           Z
 ---------------------------------------------------------------------
      1          6           0        3.056482    0.194877   -0.678915
      2          6           0        3.299436   -1.251768   -0.247433
      3          6           0        3.859137   -2.119035   -1.375429
      4          1           0        2.362212    0.205201   -1.530283
      5          1           0        4.000481    0.625882   -1.040157
      6          1           0        2.355554   -1.679479    0.114182
      7          1           0        3.993059   -1.258637    0.603129
      8          1           0        4.813834   -1.718732   -1.731676
      9          1           0        3.167025   -2.141965   -2.223401
     10          1           0        4.025266   -3.149170   -1.045152
     11          6           0        2.496990    1.074337    0.437887
     12          6           0        2.254036    2.520982    0.006404
     13          6           0        1.694335    3.388250    1.134401
     14          1           0        1.552991    0.643332    0.799129
     15          1           0        3.191260    1.064014    1.289255
     16          1           0        1.560413    2.527851   -0.844158
     17          1           0        3.197918    2.948694   -0.355211
     18          1           0        2.386447    3.411180    1.982372
     19          1           0        0.739638    2.987946    1.490647
     20          1           0        1.528206    4.418385    0.804123
     21          6           0       -2.064387   -0.816454    0.327692
     22          6           0       -1.941582   -2.228312    0.901767
     23          6           0       -0.510521   -2.577397    1.311642
     24          1           0       -1.399081   -0.721733   -0.541411
     25          1           0       -1.708781   -0.092519    1.073922
     26          1           0       -2.298608   -2.949270    0.155195
     27          1           0       -2.607402   -2.319744    1.769488
     28          1           0       -0.147488   -1.880935    2.074366
     29          1           0        0.163060   -2.514038    0.450901
     30          1           0       -0.445613   -3.591019    1.719342
     31          6           0       -3.489085   -0.452760   -0.086664
     32          6           0       -3.611890    0.959098   -0.660738
     33          6           0       -5.042951    1.308183   -1.070614
     34          1           0       -3.844691   -1.176695   -0.832893
     35          1           0       -4.154391   -0.547481    0.782439
     36          1           0       -2.946070    1.050529   -1.528459
     37          1           0       -3.254864    1.680056    0.085834
     38          1           0       -5.716532    1.244824   -0.209873
     39          1           0       -5.405984    0.611721   -1.833339
     40          1           0       -5.107859    2.321805   -1.478313
 ---------------------------------------------------------------------

 SCF Done:  E(RHF) =  -470.733329627     A.U. after   11 cycles
 E2 =    -0.1583263100D+01 EUMP2 =    -0.47231659272674D+03

 The electronic state is 1-A.
 Alpha  occ. eigenvalues --  -11.21679 -11.21656 -11.21556 -11.21498 -11.21491
 Alpha  occ. eigenvalues --  -11.21424 -11.21345 -11.21284 -11.21146 -11.21110
 Alpha  occ. eigenvalues --  -11.21045 -11.21032  -1.08507  -1.08371  -1.03600
 Alpha  occ. eigenvalues --   -1.03477  -0.96051  -0.95932  -0.87073  -0.86944
 Alpha  occ. eigenvalues --   -0.79690  -0.79519  -0.78345  -0.78156  -0.65148
 Alpha  occ. eigenvalues --   -0.65000  -0.61060  -0.60831  -0.59416  -0.59302
 Alpha  occ. eigenvalues --   -0.57663  -0.57538  -0.55368  -0.55196  -0.52738
 Alpha  occ. eigenvalues --   -0.52642  -0.52496  -0.52341  -0.50053  -0.49829
 Alpha  occ. eigenvalues --   -0.48097  -0.47798  -0.46782  -0.46459  -0.46039
 Alpha  occ. eigenvalues --   -0.45773  -0.45704  -0.45392  -0.43855  -0.43730
 Alpha virt. eigenvalues --    0.20568   0.23046   0.23763   0.24236   0.25861
 Alpha virt. eigenvalues --    0.26415   0.27041   0.27816   0.27937   0.30020
 Alpha virt. eigenvalues --    0.30170   0.31622   0.31732   0.31870   0.31961

 Mulliken charges:
               1
     1  C   -0.297459
     2  C   -0.308478
     3  C   -0.475306
     4  H    0.148643
     5  H    0.149265
     6  H    0.160889
     7  H    0.151799
     8  H    0.155115
     9  H    0.154186
    10  H    0.160177
    11  C   -0.300672
    12  C   -0.299410
    13  C   -0.475573
    14  H    0.152299
    15  H    0.149273
    16  H    0.152033
    17  H    0.151702
    18  H    0.154995
    19  H    0.154779
    20  H    0.160118
    21  C   -0.299127
    22  C   -0.299663
    23  C   -0.481476
    24  H    0.149307
    25  H    0.149639
    26  H    0.152243
    27  H    0.152386
    28  H    0.156427
    29  H    0.159879
    30  H    0.161090
    31  C   -0.298372
    32  C   -0.299702
    33  C   -0.475762
    34  H    0.149824
    35  H    0.150018
    36  H    0.151800
    37  H    0.152002
    38  H    0.155337
    39  H    0.155271
    40  H    0.160503
 Sum of Mulliken charges =  -0.00000

 Dipole moment (field-independent basis, Debye):
    X=             -0.0509    Y=             -0.0288    Z=              0.0216  Tot=              0.0624
 Quadrupole moment (field-independent basis, Debye-Ang):
   XX=            -85.0066   YY=            -85.2996   ZZ=            -84.4510
   XY=              0.8795   XZ=              0.1024   YZ=             -0.0396

 Normal termination of Gaussian 16 at Wed May  5 23:00:15 2021.
