 Gaussian 16, Revision A.03,
 Gaussian 16:  EM64L-G16RevA.03 25-Dec-2016

 -------------
 #p 6-31g* mp2
 -------------

 ------------------------------------------------------
 Input file generated by CHIRIPA (05-May-2021 14:51:09)
 ------------------------------------------------------
 Symbolic Z-matrix:
 Charge =  0 Multiplicity = 1

                         Standard orientation:
 ---------------------------------------------------------------------
 Center     Atomic      Atomic             Coordinates (Angstroms)
 Number     Number       Type             X           Y           Z
 ---------------------------------------------------------------------
      1          6           0        3.661688   -0.499973   -0.483986
      2          6           0        4.651824   -1.371503    0.289351
      3          6           0        4.773160   -2.782403   -0.287218
      4          1           0        2.675914   -0.984932   -0.480837
      5          1           0        3.978039   -0.441760   -1.534666
      6          1           0        4.334464   -1.426923    1.338554
      7          1           0        5.635310   -0.884319    0.284523
      8          1           0        5.112243   -2.745590   -1.327539
      9          1           0        3.804006   -3.291277   -0.267520
     10          1           0        5.486064   -3.388256    0.280736
     11          6           0        3.529433    0.913430    0.080395
     12          6           0        2.539296    1.784960   -0.692942
     13          6           0        2.417960    3.195861   -0.116373
     14          1           0        3.213081    0.855217    1.131075
     15          1           0        4.515207    1.398389    0.077246
     16          1           0        1.555810    1.297777   -0.688115
     17          1           0        2.856656    1.840380   -1.742145
     18          1           0        3.387115    3.704734   -0.136071
     19          1           0        2.078877    3.159048    0.923948
     20          1           0        1.705057    3.801713   -0.684327
     21          6           0       -4.123598   -0.366226   -0.326569
     22          6           0       -5.556877   -0.189524    0.175898
     23          6           0       -6.601887   -0.512344   -0.892529
     24          1           0       -3.966520    0.278849   -1.201868
     25          1           0       -3.988527   -1.400473   -0.672231
     26          1           0       -5.688801    0.843708    0.521794
     27          1           0       -5.710504   -0.834951    1.050219
     28          1           0       -6.498975   -1.548259   -1.231486
     29          1           0       -6.477149    0.139938   -1.762914
     30          1           0       -7.619421   -0.379399   -0.511989
     31          6           0       -3.067522   -0.047232    0.730159
     32          6           0       -1.634242   -0.223933    0.227693
     33          6           0       -0.589234    0.098888    1.296121
     34          1           0       -3.202595    0.987016    1.075822
     35          1           0       -3.224600   -0.692306    1.605459
     36          1           0       -1.480617    0.421494   -0.646629
     37          1           0       -1.502320   -1.257164   -0.118203
     38          1           0       -0.713972   -0.553395    2.166505
     39          1           0       -0.692146    1.134801    1.635077
     40          1           0        0.428300   -0.034059    0.915580
 ---------------------------------------------------------------------

 SCF Done:  E(RHF) =  -470.733049091     A.U. after   11 cycles
 E2 =    -0.1583273965D+01 EUMP2 =    -0.47231632305610D+03

 The electronic state is 1-A.
 Alpha  occ. eigenvalues --  -11.21668 -11.21622 -11.21598 -11.21540 -11.21442
 Alpha  occ. eigenvalues --  -11.21403 -11.21380 -11.21338 -11.21125 -11.21086
 Alpha  occ. eigenvalues --  -11.21067 -11.21040  -1.08477  -1.08416  -1.03591
 Alpha  occ. eigenvalues --   -1.03495  -0.96026  -0.95965  -0.87056  -0.86969
 Alpha  occ. eigenvalues --   -0.79639  -0.79573  -0.78282  -0.78234  -0.65153
 Alpha  occ. eigenvalues --   -0.65057  -0.61087  -0.60853  -0.59402  -0.59281
 Alpha  occ. eigenvalues --   -0.57628  -0.57573  -0.55361  -0.55197  -0.52755
 Alpha  occ. eigenvalues --   -0.52634  -0.52450  -0.52386  -0.49960  -0.49897
 Alpha  occ. eigenvalues --   -0.47976  -0.47873  -0.46670  -0.46595  -0.45823
 Alpha  occ. eigenvalues --   -0.45769  -0.45745  -0.45676  -0.43805  -0.43764
 Alpha virt. eigenvalues --    0.20270   0.23002   0.23801   0.24940   0.26203
 Alpha virt. eigenvalues --    0.26506   0.26824   0.27556   0.27788   0.29120
 Alpha virt. eigenvalues --    0.30712   0.31113   0.31761   0.31912   0.32142

 Mulliken charges:
               1
     1  C   -0.300684
     2  C   -0.299536
     3  C   -0.475736
     4  H    0.150452
     5  H    0.149862
     6  H    0.152195
     7  H    0.152035
     8  H    0.155164
     9  H    0.155177
    10  H    0.160273
    11  C   -0.299778
    12  C   -0.304643
    13  C   -0.475736
    14  H    0.150568
    15  H    0.150151
    16  H    0.157645
    17  H    0.151661
    18  H    0.155009
    19  H    0.155788
    20  H    0.159659
    21  C   -0.298339
    22  C   -0.299704
    23  C   -0.475736
    24  H    0.149801
    25  H    0.149593
    26  H    0.152010
    27  H    0.151969
    28  H    0.155220
    29  H    0.155247
    30  H    0.160333
    31  C   -0.298330
    32  C   -0.301210
    33  C   -0.483005
    34  H    0.149808
    35  H    0.149857
    36  H    0.153021
    37  H    0.152001
    38  H    0.155458
    39  H    0.155847
    40  H    0.166633
 Sum of Mulliken charges =  -0.00000

 Dipole moment (field-independent basis, Debye):
    X=             -0.0179    Y=             -0.0038    Z=              0.0050  Tot=              0.0189
 Quadrupole moment (field-independent basis, Debye-Ang):
   XX=            -84.9759   YY=            -84.9087   ZZ=            -84.8673
   XY=              0.2656   XZ=             -0.9642   YZ=             -0.9328

 Normal termination of Gaussian 16 at Wed May  5 18:10:14 2021.
