 Gaussian 16, Revision A.03,
 Gaussian 16:  EM64L-G16RevA.03 25-Dec-2016

 -------------
 #p 6-31g* mp2
 -------------

 ------------------------------------------------------
 Input file generated by CHIRIPA (05-May-2021 14:53:14)
 ------------------------------------------------------
 Symbolic Z-matrix:
 Charge =  0 Multiplicity = 1

                         Standard orientation:
 ---------------------------------------------------------------------
 Center     Atomic      Atomic             Coordinates (Angstroms)
 Number     Number       Type             X           Y           Z
 ---------------------------------------------------------------------
      1          6           0       -2.604429    0.666065   -0.580710
      2          6           0       -3.234365    2.055284   -0.686704
      3          6           0       -2.420692    3.008030   -1.563063
      4          1           0       -1.587790    0.761386   -0.175367
      5          1           0       -2.500522    0.240370   -1.588372
      6          1           0       -3.338325    2.477663    0.320969
      7          1           0       -4.249694    1.956627   -1.091663
      8          1           0       -2.327866    2.612033   -2.579513
      9          1           0       -1.411319    3.136030   -1.158855
     10          1           0       -2.889042    3.995283   -1.625043
     11          6           0       -3.406301   -0.297736    0.292112
     12          6           0       -2.776364   -1.686955    0.398105
     13          6           0       -3.590038   -2.639701    1.274464
     14          1           0       -3.510208    0.127959    1.299773
     15          1           0       -4.422940   -0.393057   -0.113232
     16          1           0       -1.761036   -1.588298    0.803064
     17          1           0       -2.672405   -2.109334   -0.609568
     18          1           0       -4.599411   -2.767701    0.870256
     19          1           0       -3.682864   -2.243704    2.290914
     20          1           0       -3.121688   -3.626953    1.336444
     21          6           0        2.324704   -1.956978   -1.641704
     22          6           0        3.381333   -1.041624   -1.594981
     23          6           0        3.404615   -0.032927   -0.627234
     24          6           0        2.350188    0.031405    0.282346
     25          6           0        1.283438   -0.865758    0.261540
     26          6           0        1.280969   -1.866284   -0.714929
     27          1           0        2.314702   -2.737385   -2.396861
     28          1           0        4.193255   -1.109651   -2.313452
     29          1           0        4.210264    0.688793   -0.568346
     30          1           0        0.488233   -0.772578    0.991186
     31          1           0        0.459082   -2.575789   -0.748833
     32          7           0        2.363819    1.094943    1.311474
     33          8           0        1.422914    1.130203    2.101469
     34          8           0        3.315149    1.873145    1.308622
 ---------------------------------------------------------------------

 SCF Done:  E(RHF) =  -669.535468233     A.U. after   15 cycles
 E2 =    -0.2092597084D+01 EUMP2 =    -0.67162806531695D+03

 The electronic state is 1-A.
 Alpha  occ. eigenvalues --  -20.60801 -20.60794 -15.85847 -11.31174 -11.27736
 Alpha  occ. eigenvalues --  -11.27715 -11.27467 -11.26752 -11.26711 -11.22309
 Alpha  occ. eigenvalues --  -11.21684 -11.21582 -11.21560 -11.21503 -11.20959
 Alpha  occ. eigenvalues --   -1.59872  -1.39427  -1.19341  -1.08743  -1.08702
 Alpha  occ. eigenvalues --   -1.04737  -1.03785  -0.96195  -0.95587  -0.87220
 Alpha  occ. eigenvalues --   -0.86138  -0.82423  -0.79918  -0.78508  -0.77449
 Alpha  occ. eigenvalues --   -0.72066  -0.71193  -0.70466  -0.65370  -0.64989
 Alpha  occ. eigenvalues --   -0.64711  -0.62118  -0.61154  -0.59599  -0.57819
 Alpha  occ. eigenvalues --   -0.55457  -0.55247  -0.53079  -0.52917  -0.52832
 Alpha  occ. eigenvalues --   -0.52611  -0.50142  -0.48827  -0.48820  -0.48199
 Alpha  occ. eigenvalues --   -0.46945  -0.46019  -0.45900  -0.44832  -0.44026
 Alpha  occ. eigenvalues --   -0.37320  -0.36314
 Alpha virt. eigenvalues --    0.05031   0.11242   0.16540   0.19870   0.22934
 Alpha virt. eigenvalues --    0.23994   0.25033   0.26079   0.27518   0.28239
 Alpha virt. eigenvalues --    0.29558   0.30327   0.31314   0.31628   0.32408

 Mulliken charges:
               1
     1  C   -0.301878
     2  C   -0.299906
     3  C   -0.476569
     4  H    0.153579
     5  H    0.146534
     6  H    0.156556
     7  H    0.150692
     8  H    0.152571
     9  H    0.159672
    10  H    0.161279
    11  C   -0.298432
    12  C   -0.304813
    13  C   -0.475267
    14  H    0.155373
    15  H    0.151056
    16  H    0.144610
    17  H    0.148722
    18  H    0.157867
    19  H    0.160114
    20  H    0.157977
    21  C   -0.171025
    22  C   -0.218398
    23  C   -0.170857
    24  C    0.159978
    25  C   -0.177257
    26  C   -0.220406
    27  H    0.225526
    28  H    0.223390
    29  H    0.275429
    30  H    0.280678
    31  H    0.226561
    32  N    0.488426
    33  O   -0.461797
    34  O   -0.459988
 Sum of Mulliken charges =  -0.00000

 Dipole moment (field-independent basis, Debye):
    X=             -0.1451    Y=             -3.6612    Z=             -3.5874  Tot=              5.1278
 Quadrupole moment (field-independent basis, Debye-Ang):
   XX=            -90.8717   YY=            -95.5040   ZZ=            -96.5046
   XY=             -7.5122   XZ=            -10.0866   YZ=             -1.0316

 Normal termination of Gaussian 16 at Wed May  5 17:06:52 2021.
