 Gaussian 16, Revision A.03,
 Gaussian 16:  EM64L-G16RevA.03 25-Dec-2016

 -------------
 #p 6-31g* mp2
 -------------

 ------------------------------------------------------
 Input file generated by CHIRIPA (05-May-2021 14:51:14)
 ------------------------------------------------------
 Symbolic Z-matrix:
 Charge =  0 Multiplicity = 1

                         Standard orientation:
 ---------------------------------------------------------------------
 Center     Atomic      Atomic             Coordinates (Angstroms)
 Number     Number       Type             X           Y           Z
 ---------------------------------------------------------------------
      1          6           0       -4.381918   -0.483361    0.283324
      2          6           0       -5.346474   -0.324578   -0.892434
      3          6           0       -6.543927   -1.271443   -0.806731
      4          1           0       -4.027507   -1.522558    0.320835
      5          1           0       -4.925594   -0.304482    1.221308
      6          1           0       -4.800822   -0.502345   -1.827997
      7          1           0       -5.698482    0.714408   -0.927265
      8          1           0       -7.113234   -1.090501    0.110739
      9          1           0       -6.210474   -2.314168   -0.795111
     10          1           0       -7.220492   -1.141074   -1.657098
     11          6           0       -3.179710    0.456487    0.211839
     12          6           0       -2.215154    0.297704    1.387596
     13          6           0       -1.017701    1.244569    1.301893
     14          1           0       -2.636034    0.277608   -0.726145
     15          1           0       -3.534121    1.495684    0.174328
     16          1           0       -1.863146   -0.741283    1.422428
     17          1           0       -2.760806    0.475471    2.323160
     18          1           0       -1.351155    2.287294    1.290273
     19          1           0       -0.448394    1.063627    0.384423
     20          1           0       -0.341136    1.114200    2.152260
     21          6           0        3.884529    0.767930   -0.306020
     22          6           0        2.583856    1.544495   -0.513823
     23          6           0        2.807718    3.052619   -0.628898
     24          1           0        4.383157    1.136302    0.600962
     25          1           0        4.565209    0.975686   -1.143223
     26          1           0        1.905297    1.334253    0.322821
     27          1           0        2.088172    1.174100   -1.420311
     28          1           0        3.464371    3.281184   -1.474572
     29          1           0        3.280460    3.442247    0.278465
     30          1           0        1.864862    3.588289   -0.777029
     31          6           0        3.677099   -0.741057   -0.189142
     32          6           0        4.977772   -1.517621    0.018660
     33          6           0        4.753911   -3.025745    0.133736
     34          1           0        2.996420   -0.948811    0.648060
     35          1           0        3.178471   -1.109429   -1.096125
     36          1           0        5.473456   -1.147226    0.925148
     37          1           0        5.656330   -1.307378   -0.817983
     38          1           0        4.281169   -3.415372   -0.773627
     39          1           0        4.097256   -3.254310    0.979409
     40          1           0        5.696766   -3.561414    0.281866
 ---------------------------------------------------------------------

 SCF Done:  E(RHF) =  -470.732986538     A.U. after   11 cycles
 E2 =    -0.1582641939D+01 EUMP2 =    -0.47231562847639D+03

 The electronic state is 1-A.
 Alpha  occ. eigenvalues --  -11.21602 -11.21598 -11.21590 -11.21495 -11.21406
 Alpha  occ. eigenvalues --  -11.21376 -11.21346 -11.21310 -11.21072 -11.21067
 Alpha  occ. eigenvalues --  -11.21044 -11.21009  -1.08433  -1.08393  -1.03547
 Alpha  occ. eigenvalues --   -1.03477  -0.95996  -0.95932  -0.87022  -0.86944
 Alpha  occ. eigenvalues --   -0.79689  -0.79480  -0.78272  -0.78179  -0.65086
 Alpha  occ. eigenvalues --   -0.65006  -0.61009  -0.60827  -0.59358  -0.59312
 Alpha  occ. eigenvalues --   -0.57645  -0.57508  -0.55305  -0.55202  -0.52704
 Alpha  occ. eigenvalues --   -0.52628  -0.52409  -0.52363  -0.50023  -0.49829
 Alpha  occ. eigenvalues --   -0.48020  -0.47771  -0.46749  -0.46472  -0.45851
 Alpha  occ. eigenvalues --   -0.45746  -0.45710  -0.45498  -0.43782  -0.43735
 Alpha virt. eigenvalues --    0.22303   0.23021   0.23711   0.24675   0.26280
 Alpha virt. eigenvalues --    0.26513   0.26931   0.27529   0.27996   0.29027
 Alpha virt. eigenvalues --    0.30732   0.31005   0.31529   0.31818   0.32362

 Mulliken charges:
               1
     1  C   -0.298312
     2  C   -0.299649
     3  C   -0.475708
     4  H    0.149699
     5  H    0.149527
     6  H    0.151919
     7  H    0.151928
     8  H    0.155181
     9  H    0.155197
    10  H    0.160250
    11  C   -0.298583
    12  C   -0.299614
    13  C   -0.480543
    14  H    0.149782
    15  H    0.149592
    16  H    0.151948
    17  H    0.151704
    18  H    0.155075
    19  H    0.161986
    20  H    0.158954
    21  C   -0.297641
    22  C   -0.306969
    23  C   -0.475518
    24  H    0.149413
    25  H    0.149134
    26  H    0.161689
    27  H    0.150087
    28  H    0.154694
    29  H    0.154938
    30  H    0.160618
    31  C   -0.298363
    32  C   -0.299566
    33  C   -0.475681
    34  H    0.149405
    35  H    0.149177
    36  H    0.151947
    37  H    0.151950
    38  H    0.155028
    39  H    0.155091
    40  H    0.160235
 Sum of Mulliken charges =  -0.00000

 Dipole moment (field-independent basis, Debye):
    X=             -0.0183    Y=              0.0062    Z=              0.0084  Tot=              0.0210
 Quadrupole moment (field-independent basis, Debye-Ang):
   XX=            -85.5020   YY=            -85.9250   ZZ=            -83.5375
   XY=             -0.9672   XZ=             -0.3873   YZ=              0.5619

 Normal termination of Gaussian 16 at Wed May  5 21:38:16 2021.
