 Gaussian 16, Revision A.03,
 Gaussian 16:  EM64L-G16RevA.03 25-Dec-2016

 -------------
 #p 6-31g* mp2
 -------------

 ------------------------------------------------------
 Input file generated by CHIRIPA (05-May-2021 14:53:18)
 ------------------------------------------------------
 Symbolic Z-matrix:
 Charge =  0 Multiplicity = 1

                         Standard orientation:
 ---------------------------------------------------------------------
 Center     Atomic      Atomic             Coordinates (Angstroms)
 Number     Number       Type             X           Y           Z
 ---------------------------------------------------------------------
      1          6           0       -4.116271   -0.321328    0.193882
      2          6           0       -3.464999   -1.604733   -0.322549
      3          6           0       -4.137706   -2.867422    0.216781
      4          1           0       -4.081809   -0.316394    1.291941
      5          1           0       -5.178974   -0.319610   -0.085499
      6          1           0       -2.403522   -1.603385   -0.043476
      7          1           0       -3.500843   -1.606523   -1.419512
      8          1           0       -5.192912   -2.895774   -0.073626
      9          1           0       -4.089356   -2.892618    1.310229
     10          1           0       -3.656291   -3.773126   -0.165057
     11          6           0       -3.454847    0.949488   -0.336469
     12          6           0       -4.106119    2.232894    0.179962
     13          6           0       -3.433412    3.495582   -0.359369
     14          1           0       -2.392144    0.947770   -0.057088
     15          1           0       -3.489309    0.944554   -1.434528
     16          1           0       -4.070274    2.234684    1.276925
     17          1           0       -5.167595    2.231546   -0.099112
     18          1           0       -3.481761    3.520779   -1.452817
     19          1           0       -2.378205    3.523934   -0.068962
     20          1           0       -3.914826    4.401286    0.022470
     21          6           0        0.826525   -1.588563    0.200104
     22          6           0        1.271736   -0.860813    1.308567
     23          6           0        2.451013   -0.113054    1.239934
     24          6           0        3.163480   -0.115521    0.041738
     25          6           0        2.745897   -0.830286   -1.079880
     26          6           0        1.563727   -1.571007   -0.988485
     27          1           0       -0.090689   -2.166706    0.262261
     28          1           0        0.701252   -0.872601    2.232934
     29          1           0        2.818616    0.459443    2.082866
     30          1           0        3.336049   -0.799086   -1.987715
     31          1           0        1.220374   -2.135234   -1.850925
     32          7           0        4.413459    0.672373   -0.042969
     33          8           0        5.023020    0.653779   -1.110081
     34          8           0        4.759963    1.293600    0.959353
 ---------------------------------------------------------------------

 SCF Done:  E(RHF) =  -669.535534772     A.U. after   15 cycles
 E2 =    -0.2091266246D+01 EUMP2 =    -0.67162680101831D+03

 The electronic state is 1-A.
 Alpha  occ. eigenvalues --  -20.60772 -20.60767 -15.85826 -11.31202 -11.27771
 Alpha  occ. eigenvalues --  -11.27762 -11.27494 -11.26796 -11.26775 -11.22621
 Alpha  occ. eigenvalues --  -11.22146 -11.22072 -11.21990 -11.21961 -11.21410
 Alpha  occ. eigenvalues --   -1.59848  -1.39401  -1.19374  -1.09139  -1.08766
 Alpha  occ. eigenvalues --   -1.04777  -1.04223  -0.96641  -0.95601  -0.87656
 Alpha  occ. eigenvalues --   -0.86173  -0.82435  -0.80317  -0.78921  -0.77477
 Alpha  occ. eigenvalues --   -0.72044  -0.71171  -0.70500  -0.65777  -0.65025
 Alpha  occ. eigenvalues --   -0.64778  -0.62123  -0.61629  -0.60044  -0.58255
 Alpha  occ. eigenvalues --   -0.55929  -0.55286  -0.53346  -0.53104  -0.53053
 Alpha  occ. eigenvalues --   -0.52868  -0.50580  -0.48809  -0.48798  -0.48601
 Alpha  occ. eigenvalues --   -0.47355  -0.46455  -0.46368  -0.44804  -0.44464
 Alpha  occ. eigenvalues --   -0.37340  -0.36381
 Alpha virt. eigenvalues --    0.05024   0.11263   0.16402   0.19979   0.22598
 Alpha virt. eigenvalues --    0.23691   0.25549   0.26425   0.27139   0.27474
 Alpha virt. eigenvalues --    0.28843   0.30428   0.30958   0.31218   0.32165

 Mulliken charges:
               1
     1  C   -0.297989
     2  C   -0.303921
     3  C   -0.476282
     4  H    0.149168
     5  H    0.152780
     6  H    0.142562
     7  H    0.154685
     8  H    0.160086
     9  H    0.155380
    10  H    0.158589
    11  C   -0.299504
    12  C   -0.300107
    13  C   -0.476209
    14  H    0.149624
    15  H    0.150842
    16  H    0.151669
    17  H    0.152934
    18  H    0.156105
    19  H    0.156601
    20  H    0.161956
    21  C   -0.173491
    22  C   -0.220453
    23  C   -0.170966
    24  C    0.158729
    25  C   -0.170907
    26  C   -0.219454
    27  H    0.231815
    28  H    0.223198
    29  H    0.275588
    30  H    0.275688
    31  H    0.223971
    32  N    0.488035
    33  O   -0.460296
    34  O   -0.460426
 Sum of Mulliken charges =  -0.00000

 Dipole moment (field-independent basis, Debye):
    X=             -4.5364    Y=             -2.7099    Z=              0.2607  Tot=              5.2906
 Quadrupole moment (field-independent basis, Debye-Ang):
   XX=           -122.4187   YY=            -95.2785   ZZ=            -89.7233
   XY=             -8.9689   XZ=              0.8010   YZ=              1.8051

 Normal termination of Gaussian 16 at Thu May  6 02:51:59 2021.
