 Gaussian 16, Revision A.03,
 Gaussian 16:  EM64L-G16RevA.03 25-Dec-2016

 -------------
 #p 6-31g* mp2
 -------------

 ------------------------------------------------------
 Input file generated by CHIRIPA (05-May-2021 14:55:19)
 ------------------------------------------------------
 Symbolic Z-matrix:
 Charge =  0 Multiplicity = 1

                         Standard orientation:
 ---------------------------------------------------------------------
 Center     Atomic      Atomic             Coordinates (Angstroms)
 Number     Number       Type             X           Y           Z
 ---------------------------------------------------------------------
      1          6           0        4.814603   -1.490722    0.807787
      2          6           0        5.106660   -0.145098    1.053795
      3          6           0        4.243474    0.861343    0.610475
      4          6           0        3.091860    0.484693   -0.078881
      5          6           0        2.773289   -0.847181   -0.339482
      6          6           0        3.650901   -1.836859    0.113159
      7          1           0        5.490749   -2.266039    1.155789
      8          1           0        6.009683    0.126656    1.593001
      9          1           0        4.445233    1.910849    0.787250
     10          1           0        1.865498   -1.087102   -0.879641
     11          1           0        3.421534   -2.881074   -0.079327
     12          7           0        2.170407    1.541294   -0.553138
     13          8           0        1.162261    1.183312   -1.158222
     14          8           0        2.473767    2.707433   -0.310795
     15          6           0       -4.605626   -0.082426    0.528510
     16          6           0       -6.011357    0.227212    0.012728
     17          6           0       -6.907110    0.857187    1.079757
     18          1           0       -4.679278   -0.757072    1.392439
     19          1           0       -4.144396    0.845219    0.894756
     20          1           0       -6.469276   -0.700499   -0.353710
     21          1           0       -5.934340    0.901046   -0.850193
     22          1           0       -6.475640    1.797029    1.439105
     23          1           0       -7.013616    0.186384    1.938409
     24          1           0       -7.907230    1.070298    0.689626
     25          6           0       -3.698314   -0.712588   -0.526673
     26          6           0       -2.292583   -1.022227   -0.010892
     27          6           0       -1.396829   -1.652201   -1.077921
     28          1           0       -4.159544   -1.640234   -0.892919
     29          1           0       -3.624662   -0.037944   -1.390602
     30          1           0       -2.369600   -1.696061    0.852030
     31          1           0       -1.834664   -0.094516    0.355547
     32          1           0       -1.290324   -0.981398   -1.936572
     33          1           0       -1.828300   -2.592044   -1.437268
     34          1           0       -0.396709   -1.865313   -0.687789
 ---------------------------------------------------------------------

 SCF Done:  E(RHF) =  -669.535740295     A.U. after   15 cycles
 E2 =    -0.2091374335D+01 EUMP2 =    -0.67162711462991D+03

 The electronic state is 1-A.
 Alpha  occ. eigenvalues --  -20.60824 -20.60819 -15.85867 -11.31201 -11.27775
 Alpha  occ. eigenvalues --  -11.27739 -11.27516 -11.26788 -11.26774 -11.21222
 Alpha  occ. eigenvalues --  -11.21117 -11.20965 -11.20894 -11.20768 -11.20736
 Alpha  occ. eigenvalues --   -1.59892  -1.39445  -1.19375  -1.08778  -1.07995
 Alpha  occ. eigenvalues --   -1.04776  -1.03127  -0.95654  -0.95565  -0.86635
 Alpha  occ. eigenvalues --   -0.86170  -0.82448  -0.79199  -0.77804  -0.77496
 Alpha  occ. eigenvalues --   -0.72089  -0.71210  -0.70492  -0.65032  -0.64792
 Alpha  occ. eigenvalues --   -0.64602  -0.62158  -0.60491  -0.58987  -0.57223
 Alpha  occ. eigenvalues --   -0.55282  -0.54855  -0.53109  -0.52946  -0.52260
 Alpha  occ. eigenvalues --   -0.52017  -0.49520  -0.48845  -0.48826  -0.47520
 Alpha  occ. eigenvalues --   -0.46191  -0.45356  -0.45255  -0.44844  -0.43405
 Alpha  occ. eigenvalues --   -0.37358  -0.36375
 Alpha virt. eigenvalues --    0.05008   0.11244   0.16509   0.20845   0.23308
 Alpha virt. eigenvalues --    0.24278   0.26531   0.27115   0.27812   0.27977
 Alpha virt. eigenvalues --    0.29230   0.30904   0.31531   0.31831   0.32295

 Mulliken charges:
               1
     1  C   -0.170526
     2  C   -0.218766
     3  C   -0.170433
     4  C    0.157062
     5  C   -0.177476
     6  C   -0.220892
     7  H    0.225680
     8  H    0.223487
     9  H    0.275531
    10  H    0.286930
    11  H    0.223749
    12  N    0.488085
    13  O   -0.461672
    14  O   -0.460105
    15  C   -0.298606
    16  C   -0.299571
    17  C   -0.475617
    18  H    0.147345
    19  H    0.152464
    20  H    0.150396
    21  H    0.153301
    22  H    0.156073
    23  H    0.153878
    24  H    0.159321
    25  C   -0.299245
    26  C   -0.300339
    27  C   -0.474356
    28  H    0.146491
    29  H    0.154036
    30  H    0.146653
    31  H    0.162664
    32  H    0.168533
    33  H    0.150183
    34  H    0.145742
 Sum of Mulliken charges =  -0.00000

 Dipole moment (field-independent basis, Debye):
    X=              3.2830    Y=             -3.5813    Z=              1.6211  Tot=              5.1217
 Quadrupole moment (field-independent basis, Debye-Ang):
   XX=            -74.0414   YY=            -95.9573   ZZ=            -95.3271
   XY=             -7.3631   XZ=              7.0182   YZ=              2.0396

 Normal termination of Gaussian 16 at Wed May  5 23:45:35 2021.
