 Gaussian 16, Revision A.03,
 Gaussian 16:  EM64L-G16RevA.03 25-Dec-2016

 -------------
 #p 6-31g* mp2
 -------------

 ------------------------------------------------------
 Input file generated by CHIRIPA (05-May-2021 14:55:24)
 ------------------------------------------------------
 Symbolic Z-matrix:
 Charge =  0 Multiplicity = 1

                         Standard orientation:
 ---------------------------------------------------------------------
 Center     Atomic      Atomic             Coordinates (Angstroms)
 Number     Number       Type             X           Y           Z
 ---------------------------------------------------------------------
      1          6           0        3.913025   -2.302334    0.780268
      2          6           0        4.394196   -1.761500   -0.416601
      3          6           0        3.909206   -0.538148   -0.888554
      4          6           0        2.938833    0.120409   -0.134916
      5          6           0        2.439537   -0.392567    1.061265
      6          6           0        2.938948   -1.617349    1.514087
      7          1           0        4.295378   -3.253218    1.139461
      8          1           0        5.150666   -2.291257   -0.988577
      9          1           0        4.264160   -0.096626   -1.811855
     10          1           0        1.685330    0.158824    1.609496
     11          1           0        2.563424   -2.034974    2.443934
     12          7           0        2.417762    1.416274   -0.624424
     13          8           0        1.562965    1.976788    0.058058
     14          8           0        2.874011    1.846921   -1.681315
     15          6           0       -4.520724   -0.281728    0.105826
     16          6           0       -4.510470   -1.533147   -0.772712
     17          6           0       -5.815891   -2.324786   -0.689180
     18          1           0       -4.707514   -0.574670    1.148055
     19          1           0       -5.360195    0.361019   -0.193444
     20          1           0       -3.670441   -2.172689   -0.472792
     21          1           0       -4.323494   -1.237210   -1.812942
     22          1           0       -6.661879   -1.707465   -1.008275
     23          1           0       -6.005117   -2.648260    0.339489
     24          1           0       -5.786813   -3.215215   -1.324907
     25          6           0       -3.222538    0.520232    0.033024
     26          6           0       -3.232792    1.771651    0.911563
     27          6           0       -1.927371    2.563290    0.828031
     28          1           0       -2.383068   -0.122514    0.332294
     29          1           0       -3.035749    0.813174   -1.009205
     30          1           0       -3.419769    1.475714    1.951792
     31          1           0       -4.072821    2.411193    0.611642
     32          1           0       -1.738146    2.886764   -0.200638
     33          1           0       -1.081384    1.945969    1.147126
     34          1           0       -1.956451    3.453719    1.463758
 ---------------------------------------------------------------------

 SCF Done:  E(RHF) =  -669.535593468     A.U. after   15 cycles
 E2 =    -0.2091063510D+01 EUMP2 =    -0.67162665697760D+03

 The electronic state is 1-A.
 Alpha  occ. eigenvalues --  -20.60847 -20.60834 -15.85881 -11.31249 -11.27825
 Alpha  occ. eigenvalues --  -11.27812 -11.27560 -11.26837 -11.26825 -11.21367
 Alpha  occ. eigenvalues --  -11.21037 -11.20905 -11.20903 -11.20842 -11.19876
 Alpha  occ. eigenvalues --   -1.59909  -1.39464  -1.19422  -1.08817  -1.07974
 Alpha  occ. eigenvalues --   -1.04826  -1.02992  -0.95659  -0.95402  -0.86413
 Alpha  occ. eigenvalues --   -0.86224  -0.82486  -0.79071  -0.77772  -0.77519
 Alpha  occ. eigenvalues --   -0.72104  -0.71227  -0.70531  -0.65078  -0.64831
 Alpha  occ. eigenvalues --   -0.64617  -0.62176  -0.60396  -0.58839  -0.57014
 Alpha  occ. eigenvalues --   -0.55327  -0.54694  -0.53154  -0.52920  -0.52097
 Alpha  occ. eigenvalues --   -0.51804  -0.49372  -0.48862  -0.48837  -0.47355
 Alpha  occ. eigenvalues --   -0.46126  -0.45319  -0.45233  -0.44796  -0.43263
 Alpha  occ. eigenvalues --   -0.37401  -0.36429
 Alpha virt. eigenvalues --    0.04990   0.11220   0.16472   0.21079   0.23205
 Alpha virt. eigenvalues --    0.24513   0.26358   0.27331   0.27637   0.28054
 Alpha virt. eigenvalues --    0.29064   0.30465   0.31620   0.32166   0.32488

 Mulliken charges:
               1
     1  C   -0.170676
     2  C   -0.218512
     3  C   -0.170845
     4  C    0.158284
     5  C   -0.171113
     6  C   -0.218699
     7  H    0.225824
     8  H    0.223690
     9  H    0.275803
    10  H    0.275733
    11  H    0.223628
    12  N    0.491397
    13  O   -0.462082
    14  O   -0.460011
    15  C   -0.297678
    16  C   -0.298939
    17  C   -0.475332
    18  H    0.147288
    19  H    0.149609
    20  H    0.149287
    21  H    0.152702
    22  H    0.155526
    23  H    0.153934
    24  H    0.158893
    25  C   -0.296114
    26  C   -0.301451
    27  C   -0.473922
    28  H    0.144801
    29  H    0.152033
    30  H    0.146251
    31  H    0.149579
    32  H    0.162316
    33  H    0.162742
    34  H    0.156055
 Sum of Mulliken charges =  -0.00000

 Dipole moment (field-independent basis, Debye):
    X=              2.0377    Y=             -4.4845    Z=              1.6566  Tot=              5.1968
 Quadrupole moment (field-independent basis, Debye-Ang):
   XX=            -83.9904   YY=            -96.6327   ZZ=            -91.8312
   XY=            -14.5946   XZ=              2.5569   YZ=              0.4136

 Normal termination of Gaussian 16 at Thu May  6 06:23:24 2021.
