 Gaussian 16, Revision A.03,
 Gaussian 16:  EM64L-G16RevA.03 25-Dec-2016

 -------------
 #p 6-31g* mp2
 -------------

 ------------------------------------------------------
 Input file generated by CHIRIPA (05-May-2021 14:53:12)
 ------------------------------------------------------
 Symbolic Z-matrix:
 Charge =  0 Multiplicity = 1

                         Standard orientation:
 ---------------------------------------------------------------------
 Center     Atomic      Atomic             Coordinates (Angstroms)
 Number     Number       Type             X           Y           Z
 ---------------------------------------------------------------------
      1          6           0        3.326766    1.308166   -0.133167
      2          6           0        1.839844    1.645128   -0.249377
      3          6           0        1.567699    3.148386   -0.186552
      4          1           0        3.715343    1.713437    0.811137
      5          1           0        3.874556    1.814926   -0.939712
      6          1           0        1.294835    1.136771    0.556323
      7          1           0        1.454718    1.238842   -1.193425
      8          1           0        2.085795    3.667968   -0.999086
      9          1           0        1.925003    3.565316    0.760604
     10          1           0        0.498600    3.366725   -0.271504
     11          6           0        3.614819   -0.190839   -0.194291
     12          6           0        5.101741   -0.527801   -0.078080
     13          6           0        5.373887   -2.031059   -0.140905
     14          1           0        3.067029   -0.697599    0.612255
     15          1           0        3.226243   -0.596110   -1.138594
     16          1           0        5.486867   -0.121515    0.865968
     17          1           0        5.646750   -0.019443   -0.883780
     18          1           0        5.016582   -2.447989   -1.088061
     19          1           0        4.855790   -2.550641    0.671629
     20          1           0        6.442985   -2.249398   -0.055953
     21          6           0       -0.397127   -1.051208    0.922533
     22          6           0       -1.281111   -0.392987    1.783833
     23          6           0       -2.565899   -0.047530    1.354265
     24          6           0       -2.935308   -0.377024    0.051092
     25          6           0       -2.077363   -1.032524   -0.830691
     26          6           0       -0.797369   -1.368317   -0.379684
     27          1           0        0.599064   -1.315814    1.264559
     28          1           0       -0.972996   -0.145463    2.795684
     29          1           0       -3.270360    0.462309    2.000189
     30          1           0       -2.413125   -1.266062   -1.833757
     31          1           0       -0.112963   -1.879472   -1.050768
     32          7           0       -4.292917   -0.016419   -0.415020
     33          8           0       -4.594207   -0.317854   -1.567842
     34          8           0       -5.030015    0.560829    0.381289
 ---------------------------------------------------------------------

 SCF Done:  E(RHF) =  -669.534397602     A.U. after   15 cycles
 E2 =    -0.2093398134D+01 EUMP2 =    -0.67162779573635D+03

 The electronic state is 1-A.
 Alpha  occ. eigenvalues --  -20.60753 -20.60748 -15.85809 -11.31165 -11.27765
 Alpha  occ. eigenvalues --  -11.27754 -11.27476 -11.26758 -11.26729 -11.22421
 Alpha  occ. eigenvalues --  -11.22361 -11.22102 -11.22041 -11.21838 -11.21468
 Alpha  occ. eigenvalues --   -1.59830  -1.39383  -1.19357  -1.09207  -1.08746
 Alpha  occ. eigenvalues --   -1.04758  -1.04184  -0.96654  -0.95590  -0.87662
 Alpha  occ. eigenvalues --   -0.86156  -0.82423  -0.80270  -0.79043  -0.77457
 Alpha  occ. eigenvalues --   -0.72027  -0.71154  -0.70490  -0.65834  -0.65008
 Alpha  occ. eigenvalues --   -0.64757  -0.62106  -0.61589  -0.60027  -0.58270
 Alpha  occ. eigenvalues --   -0.55970  -0.55273  -0.53358  -0.53149  -0.52992
 Alpha  occ. eigenvalues --   -0.52849  -0.50599  -0.48786  -0.48781  -0.48570
 Alpha  occ. eigenvalues --   -0.47324  -0.46541  -0.46483  -0.44791  -0.44475
 Alpha  occ. eigenvalues --   -0.37203  -0.36361
 Alpha virt. eigenvalues --    0.05056   0.11196   0.16463   0.19671   0.22782
 Alpha virt. eigenvalues --    0.23670   0.24706   0.25743   0.27203   0.27793
 Alpha virt. eigenvalues --    0.30214   0.30611   0.30865   0.31356   0.31613

 Mulliken charges:
               1
     1  C   -0.298575
     2  C   -0.302521
     3  C   -0.476226
     4  H    0.150091
     5  H    0.152570
     6  H    0.152249
     7  H    0.151622
     8  H    0.156475
     9  H    0.154128
    10  H    0.164142
    11  C   -0.299591
    12  C   -0.299657
    13  C   -0.476100
    14  H    0.139164
    15  H    0.148144
    16  H    0.153746
    17  H    0.155628
    18  H    0.155169
    19  H    0.152472
    20  H    0.163811
    21  C   -0.170951
    22  C   -0.220419
    23  C   -0.170146
    24  C    0.158009
    25  C   -0.171321
    26  C   -0.218232
    27  H    0.230813
    28  H    0.223357
    29  H    0.275613
    30  H    0.275530
    31  H    0.224115
    32  N    0.488094
    33  O   -0.460593
    34  O   -0.460612
 Sum of Mulliken charges =  -0.00000

 Dipole moment (field-independent basis, Debye):
    X=              4.8740    Y=             -1.2147    Z=              1.5955  Tot=              5.2704
 Quadrupole moment (field-independent basis, Debye-Ang):
   XX=           -123.0481   YY=            -94.6796   ZZ=            -89.7119
   XY=              1.9038   XZ=             -5.8615   YZ=              1.2861

 Normal termination of Gaussian 16 at Thu May  6 10:24:12 2021.
