 Gaussian 16, Revision A.03,
 Gaussian 16:  EM64L-G16RevA.03 25-Dec-2016

 -------------
 #p 6-31g* mp2
 -------------

 ------------------------------------------------------
 Input file generated by CHIRIPA (05-May-2021 14:51:08)
 ------------------------------------------------------
 Symbolic Z-matrix:
 Charge =  0 Multiplicity = 1

                         Standard orientation:
 ---------------------------------------------------------------------
 Center     Atomic      Atomic             Coordinates (Angstroms)
 Number     Number       Type             X           Y           Z
 ---------------------------------------------------------------------
      1          6           0       -3.163254    0.125402   -0.071978
      2          6           0       -2.733672   -1.207421   -0.686004
      3          6           0       -3.865247   -2.235161   -0.718914
      4          1           0       -3.531147   -0.049818    0.948266
      5          1           0       -4.009842    0.528987   -0.644518
      6          1           0       -1.887254   -1.607698   -0.113316
      7          1           0       -2.366579   -1.028983   -1.704836
      8          1           0       -4.709093   -1.860345   -1.307164
      9          1           0       -4.227044   -2.442348    0.293399
     10          1           0       -3.536283   -3.180448   -1.161719
     11          6           0       -2.042870    1.163128   -0.032067
     12          6           0       -2.472452    2.495951    0.581959
     13          6           0       -1.340877    3.523691    0.614869
     14          1           0       -1.196281    0.759542    0.540473
     15          1           0       -1.674976    1.338347   -1.052311
     16          1           0       -2.839544    2.317512    1.600791
     17          1           0       -3.318869    2.896227    0.009271
     18          1           0       -0.979080    3.730878   -0.397444
     19          1           0       -0.497031    3.148874    1.203119
     20          1           0       -1.669841    4.468977    1.057674
     21          6           0        2.598289   -1.407984    0.063948
     22          6           0        1.352940   -1.996284    0.728020
     23          6           0        1.357988   -3.525174    0.744191
     24          1           0        2.671087   -1.786736   -0.964737
     25          1           0        3.491800   -1.767049    0.593198
     26          1           0        0.461980   -1.635112    0.198528
     27          1           0        1.282994   -1.615936    1.755181
     28          1           0        2.229124   -3.901785    1.289982
     29          1           0        1.403444   -3.921070   -0.275515
     30          1           0        0.458712   -3.924564    1.223410
     31          6           0        2.607834    0.119455    0.040098
     32          6           0        3.853183    0.707754   -0.623975
     33          6           0        3.848136    2.236646   -0.640146
     34          1           0        1.714324    0.478519   -0.489154
     35          1           0        2.535037    0.498206    1.068782
     36          1           0        3.923130    0.327407   -1.651136
     37          1           0        4.744144    0.346583   -0.094483
     38          1           0        3.802679    2.632540    0.379561
     39          1           0        2.977001    2.613256   -1.185938
     40          1           0        4.747412    2.636035   -1.119365
 ---------------------------------------------------------------------

 SCF Done:  E(RHF) =  -470.733341163     A.U. after   11 cycles
 E2 =    -0.1583639238D+01 EUMP2 =    -0.47231698040145D+03

 The electronic state is 1-A.
 Alpha  occ. eigenvalues --  -11.21607 -11.21598 -11.21584 -11.21583 -11.21409
 Alpha  occ. eigenvalues --  -11.21389 -11.21349 -11.21328 -11.21086 -11.21083
 Alpha  occ. eigenvalues --  -11.21054 -11.21044  -1.08455  -1.08403  -1.03550
 Alpha  occ. eigenvalues --   -1.03506  -0.95983  -0.95965  -0.87002  -0.86978
 Alpha  occ. eigenvalues --   -0.79674  -0.79525  -0.78393  -0.78099  -0.65157
 Alpha  occ. eigenvalues --   -0.64969  -0.61032  -0.60834  -0.59402  -0.59285
 Alpha  occ. eigenvalues --   -0.57631  -0.57541  -0.55279  -0.55240  -0.52690
 Alpha  occ. eigenvalues --   -0.52653  -0.52425  -0.52371  -0.49957  -0.49882
 Alpha  occ. eigenvalues --   -0.48092  -0.47791  -0.46847  -0.46483  -0.46197
 Alpha  occ. eigenvalues --   -0.45773  -0.45711  -0.45114  -0.43790  -0.43765
 Alpha virt. eigenvalues --    0.21165   0.22903   0.23451   0.24512   0.25406
 Alpha virt. eigenvalues --    0.26415   0.27026   0.27166   0.28255   0.29985
 Alpha virt. eigenvalues --    0.30977   0.31343   0.31700   0.31946   0.32006

 Mulliken charges:
               1
     1  C   -0.297685
     2  C   -0.307566
     3  C   -0.475129
     4  H    0.149611
     5  H    0.149539
     6  H    0.160037
     7  H    0.151032
     8  H    0.155207
     9  H    0.155167
    10  H    0.160320
    11  C   -0.302548
    12  C   -0.299610
    13  C   -0.475879
    14  H    0.154375
    15  H    0.148655
    16  H    0.151952
    17  H    0.151890
    18  H    0.154766
    19  H    0.156117
    20  H    0.160203
    21  C   -0.297346
    22  C   -0.309647
    23  C   -0.475651
    24  H    0.149630
    25  H    0.149382
    26  H    0.161532
    27  H    0.150901
    28  H    0.155406
    29  H    0.155370
    30  H    0.159956
    31  C   -0.300652
    32  C   -0.299674
    33  C   -0.475652
    34  H    0.152738
    35  H    0.148780
    36  H    0.151847
    37  H    0.151822
    38  H    0.155128
    39  H    0.155590
    40  H    0.160087
 Sum of Mulliken charges =  -0.00000

 Dipole moment (field-independent basis, Debye):
    X=             -0.0070    Y=              0.0014    Z=              0.0001  Tot=              0.0071
 Quadrupole moment (field-independent basis, Debye-Ang):
   XX=            -85.0908   YY=            -86.6259   ZZ=            -83.1162
   XY=             -0.8281   XZ=              0.5865   YZ=             -0.2578

 Normal termination of Gaussian 16 at Thu May  6 14:52:30 2021.
