 Gaussian 16, Revision A.03,
 Gaussian 16:  EM64L-G16RevA.03 25-Dec-2016

 -------------
 #p 6-31g* mp2
 -------------

 ------------------------------------------------------
 Input file generated by CHIRIPA (05-May-2021 14:55:22)
 ------------------------------------------------------
 Symbolic Z-matrix:
 Charge =  0 Multiplicity = 1

                         Standard orientation:
 ---------------------------------------------------------------------
 Center     Atomic      Atomic             Coordinates (Angstroms)
 Number     Number       Type             X           Y           Z
 ---------------------------------------------------------------------
      1          6           0        2.645093    1.709889   -1.619384
      2          6           0        3.722272    1.161979   -0.915111
      3          6           0        3.536289    0.055008   -0.081700
      4          6           0        2.253917   -0.481214    0.024494
      5          6           0        1.160700    0.042085   -0.664219
      6          6           0        1.369993    1.149182   -1.491915
      7          1           0        2.798624    2.569860   -2.264578
      8          1           0        4.713638    1.595357   -1.012181
      9          1           0        4.352561   -0.389105    0.474970
     10          1           0        0.184112   -0.411782   -0.547178
     11          1           0        0.531592    1.572607   -2.037663
     12          7           0        2.044686   -1.653181    0.903764
     13          8           0        0.905075   -2.107144    0.980202
     14          8           0        3.024263   -2.095615    1.499849
     15          6           0       -3.222215   -0.336559    0.165659
     16          6           0       -3.500406   -0.900438   -1.228125
     17          6           0       -4.086473   -2.312087   -1.188565
     18          1           0       -2.531216   -1.007304    0.694399
     19          1           0       -4.156279   -0.330696    0.744354
     20          1           0       -2.566375   -0.903946   -1.804483
     21          1           0       -4.190674   -0.228172   -1.753678
     22          1           0       -5.031996   -2.321332   -0.636748
     23          1           0       -3.398468   -3.000947   -0.687842
     24          1           0       -4.277607   -2.695790   -2.195590
     25          6           0       -2.636089    1.073992    0.142616
     26          6           0       -2.357899    1.637870    1.536400
     27          6           0       -1.771832    3.049520    1.496840
     28          1           0       -1.702026    1.068129   -0.436079
     29          1           0       -3.327089    1.744737   -0.386124
     30          1           0       -1.667631    0.965606    2.061953
     31          1           0       -3.291929    1.641379    2.112758
     32          1           0       -2.459837    3.738379    0.996118
     33          1           0       -0.826308    3.058765    0.945023
     34          1           0       -1.580698    3.433224    2.503865
 ---------------------------------------------------------------------

 SCF Done:  E(RHF) =  -669.535584973     A.U. after   15 cycles
 E2 =    -0.2093004388D+01 EUMP2 =    -0.67162858936092D+03

 The electronic state is 1-A.
 Alpha  occ. eigenvalues --  -20.60861 -20.60854 -15.85908 -11.31244 -11.27821
 Alpha  occ. eigenvalues --  -11.27801 -11.27557 -11.26829 -11.26819 -11.21795
 Alpha  occ. eigenvalues --  -11.21786 -11.21728 -11.21438 -11.21287 -11.21003
 Alpha  occ. eigenvalues --   -1.59930  -1.39485  -1.19424  -1.08820  -1.08640
 Alpha  occ. eigenvalues --   -1.04827  -1.03668  -0.96124  -0.95658  -0.87132
 Alpha  occ. eigenvalues --   -0.86220  -0.82500  -0.79743  -0.78470  -0.77539
 Alpha  occ. eigenvalues --   -0.72130  -0.71250  -0.70547  -0.65391  -0.65061
 Alpha  occ. eigenvalues --   -0.64775  -0.62144  -0.61059  -0.59486  -0.57730
 Alpha  occ. eigenvalues --   -0.55476  -0.55253  -0.53150  -0.52904  -0.52792
 Alpha  occ. eigenvalues --   -0.52534  -0.50054  -0.48885  -0.48880  -0.48052
 Alpha  occ. eigenvalues --   -0.46779  -0.46010  -0.45876  -0.44892  -0.43946
 Alpha  occ. eigenvalues --   -0.37399  -0.36405
 Alpha virt. eigenvalues --    0.04952   0.11199   0.16357   0.19167   0.22866
 Alpha virt. eigenvalues --    0.24030   0.25099   0.26696   0.27482   0.28153
 Alpha virt. eigenvalues --    0.30038   0.31020   0.31452   0.31703   0.31933

 Mulliken charges:
               1
     1  C   -0.170649
     2  C   -0.218797
     3  C   -0.170231
     4  C    0.157856
     5  C   -0.175613
     6  C   -0.221341
     7  H    0.226216
     8  H    0.223842
     9  H    0.275786
    10  H    0.282765
    11  H    0.225667
    12  N    0.488397
    13  O   -0.462266
    14  O   -0.459579
    15  C   -0.306420
    16  C   -0.298539
    17  C   -0.477135
    18  H    0.164248
    19  H    0.152402
    20  H    0.143699
    21  H    0.150857
    22  H    0.155813
    23  H    0.163165
    24  H    0.159533
    25  C   -0.300732
    26  C   -0.301012
    27  C   -0.476983
    28  H    0.136342
    29  H    0.150034
    30  H    0.159365
    31  H    0.154512
    32  H    0.153636
    33  H    0.152525
    34  H    0.162637
 Sum of Mulliken charges =  -0.00000

 Dipole moment (field-independent basis, Debye):
    X=              0.7139    Y=              4.0185    Z=             -2.9617  Tot=              5.0427
 Quadrupole moment (field-independent basis, Debye-Ang):
   XX=            -85.5289   YY=           -100.2812   ZZ=            -95.2970
   XY=              8.6697   XZ=             -6.2118   YZ=              1.3843

 Normal termination of Gaussian 16 at Thu May  6 03:03:55 2021.
