 Gaussian 16, Revision A.03,
 Gaussian 16:  EM64L-G16RevA.03 25-Dec-2016

 -------------
 #p 6-31g* mp2
 -------------

 ------------------------------------------------------
 Input file generated by CHIRIPA (05-May-2021 14:51:13)
 ------------------------------------------------------
 Symbolic Z-matrix:
 Charge =  0 Multiplicity = 1

                         Standard orientation:
 ---------------------------------------------------------------------
 Center     Atomic      Atomic             Coordinates (Angstroms)
 Number     Number       Type             X           Y           Z
 ---------------------------------------------------------------------
      1          6           0        3.212951   -0.322445   -0.204944
      2          6           0        2.925405   -1.672402    0.453022
      3          6           0        4.184111   -2.339262    1.008676
      4          1           0        3.942284   -0.464110   -1.014234
      5          1           0        3.687111    0.342363    0.530308
      6          1           0        2.450669   -2.334005   -0.282860
      7          1           0        2.196527   -1.527536    1.260714
      8          1           0        4.657139   -1.701592    1.762481
      9          1           0        4.912724   -2.512643    0.210137
     10          1           0        3.955592   -3.302912    1.474528
     11          6           0        1.964468    0.356569   -0.765264
     12          6           0        2.252013    1.706525   -1.423231
     13          6           0        0.993307    2.373386   -1.978884
     14          1           0        1.490307   -0.308240   -1.500517
     15          1           0        1.235134    0.498234    0.044025
     16          1           0        2.980891    1.561660   -2.230923
     17          1           0        2.726750    2.368128   -0.687349
     18          1           0        0.264694    2.546767   -1.180346
     19          1           0        0.520280    1.735716   -2.732690
     20          1           0        1.221826    3.337035   -2.444736
     21          6           0       -3.047926   -0.165906   -0.106840
     22          6           0       -3.293762   -1.659501   -0.322997
     23          6           0       -4.214338   -1.941255   -1.510831
     24          1           0       -4.011355    0.339409    0.046155
     25          1           0       -2.611684    0.262672   -1.019752
     26          1           0       -3.728129   -2.085414    0.590534
     27          1           0       -2.329621   -2.161348   -0.475304
     28          1           0       -3.783397   -1.543076   -2.435138
     29          1           0       -5.189851   -1.466710   -1.363244
     30          1           0       -4.376556   -3.015012   -1.647183
     31          6           0       -2.129492    0.131782    1.077048
     32          6           0       -1.883656    1.625377    1.293206
     33          6           0       -0.963080    1.907133    2.481040
     34          1           0       -2.565734   -0.296796    1.989960
     35          1           0       -1.166063   -0.373532    0.924054
     36          1           0       -2.847797    2.127224    1.445513
     37          1           0       -1.449289    2.051290    0.379674
     38          1           0        0.012433    1.432587    2.333453
     39          1           0       -1.394022    1.508952    3.405347
     40          1           0       -0.800862    2.980889    2.617392
 ---------------------------------------------------------------------

 SCF Done:  E(RHF) =  -470.733129360     A.U. after   11 cycles
 E2 =    -0.1584250673D+01 EUMP2 =    -0.47231738003270D+03

 The electronic state is 1-A.
 Alpha  occ. eigenvalues --  -11.21662 -11.21657 -11.21608 -11.21573 -11.21473
 Alpha  occ. eigenvalues --  -11.21411 -11.21378 -11.21317 -11.21132 -11.21126
 Alpha  occ. eigenvalues --  -11.21105 -11.21052  -1.08507  -1.08408  -1.03598
 Alpha  occ. eigenvalues --   -1.03524  -0.96039  -0.95982  -0.87058  -0.86997
 Alpha  occ. eigenvalues --   -0.79672  -0.79578  -0.78330  -0.78218  -0.65302
 Alpha  occ. eigenvalues --   -0.64903  -0.61153  -0.60775  -0.59400  -0.59352
 Alpha  occ. eigenvalues --   -0.57663  -0.57584  -0.55348  -0.55262  -0.52725
 Alpha  occ. eigenvalues --   -0.52685  -0.52485  -0.52398  -0.50081  -0.49862
 Alpha  occ. eigenvalues --   -0.48082  -0.47850  -0.46781  -0.46495  -0.46109
 Alpha  occ. eigenvalues --   -0.45795  -0.45639  -0.45422  -0.43842  -0.43778
 Alpha virt. eigenvalues --    0.19295   0.23019   0.23685   0.24197   0.25721
 Alpha virt. eigenvalues --    0.25937   0.26748   0.28046   0.29130   0.29785
 Alpha virt. eigenvalues --    0.30160   0.31612   0.31677   0.31809   0.32102

 Mulliken charges:
               1
     1  C   -0.298054
     2  C   -0.300253
     3  C   -0.475715
     4  H    0.150081
     5  H    0.149775
     6  H    0.151874
     7  H    0.151865
     8  H    0.155422
     9  H    0.155335
    10  H    0.160535
    11  C   -0.306492
    12  C   -0.298957
    13  C   -0.483043
    14  H    0.149230
    15  H    0.157113
    16  H    0.152342
    17  H    0.152317
    18  H    0.161799
    19  H    0.154843
    20  H    0.160967
    21  C   -0.298478
    22  C   -0.299822
    23  C   -0.475693
    24  H    0.149446
    25  H    0.150444
    26  H    0.151751
    27  H    0.152330
    28  H    0.155120
    29  H    0.155135
    30  H    0.160111
    31  C   -0.301258
    32  C   -0.307608
    33  C   -0.477888
    34  H    0.149363
    35  H    0.152857
    36  H    0.152667
    37  H    0.158795
    38  H    0.155424
    39  H    0.155884
    40  H    0.160436
 Sum of Mulliken charges =  -0.00000

 Dipole moment (field-independent basis, Debye):
    X=              0.0195    Y=              0.0048    Z=             -0.0057  Tot=              0.0209
 Quadrupole moment (field-independent basis, Debye-Ang):
   XX=            -85.1406   YY=            -85.0389   ZZ=            -84.4920
   XY=              0.1310   XZ=             -1.5520   YZ=              0.4099

 Normal termination of Gaussian 16 at Wed May  5 21:35:04 2021.
