 Gaussian 16, Revision A.03,
 Gaussian 16:  EM64L-G16RevA.03 25-Dec-2016

 -------------
 #p 6-31g* mp2
 -------------

 ------------------------------------------------------
 Input file generated by CHIRIPA (05-May-2021 14:51:11)
 ------------------------------------------------------
 Symbolic Z-matrix:
 Charge =  0 Multiplicity = 1

                         Standard orientation:
 ---------------------------------------------------------------------
 Center     Atomic      Atomic             Coordinates (Angstroms)
 Number     Number       Type             X           Y           Z
 ---------------------------------------------------------------------
      1          6           0        2.845732    0.090032   -0.146953
      2          6           0        3.123821   -0.665150   -1.447088
      3          6           0        3.988308   -1.908371   -1.235292
      4          1           0        3.800548    0.379608    0.312846
      5          1           0        2.349423   -0.586257    0.562770
      6          1           0        3.618212    0.012758   -2.154643
      7          1           0        2.168227   -0.952795   -1.903944
      8          1           0        3.497587   -2.606549   -0.549478
      9          1           0        4.955810   -1.635509   -0.801602
     10          1           0        4.174746   -2.432999   -2.177559
     11          6           0        1.982703    1.335309   -0.342389
     12          6           0        1.704614    2.090491    0.957746
     13          6           0        0.840127    3.333712    0.745950
     14          1           0        2.479012    2.011598   -1.052112
     15          1           0        1.027887    1.045733   -0.802189
     16          1           0        2.660208    2.378136    1.414602
     17          1           0        1.210223    1.412582    1.665301
     18          1           0       -0.127375    3.060850    0.312260
     19          1           0        1.330848    4.031890    0.060136
     20          1           0        0.653689    3.858340    1.688217
     21          6           0       -2.784197   -0.091272   -0.001117
     22          6           0       -3.952044   -0.410642   -0.934990
     23          6           0       -4.682324    0.842720   -1.418277
     24          1           0       -3.158485    0.473214    0.863874
     25          1           0       -2.076724    0.568349   -0.522440
     26          1           0       -4.656415   -1.070583   -0.412538
     27          1           0       -3.574962   -0.974599   -1.797763
     28          1           0       -3.998072    1.501363   -1.962879
     29          1           0       -5.085669    1.404834   -0.569783
     30          1           0       -5.513431    0.591312   -2.084547
     31          6           0       -2.044238   -1.334069    0.490458
     32          6           0       -0.876391   -1.014699    1.424333
     33          6           0       -0.146111   -2.268062    1.907620
     34          1           0       -2.751711   -1.993690    1.011782
     35          1           0       -1.669950   -1.898555   -0.374531
     36          1           0       -1.253472   -0.450741    2.287105
     37          1           0       -0.172020   -0.354758    0.901880
     38          1           0        0.257234   -2.830176    1.059125
     39          1           0       -0.830363   -2.926704    2.452220
     40          1           0        0.684997   -2.016653    2.573889
 ---------------------------------------------------------------------

 SCF Done:  E(RHF) =  -470.732458118     A.U. after   11 cycles
 E2 =    -0.1585237642D+01 EUMP2 =    -0.47231769576014D+03

 The electronic state is 1-A.
 Alpha  occ. eigenvalues --  -11.21652 -11.21630 -11.21626 -11.21557 -11.21478
 Alpha  occ. eigenvalues --  -11.21422 -11.21418 -11.21355 -11.21167 -11.21104
 Alpha  occ. eigenvalues --  -11.21084 -11.21048  -1.08551  -1.08407  -1.03608
 Alpha  occ. eigenvalues --   -1.03523  -0.96059  -0.95977  -0.87080  -0.86985
 Alpha  occ. eigenvalues --   -0.79704  -0.79566  -0.78345  -0.78246  -0.65558
 Alpha  occ. eigenvalues --   -0.64767  -0.61029  -0.60888  -0.59413  -0.59341
 Alpha  occ. eigenvalues --   -0.57672  -0.57583  -0.55414  -0.55194  -0.52741
 Alpha  occ. eigenvalues --   -0.52671  -0.52479  -0.52401  -0.50082  -0.49863
 Alpha  occ. eigenvalues --   -0.48057  -0.47860  -0.46739  -0.46582  -0.46092
 Alpha  occ. eigenvalues --   -0.45831  -0.45690  -0.45402  -0.43848  -0.43788
 Alpha virt. eigenvalues --    0.19505   0.22090   0.23512   0.24489   0.25520
 Alpha virt. eigenvalues --    0.26322   0.27150   0.27600   0.29303   0.30123
 Alpha virt. eigenvalues --    0.30355   0.31486   0.31733   0.31850   0.32093

 Mulliken charges:
               1
     1  C   -0.304072
     2  C   -0.299151
     3  C   -0.476106
     4  H    0.150093
     5  H    0.155714
     6  H    0.152084
     7  H    0.150928
     8  H    0.155623
     9  H    0.155364
    10  H    0.160210
    11  C   -0.302730
    12  C   -0.303785
    13  C   -0.476466
    14  H    0.151269
    15  H    0.149260
    16  H    0.152131
    17  H    0.156634
    18  H    0.156102
    19  H    0.154962
    20  H    0.160267
    21  C   -0.300642
    22  C   -0.299665
    23  C   -0.475828
    24  H    0.150253
    25  H    0.150064
    26  H    0.152293
    27  H    0.152047
    28  H    0.155302
    29  H    0.155371
    30  H    0.160490
    31  C   -0.297259
    32  C   -0.311704
    33  C   -0.476876
    34  H    0.149881
    35  H    0.149231
    36  H    0.151958
    37  H    0.165133
    38  H    0.154935
    39  H    0.156067
    40  H    0.160622
 Sum of Mulliken charges =  -0.00000

 Dipole moment (field-independent basis, Debye):
    X=             -0.0116    Y=             -0.0089    Z=              0.0241  Tot=              0.0282
 Quadrupole moment (field-independent basis, Debye-Ang):
   XX=            -84.3713   YY=            -86.0320   ZZ=            -84.2912
   XY=              1.5754   XZ=             -0.8819   YZ=              0.2147

 Normal termination of Gaussian 16 at Thu May  6 00:41:12 2021.
