 Gaussian 16, Revision A.03,
 Gaussian 16:  EM64L-G16RevA.03 25-Dec-2016

 -------------
 #p 6-31g* mp2
 -------------

 ------------------------------------------------------
 Input file generated by CHIRIPA (05-May-2021 14:51:07)
 ------------------------------------------------------
 Symbolic Z-matrix:
 Charge =  0 Multiplicity = 1

                         Standard orientation:
 ---------------------------------------------------------------------
 Center     Atomic      Atomic             Coordinates (Angstroms)
 Number     Number       Type             X           Y           Z
 ---------------------------------------------------------------------
      1          6           0       -2.391558   -1.013086   -0.470570
      2          6           0       -1.537791   -2.149689    0.092635
      3          6           0       -0.437247   -2.595563   -0.870585
      4          1           0       -2.841465   -1.336385   -1.419257
      5          1           0       -1.742271   -0.158903   -0.707618
      6          1           0       -2.188684   -3.000974    0.329842
      7          1           0       -1.090018   -1.823714    1.040188
      8          1           0        0.235581   -1.762633   -1.098908
      9          1           0       -0.869327   -2.946582   -1.813290
     10          1           0        0.160934   -3.408832   -0.447935
     11          6           0       -3.496089   -0.556349    0.480814
     12          6           0       -4.349857    0.580253   -0.082392
     13          6           0       -5.450400    1.026127    0.880828
     14          1           0       -4.145376   -1.410533    0.717861
     15          1           0       -3.046182   -0.233051    1.429500
     16          1           0       -4.797630    0.254279   -1.029945
     17          1           0       -3.698964    1.431539   -0.319599
     18          1           0       -5.018320    1.377147    1.823533
     19          1           0       -6.123228    0.193198    1.109151
     20          1           0       -6.048581    1.839396    0.458178
     21          6           0        3.571469    0.630942    0.402122
     22          6           0        4.239032   -0.688326    0.012414
     23          6           0        5.493351   -0.982049    0.835947
     24          1           0        4.293019    1.450136    0.278708
     25          1           0        3.311853    0.601222    1.469414
     26          1           0        4.496061   -0.656663   -1.054146
     27          1           0        3.515750   -1.504451    0.136587
     28          1           0        5.249541   -1.040573    1.901655
     29          1           0        6.235422   -0.187969    0.704156
     30          1           0        5.954531   -1.929737    0.540888
     31          6           0        2.316178    0.938493   -0.412365
     32          6           0        1.648615    2.257762   -0.022657
     33          6           0        0.394297    2.551484   -0.846191
     34          1           0        2.575794    0.968213   -1.479657
     35          1           0        1.594628    0.119299   -0.288951
     36          1           0        2.371897    3.073886   -0.146831
     37          1           0        1.391586    2.226099    1.043903
     38          1           0       -0.347775    1.757404   -0.714399
     39          1           0        0.638106    2.610009   -1.911898
     40          1           0       -0.066885    3.499172   -0.551131
 ---------------------------------------------------------------------

 SCF Done:  E(RHF) =  -470.733015783     A.U. after   11 cycles
 E2 =    -0.1583965067D+01 EUMP2 =    -0.47231698085051D+03

 The electronic state is 1-A.
 Alpha  occ. eigenvalues --  -11.21661 -11.21637 -11.21604 -11.21596 -11.21445
 Alpha  occ. eigenvalues --  -11.21421 -11.21383 -11.21361 -11.21132 -11.21075
 Alpha  occ. eigenvalues --  -11.21074 -11.21066  -1.08484  -1.08439  -1.03572
 Alpha  occ. eigenvalues --   -1.03538  -0.96042  -0.95972  -0.87058  -0.86988
 Alpha  occ. eigenvalues --   -0.79656  -0.79585  -0.78345  -0.78207  -0.65267
 Alpha  occ. eigenvalues --   -0.64946  -0.61038  -0.60872  -0.59405  -0.59336
 Alpha  occ. eigenvalues --   -0.57714  -0.57541  -0.55529  -0.55093  -0.52715
 Alpha  occ. eigenvalues --   -0.52679  -0.52547  -0.52314  -0.50119  -0.49777
 Alpha  occ. eigenvalues --   -0.48067  -0.47869  -0.46849  -0.46603  -0.45994
 Alpha  occ. eigenvalues --   -0.45776  -0.45770  -0.45276  -0.43820  -0.43797
 Alpha virt. eigenvalues --    0.19796   0.22896   0.23841   0.24305   0.25576
 Alpha virt. eigenvalues --    0.26422   0.26994   0.27204   0.28776   0.29655
 Alpha virt. eigenvalues --    0.30980   0.31559   0.31738   0.31830   0.32023

 Mulliken charges:
               1
     1  C   -0.308242
     2  C   -0.299166
     3  C   -0.482220
     4  H    0.150327
     5  H    0.157970
     6  H    0.152370
     7  H    0.150986
     8  H    0.161058
     9  H    0.155733
    10  H    0.160011
    11  C   -0.297647
    12  C   -0.300488
    13  C   -0.475705
    14  H    0.149682
    15  H    0.149249
    16  H    0.152057
    17  H    0.152875
    18  H    0.155137
    19  H    0.155124
    20  H    0.160375
    21  C   -0.297791
    22  C   -0.300348
    23  C   -0.475737
    24  H    0.149867
    25  H    0.149358
    26  H    0.152024
    27  H    0.152946
    28  H    0.155121
    29  H    0.155152
    30  H    0.160417
    31  C   -0.306110
    32  C   -0.298809
    33  C   -0.484235
    34  H    0.149759
    35  H    0.156535
    36  H    0.152460
    37  H    0.151619
    38  H    0.161661
    39  H    0.155931
    40  H    0.160690
 Sum of Mulliken charges =  -0.00000

 Dipole moment (field-independent basis, Debye):
    X=              0.0089    Y=              0.0067    Z=             -0.0163  Tot=              0.0198
 Quadrupole moment (field-independent basis, Debye-Ang):
   XX=            -85.5557   YY=            -84.3945   ZZ=            -84.7264
   XY=              1.4131   XZ=             -0.0984   YZ=             -0.1268

 Normal termination of Gaussian 16 at Thu May  6 03:39:15 2021.
