 Gaussian 16, Revision A.03,
 Gaussian 16:  EM64L-G16RevA.03 25-Dec-2016

 -------------
 #p 6-31g* mp2
 -------------

 ------------------------------------------------------
 Input file generated by CHIRIPA (05-May-2021 14:55:21)
 ------------------------------------------------------
 Symbolic Z-matrix:
 Charge =  0 Multiplicity = 1

                         Standard orientation:
 ---------------------------------------------------------------------
 Center     Atomic      Atomic             Coordinates (Angstroms)
 Number     Number       Type             X           Y           Z
 ---------------------------------------------------------------------
      1          6           0        5.884191    1.717024    0.149827
      2          6           0        4.550719    2.110484   -0.003677
      3          6           0        3.536377    1.154520   -0.112265
      4          6           0        3.892821   -0.192263   -0.063144
      5          6           0        5.212204   -0.615799    0.088961
      6          6           0        6.210103    0.357536    0.195575
      7          1           0        6.665769    2.466387    0.233414
      8          1           0        4.294676    3.165567   -0.039533
      9          1           0        2.495940    1.431309   -0.231839
     10          1           0        5.436517   -1.675072    0.121252
     11          1           0        7.244845    0.049054    0.314710
     12          7           0        2.827686   -1.213494   -0.177057
     13          8           0        3.167821   -2.393669   -0.130867
     14          8           0        1.672868   -0.814423   -0.310374
     15          6           0       -5.774650    0.491224   -0.166064
     16          6           0       -7.159162   -0.006617    0.250186
     17          6           0       -8.283374    0.925416   -0.202866
     18          1           0       -5.611887    1.494312    0.251390
     19          1           0       -5.744755    0.598958   -1.259177
     20          1           0       -7.185996   -0.114701    1.342071
     21          1           0       -7.318572   -1.008715   -0.168148
     22          1           0       -8.285259    1.025156   -1.293118
     23          1           0       -8.151930    1.924250    0.225682
     24          1           0       -9.264381    0.550479    0.105206
     25          6           0       -4.640373   -0.429907    0.279651
     26          6           0       -3.255860    0.067935   -0.136599
     27          6           0       -2.131647   -0.864097    0.316452
     28          1           0       -4.670268   -0.537641    1.372763
     29          1           0       -4.803135   -1.432995   -0.137803
     30          1           0       -3.096451    1.070033    0.281734
     31          1           0       -3.229025    0.176019   -1.228485
     32          1           0       -2.263092   -1.862932   -0.112096
     33          1           0       -2.129764   -0.963838    1.406705
     34          1           0       -1.150641   -0.489162    0.008380
 ---------------------------------------------------------------------

 SCF Done:  E(RHF) =  -669.535902028     A.U. after   15 cycles
 E2 =    -0.2090566571D+01 EUMP2 =    -0.67162646859941D+03

 The electronic state is 1-A.
 Alpha  occ. eigenvalues --  -20.60884 -20.60877 -15.85933 -11.31267 -11.27834
 Alpha  occ. eigenvalues --  -11.27829 -11.27573 -11.26845 -11.26835 -11.21154
 Alpha  occ. eigenvalues --  -11.20836 -11.20714 -11.20694 -11.20630 -11.19641
 Alpha  occ. eigenvalues --   -1.59949  -1.39506  -1.19437  -1.08838  -1.07766
 Alpha  occ. eigenvalues --   -1.04837  -1.02782  -0.95680  -0.95196  -0.86240
 Alpha  occ. eigenvalues --   -0.86201  -0.82514  -0.78868  -0.77578  -0.77550
 Alpha  occ. eigenvalues --   -0.72160  -0.71267  -0.70547  -0.65095  -0.64840
 Alpha  occ. eigenvalues --   -0.64409  -0.62185  -0.60193  -0.58599  -0.56797
 Alpha  occ. eigenvalues --   -0.55340  -0.54503  -0.53168  -0.52930  -0.51825
 Alpha  occ. eigenvalues --   -0.51624  -0.49164  -0.48906  -0.48891  -0.47164
 Alpha  occ. eigenvalues --   -0.45938  -0.45097  -0.45034  -0.44916  -0.42994
 Alpha  occ. eigenvalues --   -0.37417  -0.36439
 Alpha virt. eigenvalues --    0.04971   0.11215   0.16465   0.21314   0.23476
 Alpha virt. eigenvalues --    0.25082   0.27243   0.27264   0.27968   0.28145
 Alpha virt. eigenvalues --    0.28945   0.30808   0.32107   0.32132   0.32400

 Mulliken charges:
               1
     1  C   -0.170692
     2  C   -0.218512
     3  C   -0.170532
     4  C    0.157478
     5  C   -0.170627
     6  C   -0.218566
     7  H    0.225884
     8  H    0.223740
     9  H    0.275304
    10  H    0.275864
    11  H    0.223724
    12  N    0.495619
    13  O   -0.459059
    14  O   -0.467054
    15  C   -0.297429
    16  C   -0.299122
    17  C   -0.475289
    18  H    0.147559
    19  H    0.148518
    20  H    0.151210
    21  H    0.151872
    22  H    0.154596
    23  H    0.154059
    24  H    0.159020
    25  C   -0.297304
    26  C   -0.299957
    27  C   -0.481787
    28  H    0.147988
    29  H    0.149576
    30  H    0.146290
    31  H    0.149839
    32  H    0.155140
    33  H    0.149435
    34  H    0.183213
 Sum of Mulliken charges =  -0.00000

 Dipole moment (field-independent basis, Debye):
    X=              4.0647    Y=              3.5468    Z=              0.3759  Tot=              5.4076
 Quadrupole moment (field-independent basis, Debye-Ang):
   XX=            -65.4450   YY=            -93.8594   ZZ=            -95.0864
   XY=             11.3858   XZ=              1.6142   YZ=              0.0026

 Normal termination of Gaussian 16 at Thu May  6 17:31:39 2021.
