 Gaussian 16, Revision A.03,
 Gaussian 16:  EM64L-G16RevA.03 25-Dec-2016

 -------------
 #p 6-31g* mp2
 -------------

 ------------------------------------------------------
 Input file generated by CHIRIPA (05-May-2021 14:57:21)
 ------------------------------------------------------
 Symbolic Z-matrix:
 Charge =  0 Multiplicity = 1

                         Standard orientation:
 ---------------------------------------------------------------------
 Center     Atomic      Atomic             Coordinates (Angstroms)
 Number     Number       Type             X           Y           Z
 ---------------------------------------------------------------------
      1          6           0       -3.786011   -2.160077   -0.438914
      2          6           0       -4.145313   -1.003608   -1.138914
      3          6           0       -3.656845    0.245582   -0.744614
      4          6           0       -2.807304    0.301922    0.359196
      5          6           0       -2.431024   -0.832252    1.077076
      6          6           0       -2.931520   -2.070866    0.664901
      7          1           0       -4.170136   -3.126370   -0.752158
      8          1           0       -4.808754   -1.069880   -1.996526
      9          1           0       -3.918857    1.156804   -1.268485
     10          1           0       -1.767908   -0.734473    1.928037
     11          1           0       -2.650789   -2.967327    1.210422
     12          7           0       -2.283819    1.618785    0.786086
     13          8           0       -1.536862    1.641645    1.761878
     14          8           0       -2.630379    2.603147    0.136806
     15          6           0        5.217846   -0.585772    0.555452
     16          6           0        4.209707   -1.548903    0.667510
     17          6           0        2.918267   -1.282291    0.203132
     18          6           0        2.668880   -0.036464   -0.370463
     19          6           0        3.652061    0.943742   -0.496326
     20          6           0        4.936302    0.655287   -0.025085
     21          1           0        6.218272   -0.801367    0.918858
     22          1           0        4.425480   -2.513590    1.117918
     23          1           0        2.119047   -2.009724    0.277338
     24          1           0        3.406638    1.896298   -0.950001
     25          1           0        5.717270    1.405173   -0.113425
     26          7           0        1.305501    0.257348   -0.865712
     27          8           0        1.111398    1.362598   -1.367094
     28          8           0        0.456803   -0.623175   -0.743129
 ---------------------------------------------------------------------

 SCF Done:  E(RHF) =  -868.337938899     A.U. after   16 cycles
 E2 =    -0.2600778068D+01 EUMP2 =    -0.87093871696752D+03

 The electronic state is 1-A.
 Alpha  occ. eigenvalues --  -20.60697 -20.60635 -20.59493 -20.59446 -15.85694
 Alpha  occ. eigenvalues --  -15.84526 -11.31048 -11.29771 -11.27665 -11.27579
 Alpha  occ. eigenvalues --  -11.27373 -11.26669 -11.26612 -11.26439 -11.26408
 Alpha  occ. eigenvalues --  -11.26250 -11.25485 -11.25462  -1.59728  -1.58524
 Alpha  occ. eigenvalues --   -1.39285  -1.38095  -1.19222  -1.17979  -1.08622
 Alpha  occ. eigenvalues --   -1.07421  -1.04631  -1.03430  -0.95462  -0.94277
 Alpha  occ. eigenvalues --   -0.86030  -0.84853  -0.82299  -0.81148  -0.77348
 Alpha  occ. eigenvalues --   -0.76176  -0.71933  -0.71057  -0.70784  -0.70345
 Alpha  occ. eigenvalues --   -0.69761  -0.69210  -0.64884  -0.64645  -0.63702
 Alpha  occ. eigenvalues --   -0.63516  -0.61986  -0.60829  -0.55143  -0.54020
 Alpha  occ. eigenvalues --   -0.52951  -0.52734  -0.51702  -0.51594  -0.48690
 Alpha  occ. eigenvalues --   -0.48663  -0.47527  -0.47514  -0.44700  -0.43533
 Alpha  occ. eigenvalues --   -0.37202  -0.36231  -0.35921  -0.34961
 Alpha virt. eigenvalues --    0.05186   0.06426   0.11425   0.12672   0.16702
 Alpha virt. eigenvalues --    0.17896   0.21518   0.22489   0.27404   0.28251
 Alpha virt. eigenvalues --    0.28506   0.29393   0.31063   0.31953   0.32638

 Mulliken charges:
               1
     1  C   -0.169847
     2  C   -0.218471
     3  C   -0.166933
     4  C    0.171645
     5  C   -0.155642
     6  C   -0.217890
     7  H    0.219432
     8  H    0.218265
     9  H    0.273074
    10  H    0.268141
    11  H    0.215072
    12  N    0.491071
    13  O   -0.469005
    14  O   -0.460525
    15  C   -0.170635
    16  C   -0.218328
    17  C   -0.170758
    18  C    0.160814
    19  C   -0.168946
    20  C   -0.218389
    21  H    0.225154
    22  H    0.221612
    23  H    0.271012
    24  H    0.278167
    25  H    0.224010
    26  N    0.490658
    27  O   -0.453820
    28  O   -0.468936
 Sum of Mulliken charges =  -0.00000

 Dipole moment (field-independent basis, Debye):
    X=              3.2056    Y=             -5.4400    Z=              0.1111  Tot=              6.3152
 Quadrupole moment (field-independent basis, Debye-Ang):
   XX=            -69.0212   YY=           -103.4936   ZZ=           -105.4689
   XY=              9.8210   XZ=              8.4198   YZ=             -5.4238

 Normal termination of Gaussian 16 at Thu May  6 14:30:05 2021.
