 Gaussian 16, Revision A.03,
 Gaussian 16:  EM64L-G16RevA.03 25-Dec-2016

 -------------
 #p 6-31g* mp2
 -------------

 ------------------------------------------------------
 Input file generated by CHIRIPA (05-May-2021 14:57:25)
 ------------------------------------------------------
 Symbolic Z-matrix:
 Charge =  0 Multiplicity = 1

                         Standard orientation:
 ---------------------------------------------------------------------
 Center     Atomic      Atomic             Coordinates (Angstroms)
 Number     Number       Type             X           Y           Z
 ---------------------------------------------------------------------
      1          6           0       -4.532702   -1.567819    0.001184
      2          6           0       -5.007083   -0.272625    0.233473
      3          6           0       -4.148092    0.826147    0.136606
      4          6           0       -2.814711    0.592248   -0.196074
      5          6           0       -2.312075   -0.686165   -0.433369
      6          6           0       -3.189081   -1.770098   -0.330910
      7          1           0       -5.206984   -2.415608    0.078604
      8          1           0       -6.050066   -0.112539    0.491549
      9          1           0       -4.488872    1.839449    0.311266
     10          1           0       -1.267210   -0.814206   -0.688871
     11          1           0       -2.817896   -2.774850   -0.511851
     12          7           0       -1.895800    1.747614   -0.301583
     13          8           0       -0.725452    1.514921   -0.596161
     14          8           0       -2.363306    2.864006   -0.087704
     15          6           0        0.946993   -1.833171    0.668742
     16          6           0        1.222272   -0.715499    1.463443
     17          6           0        2.338237    0.084727    1.201133
     18          6           0        3.161364   -0.263452    0.131308
     19          6           0        2.913718   -1.370679   -0.678637
     20          6           0        1.792106   -2.156624   -0.397881
     21          1           0        0.077891   -2.449259    0.879675
     22          1           0        0.567693   -0.461904    2.292456
     23          1           0        2.574838    0.955584    1.800337
     24          1           0        3.584634   -1.598219   -1.498097
     25          1           0        1.580782   -3.024037   -1.016737
     26          7           0        4.345776    0.576151   -0.156151
     27          8           0        5.055418    0.248081   -1.104528
     28          8           0        4.542050    1.546404    0.572356
 ---------------------------------------------------------------------

 SCF Done:  E(RHF) =  -868.336049963     A.U. after   16 cycles
 E2 =    -0.2602788754D+01 EUMP2 =    -0.87093883871742D+03

 The electronic state is 1-A.
 Alpha  occ. eigenvalues --  -20.61227 -20.61203 -20.60362 -20.60341 -15.86265
 Alpha  occ. eigenvalues --  -15.85410 -11.31760 -11.30878 -11.28346 -11.28303
 Alpha  occ. eigenvalues --  -11.28140 -11.27509 -11.27462 -11.27402 -11.27370
 Alpha  occ. eigenvalues --  -11.27359 -11.26673 -11.26538  -1.60295  -1.59421
 Alpha  occ. eigenvalues --   -1.39840  -1.38973  -1.19967  -1.19084  -1.09333
 Alpha  occ. eigenvalues --   -1.08526  -1.05397  -1.04500  -0.96143  -0.95326
 Alpha  occ. eigenvalues --   -0.86778  -0.85935  -0.82984  -0.82141  -0.78007
 Alpha  occ. eigenvalues --   -0.77127  -0.72485  -0.71644  -0.71633  -0.71115
 Alpha  occ. eigenvalues --   -0.70727  -0.70275  -0.65612  -0.65406  -0.64777
 Alpha  occ. eigenvalues --   -0.64563  -0.62745  -0.61854  -0.55892  -0.55155
 Alpha  occ. eigenvalues --   -0.53710  -0.53591  -0.52666  -0.52638  -0.49255
 Alpha  occ. eigenvalues --   -0.49223  -0.48407  -0.48378  -0.45221  -0.44355
 Alpha  occ. eigenvalues --   -0.37963  -0.37304  -0.36823  -0.36006
 Alpha virt. eigenvalues --    0.04504   0.05366   0.10531   0.11634   0.15822
 Alpha virt. eigenvalues --    0.16800   0.20227   0.21857   0.25957   0.27450
 Alpha virt. eigenvalues --    0.27785   0.29129   0.30282   0.31591   0.32572

 Mulliken charges:
               1
     1  C   -0.169987
     2  C   -0.218959
     3  C   -0.169884
     4  C    0.155336
     5  C   -0.180058
     6  C   -0.224308
     7  H    0.226861
     8  H    0.225581
     9  H    0.277661
    10  H    0.285255
    11  H    0.218560
    12  N    0.486217
    13  O   -0.457251
    14  O   -0.458844
    15  C   -0.187326
    16  C   -0.206598
    17  C   -0.159494
    18  C    0.161933
    19  C   -0.168566
    20  C   -0.219128
    21  H    0.218756
    22  H    0.222933
    23  H    0.278605
    24  H    0.275195
    25  H    0.218794
    26  N    0.488303
    27  O   -0.461833
    28  O   -0.457755
 Sum of Mulliken charges =  -0.00000

 Dipole moment (field-independent basis, Debye):
    X=             -7.3017    Y=             -6.6627    Z=              1.4426  Tot=              9.9893
 Quadrupole moment (field-independent basis, Debye-Ang):
   XX=           -110.0152   YY=           -105.8006   ZZ=           -102.5783
   XY=             -1.9406   XZ=              0.3330   YZ=              3.9100

 Normal termination of Gaussian 16 at Thu May  6 08:18:59 2021.
