 Gaussian 16, Revision A.03,
 Gaussian 16:  EM64L-G16RevA.03 25-Dec-2016

 -------------
 #p 6-31g* mp2
 -------------

 ------------------------------------------------------
 Input file generated by CHIRIPA (05-May-2021 14:57:21)
 ------------------------------------------------------
 Symbolic Z-matrix:
 Charge =  0 Multiplicity = 1

                         Standard orientation:
 ---------------------------------------------------------------------
 Center     Atomic      Atomic             Coordinates (Angstroms)
 Number     Number       Type             X           Y           Z
 ---------------------------------------------------------------------
      1          6           0       -3.649749   -2.334129    0.544349
      2          6           0       -4.851197   -1.629570    0.673360
      3          6           0       -4.910685   -0.265993    0.370596
      4          6           0       -3.744398    0.364311   -0.060427
      5          6           0       -2.532343   -0.310232   -0.199008
      6          6           0       -2.496191   -1.673376    0.109344
      7          1           0       -3.612602   -3.393220    0.781714
      8          1           0       -5.748635   -2.140128    1.010970
      9          1           0       -5.827549    0.303652    0.461609
     10          1           0       -1.654269    0.226025   -0.537876
     11          1           0       -1.561742   -2.218008    0.008224
     12          7           0       -3.795023    1.807640   -0.383908
     13          8           0       -2.753562    2.339883   -0.761680
     14          8           0       -4.875206    2.379348   -0.253554
     15          6           0        5.606337    1.494112    0.498845
     16          6           0        4.288527    1.824039    0.832078
     17          6           0        3.244315    0.933844    0.564272
     18          6           0        3.555242   -0.283101   -0.040424
     19          6           0        4.857990   -0.640664   -0.384354
     20          6           0        5.886369    0.264980   -0.107240
     21          1           0        6.411357    2.191638    0.710498
     22          1           0        4.068098    2.777890    1.302848
     23          1           0        2.215092    1.163808    0.811732
     24          1           0        5.046611   -1.598985   -0.852823
     25          1           0        6.908853    0.006086   -0.367136
     26          7           0        2.458162   -1.233689   -0.328866
     27          8           0        2.758358   -2.299509   -0.862296
     28          8           0        1.318849   -0.894939   -0.016056
 ---------------------------------------------------------------------

 SCF Done:  E(RHF) =  -868.341307762     A.U. after   16 cycles
 E2 =    -0.2598352245D+01 EUMP2 =    -0.87093966000740D+03

 The electronic state is 1-A.
 Alpha  occ. eigenvalues --  -20.61587 -20.61561 -20.60067 -20.60061 -15.86590
 Alpha  occ. eigenvalues --  -15.85105 -11.31584 -11.30195 -11.28121 -11.28086
 Alpha  occ. eigenvalues --  -11.27793 -11.27059 -11.27019 -11.26801 -11.26560
 Alpha  occ. eigenvalues --  -11.26422 -11.25803 -11.25447  -1.60626  -1.59146
 Alpha  occ. eigenvalues --   -1.40191  -1.38707  -1.19724  -1.18334  -1.09191
 Alpha  occ. eigenvalues --   -1.07794  -1.05068  -1.03652  -0.96087  -0.94671
 Alpha  occ. eigenvalues --   -0.86486  -0.85082  -0.82938  -0.81482  -0.78015
 Alpha  occ. eigenvalues --   -0.76555  -0.72839  -0.71911  -0.71335  -0.70830
 Alpha  occ. eigenvalues --   -0.70465  -0.69452  -0.65383  -0.65068  -0.63968
 Alpha  occ. eigenvalues --   -0.63622  -0.62416  -0.60964  -0.55591  -0.54216
 Alpha  occ. eigenvalues --   -0.53420  -0.53155  -0.52059  -0.51710  -0.49589
 Alpha  occ. eigenvalues --   -0.49546  -0.48099  -0.48062  -0.45671  -0.44172
 Alpha  occ. eigenvalues --   -0.37686  -0.36653  -0.36349  -0.35256
 Alpha virt. eigenvalues --    0.04484   0.05906   0.11006   0.12375   0.16045
 Alpha virt. eigenvalues --    0.17465   0.21117   0.22603   0.27077   0.27667
 Alpha virt. eigenvalues --    0.28797   0.29324   0.30849   0.32146   0.32252

 Mulliken charges:
               1
     1  C   -0.172280
     2  C   -0.219084
     3  C   -0.173438
     4  C    0.157657
     5  C   -0.174738
     6  C   -0.224139
     7  H    0.223452
     8  H    0.219155
     9  H    0.271381
    10  H    0.282855
    11  H    0.244667
    12  N    0.488182
    13  O   -0.463384
    14  O   -0.464049
    15  C   -0.169579
    16  C   -0.218585
    17  C   -0.169798
    18  C    0.157157
    19  C   -0.170382
    20  C   -0.218726
    21  H    0.227667
    22  H    0.227077
    23  H    0.277639
    24  H    0.275462
    25  H    0.224670
    26  N    0.492587
    27  O   -0.458077
    28  O   -0.473348
 Sum of Mulliken charges =  -0.00000

 Dipole moment (field-independent basis, Debye):
    X=              4.6494    Y=             -1.7854    Z=              2.1449  Tot=              5.4226
 Quadrupole moment (field-independent basis, Debye-Ang):
   XX=            -72.8287   YY=           -109.3084   ZZ=           -105.6124
   XY=             28.2016   XZ=             -3.3956   YZ=              2.0000

 Normal termination of Gaussian 16 at Thu May  6 00:07:18 2021.
