 Gaussian 16, Revision A.03,
 Gaussian 16:  EM64L-G16RevA.03 25-Dec-2016

 -------------
 #p 6-31g* mp2
 -------------

 ------------------------------------------------------
 Input file generated by CHIRIPA (05-May-2021 14:57:25)
 ------------------------------------------------------
 Symbolic Z-matrix:
 Charge =  0 Multiplicity = 1

                         Standard orientation:
 ---------------------------------------------------------------------
 Center     Atomic      Atomic             Coordinates (Angstroms)
 Number     Number       Type             X           Y           Z
 ---------------------------------------------------------------------
      1          6           0       -2.060102   -2.380878    0.953626
      2          6           0       -1.338610   -1.719888   -0.045905
      3          6           0       -1.780732   -0.491646   -0.546402
      4          6           0       -2.953758    0.049221   -0.022224
      5          6           0       -3.694651   -0.585001    0.973832
      6          6           0       -3.233751   -1.812328    1.459413
      7          1           0       -1.709357   -3.334651    1.336631
      8          1           0       -0.426798   -2.159065   -0.440578
      9          1           0       -1.241636    0.041546   -1.320030
     10          1           0       -4.599994   -0.122265    1.347527
     11          1           0       -3.796110   -2.323411    2.235681
     12          7           0       -3.431752    1.349022   -0.544183
     13          8           0       -4.468227    1.804467   -0.065720
     14          8           0       -2.760879    1.887747   -1.421873
     15          6           0        3.083425    2.295283    1.272004
     16          6           0        2.419746    2.303218    0.040749
     17          6           0        2.298247    1.128796   -0.707929
     18          6           0        2.854827   -0.040946   -0.192941
     19          6           0        3.521947   -0.080990    1.030429
     20          6           0        3.631441    1.105302    1.762051
     21          1           0        3.173146    3.212212    1.846971
     22          1           0        1.993173    3.225905   -0.342301
     23          1           0        1.789640    1.106581   -1.664089
     24          1           0        3.936868   -1.016232    1.386211
     25          1           0        4.147406    1.096167    2.717950
     26          7           0        2.732556   -1.290537   -0.976505
     27          8           0        3.231607   -2.308028   -0.500797
     28          8           0        2.139982   -1.228815   -2.051533
 ---------------------------------------------------------------------

 SCF Done:  E(RHF) =  -868.340132444     A.U. after   16 cycles
 E2 =    -0.2599444983D+01 EUMP2 =    -0.87093957742763D+03

 The electronic state is 1-A.
 Alpha  occ. eigenvalues --  -20.61611 -20.61598 -20.60724 -20.60708 -15.86622
 Alpha  occ. eigenvalues --  -15.85763 -11.31665 -11.30947 -11.28194 -11.28162
 Alpha  occ. eigenvalues --  -11.27830 -11.27514 -11.27440 -11.27156 -11.27135
 Alpha  occ. eigenvalues --  -11.27058 -11.26498 -11.26322  -1.60689  -1.59796
 Alpha  occ. eigenvalues --   -1.40243  -1.39355  -1.19796  -1.19090  -1.09250
 Alpha  occ. eigenvalues --   -1.08515  -1.05137  -1.04449  -0.96137  -0.95384
 Alpha  occ. eigenvalues --   -0.86554  -0.85857  -0.82971  -0.82212  -0.78067
 Alpha  occ. eigenvalues --   -0.77290  -0.72831  -0.72021  -0.71987  -0.71116
 Alpha  occ. eigenvalues --   -0.70890  -0.70188  -0.65441  -0.65121  -0.64731
 Alpha  occ. eigenvalues --   -0.64418  -0.62489  -0.61780  -0.55638  -0.54949
 Alpha  occ. eigenvalues --   -0.53500  -0.53214  -0.52806  -0.52511  -0.49617
 Alpha  occ. eigenvalues --   -0.49567  -0.48752  -0.48723  -0.45706  -0.44802
 Alpha  occ. eigenvalues --   -0.37760  -0.37067  -0.36732  -0.36037
 Alpha virt. eigenvalues --    0.04385   0.05209   0.10874   0.11609   0.15980
 Alpha virt. eigenvalues --    0.16755   0.20727   0.21905   0.25988   0.27382
 Alpha virt. eigenvalues --    0.28154   0.28967   0.30969   0.30972   0.31798

 Mulliken charges:
               1
     1  C   -0.171367
     2  C   -0.225890
     3  C   -0.172910
     4  C    0.158329
     5  C   -0.172229
     6  C   -0.218809
     7  H    0.227621
     8  H    0.238381
     9  H    0.274942
    10  H    0.273773
    11  H    0.222130
    12  N    0.488183
    13  O   -0.461214
    14  O   -0.464212
    15  C   -0.169771
    16  C   -0.217338
    17  C   -0.174267
    18  C    0.156705
    19  C   -0.171470
    20  C   -0.218224
    21  H    0.228745
    22  H    0.230956
    23  H    0.276916
    24  H    0.274666
    25  H    0.224667
    26  N    0.485353
    27  O   -0.459343
    28  O   -0.464323
 Sum of Mulliken charges =  -0.00000

 Dipole moment (field-independent basis, Debye):
    X=              2.3422    Y=             -0.1001    Z=              4.6661  Tot=              5.2219
 Quadrupole moment (field-independent basis, Debye-Ang):
   XX=           -109.0877   YY=           -104.9398   ZZ=           -102.3728
   XY=             25.7009   XZ=              1.8628   YZ=             -2.8291

 Normal termination of Gaussian 16 at Thu May  6 00:23:43 2021.
