 Gaussian 16, Revision A.03,
 Gaussian 16:  EM64L-G16RevA.03 25-Dec-2016

 -------------
 #p 6-31g* mp2
 -------------

 ------------------------------------------------------
 Input file generated by CHIRIPA (05-May-2021 14:55:23)
 ------------------------------------------------------
 Symbolic Z-matrix:
 Charge =  0 Multiplicity = 1

                         Standard orientation:
 ---------------------------------------------------------------------
 Center     Atomic      Atomic             Coordinates (Angstroms)
 Number     Number       Type             X           Y           Z
 ---------------------------------------------------------------------
      1          6           0        3.609240   -2.144387    0.233175
      2          6           0        2.525232   -1.747089   -0.556511
      3          6           0        2.216563   -0.392057   -0.708699
      4          6           0        3.016624    0.543110   -0.053982
      5          6           0        4.103248    0.178721    0.739592
      6          6           0        4.393405   -1.181910    0.877570
      7          1           0        3.841831   -3.199183    0.345879
      8          1           0        1.914502   -2.492362   -1.058130
      9          1           0        1.383185   -0.056733   -1.314056
     10          1           0        4.693754    0.944814    1.227263
     11          1           0        5.235870   -1.487548    1.491478
     12          7           0        2.699648    1.980585   -0.207575
     13          8           0        3.419952    2.784909    0.379674
     14          8           0        1.736900    2.275735   -0.912301
     15          6           0       -3.183851   -0.418293   -0.132892
     16          6           0       -2.588156   -1.822856   -0.031225
     17          6           0       -1.098410   -1.859350   -0.373452
     18          1           0       -3.030520   -0.034683   -1.150870
     19          1           0       -2.635365    0.254686    0.540650
     20          1           0       -3.138498   -2.493288   -0.703728
     21          1           0       -2.743092   -2.203241    0.986575
     22          1           0       -0.531450   -1.213221    0.304540
     23          1           0       -0.929102   -1.504915   -1.395368
     24          1           0       -0.693032   -2.872894   -0.294362
     25          6           0       -4.672444   -0.365570    0.206282
     26          6           0       -5.268138    1.038993    0.104614
     27          6           0       -6.757884    1.075487    0.446842
     28          1           0       -5.220929   -1.038548   -0.467261
     29          1           0       -4.825774   -0.749179    1.224259
     30          1           0       -5.113203    1.419379   -0.913186
     31          1           0       -4.717797    1.709426    0.777118
     32          1           0       -6.927193    0.721053    1.468758
     33          1           0       -7.324845    0.429358   -0.231150
     34          1           0       -7.163263    2.089032    0.367752
 ---------------------------------------------------------------------

 SCF Done:  E(RHF) =  -669.534876283     A.U. after   15 cycles
 E2 =    -0.2092209137D+01 EUMP2 =    -0.67162708541921D+03

 The electronic state is 1-A.
 Alpha  occ. eigenvalues --  -20.60718 -20.60713 -15.85769 -11.31104 -11.27678
 Alpha  occ. eigenvalues --  -11.27624 -11.27409 -11.26697 -11.26633 -11.21955
 Alpha  occ. eigenvalues --  -11.21740 -11.21528 -11.21490 -11.21402 -11.21000
 Alpha  occ. eigenvalues --   -1.59794  -1.39348  -1.19281  -1.08682  -1.08558
 Alpha  occ. eigenvalues --   -1.04684  -1.03720  -0.96211  -0.95517  -0.87252
 Alpha  occ. eigenvalues --   -0.86073  -0.82351  -0.79814  -0.78328  -0.77378
 Alpha  occ. eigenvalues --   -0.71988  -0.71119  -0.70390  -0.65183  -0.64929
 Alpha  occ. eigenvalues --   -0.64688  -0.62034  -0.61122  -0.59594  -0.57789
 Alpha  occ. eigenvalues --   -0.55502  -0.55186  -0.53205  -0.53015  -0.52633
 Alpha  occ. eigenvalues --   -0.52466  -0.50142  -0.48745  -0.48744  -0.48099
 Alpha  occ. eigenvalues --   -0.46803  -0.45881  -0.45773  -0.44758  -0.43960
 Alpha  occ. eigenvalues --   -0.37271  -0.36216
 Alpha virt. eigenvalues --    0.05111   0.11340   0.16561   0.20688   0.22802
 Alpha virt. eigenvalues --    0.24055   0.25787   0.26687   0.27105   0.28108
 Alpha virt. eigenvalues --    0.29297   0.29878   0.31290   0.31654   0.32487

 Mulliken charges:
               1
     1  C   -0.171982
     2  C   -0.216932
     3  C   -0.171753
     4  C    0.157261
     5  C   -0.171461
     6  C   -0.218707
     7  H    0.225086
     8  H    0.226451
     9  H    0.277985
    10  H    0.275136
    11  H    0.222971
    12  N    0.488168
    13  O   -0.460787
    14  O   -0.460657
    15  C   -0.299759
    16  C   -0.300196
    17  C   -0.481628
    18  H    0.151586
    19  H    0.153943
    20  H    0.152088
    21  H    0.153381
    22  H    0.163437
    23  H    0.150315
    24  H    0.154117
    25  C   -0.298669
    26  C   -0.300170
    27  C   -0.475905
    28  H    0.148778
    29  H    0.149314
    30  H    0.153468
    31  H    0.154491
    32  H    0.154751
    33  H    0.154473
    34  H    0.161406
 Sum of Mulliken charges =  -0.00000

 Dipole moment (field-independent basis, Debye):
    X=              1.0038    Y=             -5.0142    Z=              0.5738  Tot=              5.1458
 Quadrupole moment (field-independent basis, Debye-Ang):
   XX=            -86.3650   YY=           -100.8201   ZZ=            -92.7558
   XY=            -13.8048   XZ=              4.6552   YZ=              1.4267

 Normal termination of Gaussian 16 at Thu May  6 14:16:56 2021.
