 Gaussian 16, Revision A.03,
 Gaussian 16:  EM64L-G16RevA.03 25-Dec-2016

 -------------
 #p 6-31g* mp2
 -------------

 ------------------------------------------------------
 Input file generated by CHIRIPA (05-May-2021 14:57:24)
 ------------------------------------------------------
 Symbolic Z-matrix:
 Charge =  0 Multiplicity = 1

                         Standard orientation:
 ---------------------------------------------------------------------
 Center     Atomic      Atomic             Coordinates (Angstroms)
 Number     Number       Type             X           Y           Z
 ---------------------------------------------------------------------
      1          6           0        3.059218    1.551096    1.784825
      2          6           0        2.907379    0.218339    2.181339
      3          6           0        2.574815   -0.766949    1.246909
      4          6           0        2.400702   -0.382495   -0.081687
      5          6           0        2.545018    0.936959   -0.507720
      6          6           0        2.877873    1.905528    0.443925
      7          1           0        3.317675    2.309998    2.517400
      8          1           0        3.047606   -0.059815    3.222017
      9          1           0        2.451120   -1.806142    1.526544
     10          1           0        2.398833    1.183708   -1.552308
     11          1           0        2.995150    2.939788    0.133123
     12          7           0        2.048477   -1.416725   -1.080039
     13          8           0        1.900484   -1.052247   -2.244466
     14          8           0        1.927066   -2.572250   -0.679216
     15          6           0       -1.592838    2.010774   -1.625797
     16          6           0       -2.276679    2.360783   -0.456875
     17          6           0       -2.760864    1.372545    0.405387
     18          6           0       -2.542466    0.038146    0.066313
     19          6           0       -1.864870   -0.342377   -1.090992
     20          6           0       -1.389476    0.662688   -1.938573
     21          1           0       -1.220127    2.784996   -2.289922
     22          1           0       -2.436073    3.406916   -0.211431
     23          1           0       -3.293561    1.615451    1.316787
     24          1           0       -1.721359   -1.393725   -1.308913
     25          1           0       -0.858741    0.387925   -2.845697
     26          7           0       -3.050398   -1.016964    0.971381
     27          8           0       -2.845003   -2.185385    0.650072
     28          8           0       -3.644291   -0.655557    1.984946
 ---------------------------------------------------------------------

 SCF Done:  E(RHF) =  -868.339111243     A.U. after   16 cycles
 E2 =    -0.2600784089D+01 EUMP2 =    -0.87093989533213D+03

 The electronic state is 1-A.
 Alpha  occ. eigenvalues --  -20.61306 -20.61221 -20.60520 -20.60487 -15.86291
 Alpha  occ. eigenvalues --  -15.85554 -11.31485 -11.30918 -11.28109 -11.27992
 Alpha  occ. eigenvalues --  -11.27768 -11.27519 -11.27340 -11.27241 -11.27072
 Alpha  occ. eigenvalues --  -11.26979 -11.26585 -11.26343  -1.60329  -1.59585
 Alpha  occ. eigenvalues --   -1.39888  -1.39135  -1.19650  -1.19080  -1.09078
 Alpha  occ. eigenvalues --   -1.08493  -1.05035  -1.04452  -0.95942  -0.95325
 Alpha  occ. eigenvalues --   -0.86443  -0.85858  -0.82786  -0.82129  -0.77854
 Alpha  occ. eigenvalues --   -0.77166  -0.72520  -0.71774  -0.71642  -0.70912
 Alpha  occ. eigenvalues --   -0.70771  -0.70202  -0.65315  -0.65048  -0.64721
 Alpha  occ. eigenvalues --   -0.64422  -0.62393  -0.61759  -0.55550  -0.55004
 Alpha  occ. eigenvalues --   -0.53399  -0.53137  -0.52786  -0.52512  -0.49290
 Alpha  occ. eigenvalues --   -0.49255  -0.48538  -0.48520  -0.45325  -0.44540
 Alpha  occ. eigenvalues --   -0.37633  -0.37161  -0.36577  -0.36022
 Alpha virt. eigenvalues --    0.04631   0.05328   0.10900   0.11692   0.16139
 Alpha virt. eigenvalues --    0.16830   0.20971   0.21867   0.26846   0.27475
 Alpha virt. eigenvalues --    0.28381   0.28634   0.30693   0.31371   0.32113

 Mulliken charges:
               1
     1  C   -0.170082
     2  C   -0.218237
     3  C   -0.169547
     4  C    0.158864
     5  C   -0.167924
     6  C   -0.218620
     7  H    0.226340
     8  H    0.226328
     9  H    0.279405
    10  H    0.269292
    11  H    0.221067
    12  N    0.487966
    13  O   -0.470359
    14  O   -0.453265
    15  C   -0.174845
    16  C   -0.218369
    17  C   -0.172664
    18  C    0.158808
    19  C   -0.178499
    20  C   -0.221492
    21  H    0.221867
    22  H    0.219852
    23  H    0.273255
    24  H    0.285186
    25  H    0.238510
    26  N    0.487295
    27  O   -0.456270
    28  O   -0.463861
 Sum of Mulliken charges =  -0.00000

 Dipole moment (field-independent basis, Debye):
    X=              3.1592    Y=              7.1109    Z=              0.3840  Tot=              7.7905
 Quadrupole moment (field-independent basis, Debye-Ang):
   XX=           -109.0733   YY=           -103.0946   ZZ=           -101.9468
   XY=             -2.4274   XZ=             16.1233   YZ=             -1.8416

 Normal termination of Gaussian 16 at Thu May  6 08:14:37 2021.
