 Gaussian 16, Revision A.03,
 Gaussian 16:  EM64L-G16RevA.03 25-Dec-2016

 -------------
 #p 6-31g* mp2
 -------------

 ------------------------------------------------------
 Input file generated by CHIRIPA (05-May-2021 14:51:13)
 ------------------------------------------------------
 Symbolic Z-matrix:
 Charge =  0 Multiplicity = 1

                         Standard orientation:
 ---------------------------------------------------------------------
 Center     Atomic      Atomic             Coordinates (Angstroms)
 Number     Number       Type             X           Y           Z
 ---------------------------------------------------------------------
      1          6           0       -3.499433   -0.765239   -0.151696
      2          6           0       -2.094725   -1.364540   -0.076743
      3          6           0       -2.086893   -2.879895   -0.280286
      4          1           0       -4.135450   -1.241806    0.606797
      5          1           0       -3.942193   -1.007315   -1.127789
      6          1           0       -1.654216   -1.120226    0.898387
      7          1           0       -1.461927   -0.886354   -0.835375
      8          1           0       -2.501820   -3.139189   -1.259675
      9          1           0       -2.695202   -3.374390    0.483937
     10          1           0       -1.072768   -3.287453   -0.222787
     11          6           0       -3.523651    0.748867    0.049860
     12          6           0       -4.928359    1.348168   -0.025092
     13          6           0       -4.936191    2.863524    0.178450
     14          1           0       -3.080891    0.990943    1.025953
     15          1           0       -2.887634    1.225435   -0.708632
     16          1           0       -5.561157    0.869982    0.733539
     17          1           0       -5.368868    1.103854   -1.000222
     18          1           0       -4.327883    3.358018   -0.585773
     19          1           0       -4.521264    3.122817    1.157839
     20          1           0       -5.950317    3.271081    0.120952
     21          6           0        3.494317   -0.750764   -0.033519
     22          6           0        2.162155   -1.376845    0.380429
     23          6           0        2.143182   -2.895701    0.205763
     24          1           0        3.700556   -1.003236   -1.082646
     25          1           0        4.302584   -1.199226    0.560604
     26          1           0        1.356477   -0.926343   -0.213328
     27          1           0        1.958971   -1.122693    1.428637
     28          1           0        2.926790   -3.362894    0.810982
     29          1           0        2.320873   -3.165429   -0.840313
     30          1           0        1.181623   -3.322537    0.507550
     31          6           0        3.528767    0.767137    0.135354
     32          6           0        4.860930    1.393216   -0.278594
     33          6           0        4.879903    2.912073   -0.103927
     34          1           0        2.720501    1.215598   -0.458769
     35          1           0        3.322528    1.019609    1.184482
     36          1           0        5.064114    1.139064   -1.326801
     37          1           0        5.666607    0.942714    0.315164
     38          1           0        4.702212    3.181801    0.942148
     39          1           0        4.096294    3.379265   -0.709146
     40          1           0        5.841462    3.338908   -0.405715
 ---------------------------------------------------------------------

 SCF Done:  E(RHF) =  -470.733157880     A.U. after   11 cycles
 E2 =    -0.1582921569D+01 EUMP2 =    -0.47231607944930D+03

 The electronic state is 1-A.
 Alpha  occ. eigenvalues --  -11.21601 -11.21596 -11.21595 -11.21572 -11.21402
 Alpha  occ. eigenvalues --  -11.21395 -11.21343 -11.21335 -11.21071 -11.21068
 Alpha  occ. eigenvalues --  -11.21067 -11.21040  -1.08438  -1.08410  -1.03562
 Alpha  occ. eigenvalues --   -1.03486  -0.96027  -0.95927  -0.87049  -0.86939
 Alpha  occ. eigenvalues --   -0.79662  -0.79512  -0.78282  -0.78183  -0.65076
 Alpha  occ. eigenvalues --   -0.65034  -0.60965  -0.60887  -0.59701  -0.59097
 Alpha  occ. eigenvalues --   -0.57806  -0.57312  -0.55274  -0.55243  -0.52949
 Alpha  occ. eigenvalues --   -0.52530  -0.52470  -0.52165  -0.49932  -0.49899
 Alpha  occ. eigenvalues --   -0.48098  -0.47727  -0.46686  -0.46556  -0.45879
 Alpha  occ. eigenvalues --   -0.45751  -0.45697  -0.45596  -0.43921  -0.43615
 Alpha virt. eigenvalues --    0.21054   0.23098   0.23339   0.25287   0.25816
 Alpha virt. eigenvalues --    0.26687   0.26914   0.27013   0.28188   0.29045
 Alpha virt. eigenvalues --    0.30159   0.30667   0.31316   0.31702   0.32467

 Mulliken charges:
               1
     1  C   -0.298430
     2  C   -0.300155
     3  C   -0.482727
     4  H    0.149685
     5  H    0.149451
     6  H    0.153093
     7  H    0.152173
     8  H    0.155143
     9  H    0.154978
    10  H    0.166721
    11  C   -0.298203
    12  C   -0.299643
    13  C   -0.475691
    14  H    0.149697
    15  H    0.149372
    16  H    0.151961
    17  H    0.151888
    18  H    0.155124
    19  H    0.155231
    20  H    0.160247
    21  C   -0.298406
    22  C   -0.302483
    23  C   -0.480645
    24  H    0.149474
    25  H    0.149473
    26  H    0.156263
    27  H    0.151587
    28  H    0.155358
    29  H    0.155037
    30  H    0.164432
    31  C   -0.298180
    32  C   -0.299642
    33  C   -0.475686
    34  H    0.149493
    35  H    0.149650
    36  H    0.151873
    37  H    0.151921
    38  H    0.155187
    39  H    0.155162
    40  H    0.160219
 Sum of Mulliken charges =  -0.00000

 Dipole moment (field-independent basis, Debye):
    X=             -0.0001    Y=              0.0018    Z=              0.0046  Tot=              0.0049
 Quadrupole moment (field-independent basis, Debye-Ang):
   XX=            -84.8145   YY=            -87.1979   ZZ=            -82.8369
   XY=             -0.0296   XZ=              0.2226   YZ=             -0.4724

 Normal termination of Gaussian 16 at Wed May  5 16:52:47 2021.
