 Gaussian 16, Revision A.03,
 Gaussian 16:  EM64L-G16RevA.03 25-Dec-2016

 -------------
 #p 6-31g* mp2
 -------------

 ------------------------------------------------------
 Input file generated by CHIRIPA (05-May-2021 14:51:08)
 ------------------------------------------------------
 Symbolic Z-matrix:
 Charge =  0 Multiplicity = 1

                         Standard orientation:
 ---------------------------------------------------------------------
 Center     Atomic      Atomic             Coordinates (Angstroms)
 Number     Number       Type             X           Y           Z
 ---------------------------------------------------------------------
      1          6           0       -3.418523   -0.024203    0.351570
      2          6           0       -4.370196   -0.894072   -0.470397
      3          6           0       -4.748165   -2.192995    0.242157
      4          1           0       -2.509422   -0.598385    0.576952
      5          1           0       -3.888076    0.209421    1.317145
      6          1           0       -3.899556   -1.124837   -1.434691
      7          1           0       -5.277055   -0.317687   -0.694011
      8          1           0       -5.240903   -1.979689    1.196259
      9          1           0       -3.855577   -2.791425    0.451371
     10          1           0       -5.429035   -2.799508   -0.363168
     11          6           0       -3.031484    1.277814   -0.347487
     12          6           0       -2.079811    2.147682    0.474481
     13          6           0       -1.701842    3.446605   -0.238073
     14          1           0       -2.561931    1.044189   -1.313062
     15          1           0       -3.940584    1.851995   -0.572868
     16          1           0       -1.172951    1.571298    0.698095
     17          1           0       -2.550450    2.378448    1.438774
     18          1           0       -2.594429    4.045035   -0.447287
     19          1           0       -1.209104    3.233299   -1.192175
     20          1           0       -1.020972    4.053118    0.367252
     21          6           0        2.499579   -0.643345    0.236534
     22          6           0        1.687354   -1.787469   -0.371131
     23          6           0        0.238107   -1.807278    0.115781
     24          1           0        2.480326   -0.729717    1.331575
     25          1           0        2.015806    0.311890   -0.010214
     26          1           0        2.173276   -2.740180   -0.124479
     27          1           0        1.708703   -1.698473   -1.464859
     28          1           0       -0.268355   -0.872043   -0.143900
     29          1           0        0.198859   -1.919669    1.204096
     30          1           0       -0.324289   -2.633052   -0.331062
     31          6           0        3.950428   -0.610264   -0.240618
     32          6           0        4.762653    0.533859    0.367047
     33          6           0        6.211900    0.553667   -0.119865
     34          1           0        4.434200   -1.565499    0.006131
     35          1           0        3.969681   -0.523893   -1.335659
     36          1           0        4.741304    0.444863    1.460775
     37          1           0        4.276730    1.486569    0.120395
     38          1           0        6.251148    0.666058   -1.208180
     39          1           0        6.718361   -0.381568    0.139815
     40          1           0        6.774295    1.379441    0.326978
 ---------------------------------------------------------------------

 SCF Done:  E(RHF) =  -470.732986026     A.U. after   11 cycles
 E2 =    -0.1583423673D+01 EUMP2 =    -0.47231640969889D+03

 The electronic state is 1-A.
 Alpha  occ. eigenvalues --  -11.21682 -11.21632 -11.21587 -11.21524 -11.21464
 Alpha  occ. eigenvalues --  -11.21400 -11.21348 -11.21220 -11.21181 -11.21094
 Alpha  occ. eigenvalues --  -11.21074 -11.21007  -1.08492  -1.08373  -1.03595
 Alpha  occ. eigenvalues --   -1.03486  -0.96062  -0.95924  -0.87080  -0.86945
 Alpha  occ. eigenvalues --   -0.79678  -0.79546  -0.78327  -0.78149  -0.65197
 Alpha  occ. eigenvalues --   -0.64965  -0.60992  -0.60887  -0.59419  -0.59292
 Alpha  occ. eigenvalues --   -0.57687  -0.57523  -0.55442  -0.55133  -0.52756
 Alpha  occ. eigenvalues --   -0.52645  -0.52500  -0.52321  -0.50012  -0.49862
 Alpha  occ. eigenvalues --   -0.48022  -0.47868  -0.46735  -0.46587  -0.45988
 Alpha  occ. eigenvalues --   -0.45780  -0.45695  -0.45340  -0.43838  -0.43730
 Alpha virt. eigenvalues --    0.20478   0.22953   0.23720   0.24644   0.25757
 Alpha virt. eigenvalues --    0.26719   0.27192   0.27530   0.27583   0.29619
 Alpha virt. eigenvalues --    0.30112   0.31345   0.31768   0.31889   0.32082

 Mulliken charges:
               1
     1  C   -0.306990
     2  C   -0.298894
     3  C   -0.476043
     4  H    0.161057
     5  H    0.148831
     6  H    0.151460
     7  H    0.151407
     8  H    0.154982
     9  H    0.155669
    10  H    0.159791
    11  C   -0.298349
    12  C   -0.303035
    13  C   -0.475493
    14  H    0.148586
    15  H    0.149734
    16  H    0.153921
    17  H    0.152353
    18  H    0.155386
    19  H    0.154488
    20  H    0.160232
    21  C   -0.298984
    22  C   -0.300324
    23  C   -0.481548
    24  H    0.149947
    25  H    0.149721
    26  H    0.152367
    27  H    0.152083
    28  H    0.160383
    29  H    0.155988
    30  H    0.160554
    31  C   -0.298321
    32  C   -0.299749
    33  C   -0.475751
    34  H    0.149742
    35  H    0.149741
    36  H    0.152044
    37  H    0.152147
    38  H    0.155234
    39  H    0.155219
    40  H    0.160414
 Sum of Mulliken charges =  -0.00000

 Dipole moment (field-independent basis, Debye):
    X=              0.0471    Y=             -0.0219    Z=              0.0172  Tot=              0.0547
 Quadrupole moment (field-independent basis, Debye-Ang):
   XX=            -85.4817   YY=            -85.2064   ZZ=            -84.2095
   XY=             -1.0654   XZ=              0.2539   YZ=              0.1407

 Normal termination of Gaussian 16 at Thu May  6 06:52:17 2021.
