 Gaussian 16, Revision A.03,
 Gaussian 16:  EM64L-G16RevA.03 25-Dec-2016

 -------------
 #p 6-31g* mp2
 -------------

 ------------------------------------------------------
 Input file generated by CHIRIPA (05-May-2021 14:51:13)
 ------------------------------------------------------
 Symbolic Z-matrix:
 Charge =  0 Multiplicity = 1

                         Standard orientation:
 ---------------------------------------------------------------------
 Center     Atomic      Atomic             Coordinates (Angstroms)
 Number     Number       Type             X           Y           Z
 ---------------------------------------------------------------------
      1          6           0        3.616448    0.869060   -0.077516
      2          6           0        2.877262    2.175110    0.215442
      3          6           0        3.821706    3.368218    0.364814
      4          1           0        4.333689    0.671802    0.730940
      5          1           0        4.206558    0.988095   -0.996752
      6          1           0        2.287634    2.053199    1.133098
      7          1           0        2.161562    2.369183   -0.593708
      8          1           0        4.400916    3.518197   -0.552041
      9          1           0        4.527704    3.200417    1.184576
     10          1           0        3.272303    4.291427    0.573861
     11          6           0        2.685797   -0.332820   -0.229499
     12          6           0        3.424982   -1.638870   -0.522457
     13          6           0        2.480538   -2.831978   -0.671829
     14          1           0        2.095686   -0.451855    0.689737
     15          1           0        1.968556   -0.135562   -1.037955
     16          1           0        4.140682   -1.832943    0.286694
     17          1           0        4.014611   -1.516959   -1.440113
     18          1           0        1.774540   -2.664178   -1.491591
     19          1           0        1.901328   -2.981957    0.245027
     20          1           0        3.029942   -3.755188   -0.880876
     21          6           0       -2.733680   -0.883600   -0.020730
     22          6           0       -1.782787   -1.308138    1.098893
     23          6           0       -0.954509   -2.540851    0.735344
     24          1           0       -3.404335   -1.720090   -0.260419
     25          1           0       -2.150889   -0.679876   -0.929710
     26          1           0       -2.367062   -1.509665    2.005881
     27          1           0       -1.114445   -0.470476    1.336077
     28          1           0       -0.347027   -2.347978   -0.154805
     29          1           0       -1.606761   -3.393071    0.518804
     30          1           0       -0.281680   -2.826916    1.549793
     31          6           0       -3.568564    0.347360    0.327744
     32          6           0       -4.519457    0.771899   -0.791879
     33          6           0       -5.347735    2.004611   -0.428329
     34          1           0       -4.151355    0.143636    1.236726
     35          1           0       -2.897910    1.183850    0.567434
     36          1           0       -5.187799   -0.065765   -1.029062
     37          1           0       -3.935183    0.973424   -1.698866
     38          1           0       -4.695484    2.856832   -0.211789
     39          1           0       -5.955217    1.811737    0.461821
     40          1           0       -6.020565    2.290677   -1.242778
 ---------------------------------------------------------------------

 SCF Done:  E(RHF) =  -470.731788886     A.U. after   11 cycles
 E2 =    -0.1583723502D+01 EUMP2 =    -0.47231551238781D+03

 The electronic state is 1-A.
 Alpha  occ. eigenvalues --  -11.21638 -11.21584 -11.21583 -11.21534 -11.21432
 Alpha  occ. eigenvalues --  -11.21373 -11.21373 -11.21313 -11.21098 -11.21057
 Alpha  occ. eigenvalues --  -11.20945 -11.20917  -1.08455  -1.08386  -1.03570
 Alpha  occ. eigenvalues --   -1.03453  -0.96050  -0.95876  -0.87116  -0.86854
 Alpha  occ. eigenvalues --   -0.79723  -0.79444  -0.78277  -0.78192  -0.65096
 Alpha  occ. eigenvalues --   -0.65011  -0.60997  -0.60865  -0.59378  -0.59288
 Alpha  occ. eigenvalues --   -0.57684  -0.57510  -0.55325  -0.55186  -0.52816
 Alpha  occ. eigenvalues --   -0.52663  -0.52473  -0.52164  -0.49983  -0.49817
 Alpha  occ. eigenvalues --   -0.48034  -0.47715  -0.46644  -0.46518  -0.45870
 Alpha  occ. eigenvalues --   -0.45753  -0.45666  -0.45546  -0.43790  -0.43719
 Alpha virt. eigenvalues --    0.21270   0.23259   0.23563   0.24888   0.25686
 Alpha virt. eigenvalues --    0.26302   0.26934   0.27668   0.28295   0.29161
 Alpha virt. eigenvalues --    0.29604   0.31265   0.31623   0.31861   0.32472

 Mulliken charges:
               1
     1  C   -0.298169
     2  C   -0.299644
     3  C   -0.475697
     4  H    0.149851
     5  H    0.149726
     6  H    0.151684
     7  H    0.151585
     8  H    0.155289
     9  H    0.155327
    10  H    0.160267
    11  C   -0.300274
    12  C   -0.299253
    13  C   -0.480826
    14  H    0.151396
    15  H    0.148549
    16  H    0.151669
    17  H    0.151507
    18  H    0.153635
    19  H    0.164205
    20  H    0.159659
    21  C   -0.298357
    22  C   -0.300377
    23  C   -0.480437
    24  H    0.149553
    25  H    0.149284
    26  H    0.151165
    27  H    0.152248
    28  H    0.164689
    29  H    0.154245
    30  H    0.157758
    31  C   -0.298333
    32  C   -0.299592
    33  C   -0.475686
    34  H    0.149448
    35  H    0.149796
    36  H    0.151889
    37  H    0.151744
    38  H    0.155165
    39  H    0.155159
    40  H    0.160153
 Sum of Mulliken charges =  -0.00000

 Dipole moment (field-independent basis, Debye):
    X=              0.0222    Y=             -0.0179    Z=             -0.0011  Tot=              0.0286
 Quadrupole moment (field-independent basis, Debye-Ang):
   XX=            -85.1330   YY=            -86.0622   ZZ=            -83.7104
   XY=              0.4892   XZ=             -0.1193   YZ=             -0.6548

 Normal termination of Gaussian 16 at Thu May  6 05:32:24 2021.
