 Gaussian 16, Revision A.03,
 Gaussian 16:  EM64L-G16RevA.03 25-Dec-2016

 -------------
 #p 6-31g* mp2
 -------------

 ------------------------------------------------------
 Input file generated by CHIRIPA (05-May-2021 14:55:21)
 ------------------------------------------------------
 Symbolic Z-matrix:
 Charge =  0 Multiplicity = 1

                         Standard orientation:
 ---------------------------------------------------------------------
 Center     Atomic      Atomic             Coordinates (Angstroms)
 Number     Number       Type             X           Y           Z
 ---------------------------------------------------------------------
      1          6           0       -4.087094    2.267674   -0.464474
      2          6           0       -4.077635    1.210799   -1.380688
      3          6           0       -3.433060    0.009236   -1.071954
      4          6           0       -2.805140   -0.101555    0.167696
      5          6           0       -2.797116    0.933310    1.101656
      6          6           0       -3.447931    2.125806    0.771594
      7          1           0       -4.590238    3.197555   -0.712591
      8          1           0       -4.573195    1.318149   -2.341386
      9          1           0       -3.410343   -0.824955   -1.762625
     10          1           0       -2.294450    0.796519    2.051410
     11          1           0       -3.453662    2.944913    1.485090
     12          7           0       -2.119455   -1.368797    0.505829
     13          8           0       -1.573573   -1.441262    1.604646
     14          8           0       -2.140879   -2.265600   -0.334363
     15          6           0        3.543311   -0.850901   -0.336807
     16          6           0        2.079557   -1.184834   -0.047158
     17          6           0        1.710828   -2.615838   -0.439663
     18          1           0        3.742521   -1.002103   -1.406573
     19          1           0        4.187420   -1.557986    0.204073
     20          1           0        1.438423   -0.476468   -0.587326
     21          1           0        1.883760   -1.032636    1.022007
     22          1           0        2.325955   -3.336427    0.108945
     23          1           0        1.878088   -2.777099   -1.509532
     24          1           0        0.660061   -2.833189   -0.224008
     25          6           0        3.927150    0.576208    0.050170
     26          6           0        5.390905    0.910141   -0.239479
     27          6           0        5.759634    2.341145    0.153026
     28          1           0        3.283042    1.283293   -0.490711
     29          1           0        3.727940    0.727410    1.119935
     30          1           0        5.586702    0.757943   -1.308645
     31          1           0        6.032039    0.201775    0.300688
     32          1           0        5.592375    2.502407    1.222894
     33          1           0        5.144506    3.061734   -0.395582
     34          1           0        6.810402    2.558497   -0.062630
 ---------------------------------------------------------------------

 SCF Done:  E(RHF) =  -669.536779583     A.U. after   15 cycles
 E2 =    -0.2091696678D+01 EUMP2 =    -0.67162847626092D+03

 The electronic state is 1-A.
 Alpha  occ. eigenvalues --  -20.61023 -20.61018 -15.86024 -11.31319 -11.27874
 Alpha  occ. eigenvalues --  -11.27870 -11.27609 -11.26873 -11.26863 -11.21212
 Alpha  occ. eigenvalues --  -11.20869 -11.20801 -11.20637 -11.20547 -11.19553
 Alpha  occ. eigenvalues --   -1.60062  -1.39618  -1.19480  -1.08891  -1.07764
 Alpha  occ. eigenvalues --   -1.04871  -1.02762  -0.95739  -0.95192  -0.86273
 Alpha  occ. eigenvalues --   -0.86212  -0.82572  -0.78874  -0.77632  -0.77542
 Alpha  occ. eigenvalues --   -0.72236  -0.71374  -0.70589  -0.65135  -0.64874
 Alpha  occ. eigenvalues --   -0.64409  -0.62217  -0.60175  -0.58613  -0.56774
 Alpha  occ. eigenvalues --   -0.55376  -0.54511  -0.53206  -0.52962  -0.51841
 Alpha  occ. eigenvalues --   -0.51633  -0.49180  -0.49003  -0.48966  -0.47154
 Alpha  occ. eigenvalues --   -0.45945  -0.45173  -0.45027  -0.44908  -0.42966
 Alpha  occ. eigenvalues --   -0.37455  -0.36469
 Alpha virt. eigenvalues --    0.04857   0.11188   0.16353   0.21319   0.23455
 Alpha virt. eigenvalues --    0.25131   0.27228   0.27258   0.27992   0.28262
 Alpha virt. eigenvalues --    0.28867   0.30882   0.32068   0.32285   0.32491

 Mulliken charges:
               1
     1  C   -0.170428
     2  C   -0.218675
     3  C   -0.170731
     4  C    0.159745
     5  C   -0.170365
     6  C   -0.218662
     7  H    0.226115
     8  H    0.223913
     9  H    0.276010
    10  H    0.276040
    11  H    0.223989
    12  N    0.488632
    13  O   -0.459088
    14  O   -0.459815
    15  C   -0.297269
    16  C   -0.298987
    17  C   -0.486350
    18  H    0.147085
    19  H    0.148973
    20  H    0.142673
    21  H    0.157393
    22  H    0.150323
    23  H    0.147273
    24  H    0.188735
    25  C   -0.297252
    26  C   -0.298968
    27  C   -0.475173
    28  H    0.146232
    29  H    0.148855
    30  H    0.151040
    31  H    0.151997
    32  H    0.154432
    33  H    0.153296
    34  H    0.159013
 Sum of Mulliken charges =  -0.00000

 Dipole moment (field-independent basis, Debye):
    X=             -2.7355    Y=              4.3973    Z=             -1.1029  Tot=              5.2948
 Quadrupole moment (field-independent basis, Debye-Ang):
   XX=            -82.4180   YY=            -96.3566   ZZ=            -90.5779
   XY=            -12.5728   XZ=              4.7372   YZ=              2.1405

 Normal termination of Gaussian 16 at Wed May  5 20:36:31 2021.
