 Gaussian 16, Revision A.03,
 Gaussian 16:  EM64L-G16RevA.03 25-Dec-2016

 -------------
 #p 6-31g* mp2
 -------------

 ------------------------------------------------------
 Input file generated by CHIRIPA (05-May-2021 14:57:21)
 ------------------------------------------------------
 Symbolic Z-matrix:
 Charge =  0 Multiplicity = 1

                         Standard orientation:
 ---------------------------------------------------------------------
 Center     Atomic      Atomic             Coordinates (Angstroms)
 Number     Number       Type             X           Y           Z
 ---------------------------------------------------------------------
      1          6           0       -5.137954    1.098884   -0.456062
      2          6           0       -5.167328   -0.013322    0.391674
      3          6           0       -4.035446   -0.819538    0.544671
      4          6           0       -2.885921   -0.482859   -0.168441
      5          6           0       -2.825381    0.618682   -1.020633
      6          6           0       -3.969135    1.410786   -1.158272
      7          1           0       -6.021839    1.719690   -0.568948
      8          1           0       -6.073661   -0.257947    0.938267
      9          1           0       -4.030590   -1.686375    1.194278
     10          1           0       -1.907286    0.837272   -1.552365
     11          1           0       -3.943431    2.273931   -1.817335
     12          7           0       -1.681364   -1.328894   -0.014599
     13          8           0       -0.680972   -1.010950   -0.653945
     14          8           0       -1.760433   -2.293941    0.742415
     15          6           0        4.749182   -1.244528   -0.842060
     16          6           0        3.695191   -1.741835   -0.068555
     17          6           0        2.766919   -0.871269    0.510214
     18          6           0        2.923506    0.496939    0.293938
     19          6           0        3.962911    1.023050   -0.471657
     20          6           0        4.879448    0.133897   -1.040792
     21          1           0        5.465728   -1.928024   -1.287920
     22          1           0        3.591545   -2.811863    0.087472
     23          1           0        1.941501   -1.229240    1.113507
     24          1           0        4.040111    2.094727   -0.609383
     25          1           0        5.697000    0.522946   -1.641036
     26          7           0        1.946998    1.428407    0.901555
     27          8           0        2.107003    2.629563    0.695980
     28          8           0        1.040095    0.939699    1.571876
 ---------------------------------------------------------------------

 SCF Done:  E(RHF) =  -868.340095411     A.U. after   16 cycles
 E2 =    -0.2599465414D+01 EUMP2 =    -0.87093956082509D+03

 The electronic state is 1-A.
 Alpha  occ. eigenvalues --  -20.60556 -20.60525 -20.59942 -20.59896 -15.85564
 Alpha  occ. eigenvalues --  -15.84964 -11.30745 -11.30105 -11.27327 -11.27288
 Alpha  occ. eigenvalues --  -11.27058 -11.26805 -11.26557 -11.26516 -11.26323
 Alpha  occ. eigenvalues --  -11.26287 -11.25785 -11.25617  -1.59585  -1.58992
 Alpha  occ. eigenvalues --   -1.39150  -1.38549  -1.18909  -1.18306  -1.08348
 Alpha  occ. eigenvalues --   -1.07763  -1.04300  -1.03680  -0.95218  -0.94620
 Alpha  occ. eigenvalues --   -0.85711  -0.85099  -0.82067  -0.81464  -0.77122
 Alpha  occ. eigenvalues --   -0.76508  -0.71835  -0.71243  -0.70849  -0.70251
 Alpha  occ. eigenvalues --   -0.70049  -0.69452  -0.64585  -0.64326  -0.63979
 Alpha  occ. eigenvalues --   -0.63712  -0.61659  -0.61019  -0.54840  -0.54263
 Alpha  occ. eigenvalues --   -0.52620  -0.52409  -0.52028  -0.51788  -0.48571
 Alpha  occ. eigenvalues --   -0.48567  -0.47968  -0.47936  -0.44716  -0.43866
 Alpha  occ. eigenvalues --   -0.36882  -0.36321  -0.35884  -0.35247
 Alpha virt. eigenvalues --    0.05412   0.06032   0.11774   0.12395   0.16937
 Alpha virt. eigenvalues --    0.17516   0.21837   0.22420   0.27753   0.28343
 Alpha virt. eigenvalues --    0.28713   0.29344   0.31356   0.31915   0.32946

 Mulliken charges:
               1
     1  C   -0.170159
     2  C   -0.218668
     3  C   -0.170043
     4  C    0.161930
     5  C   -0.165563
     6  C   -0.218243
     7  H    0.224542
     8  H    0.221969
     9  H    0.273983
    10  H    0.275521
    11  H    0.223329
    12  N    0.493023
    13  O   -0.464677
    14  O   -0.465036
    15  C   -0.170627
    16  C   -0.220843
    17  C   -0.155310
    18  C    0.155554
    19  C   -0.172405
    20  C   -0.220285
    21  H    0.221867
    22  H    0.224018
    23  H    0.285924
    24  H    0.270728
    25  H    0.218512
    26  N    0.488920
    27  O   -0.468721
    28  O   -0.459236
 Sum of Mulliken charges =  -0.00000

 Dipole moment (field-independent basis, Debye):
    X=             -1.0556    Y=             -0.4366    Z=             -2.6130  Tot=              2.8517
 Quadrupole moment (field-independent basis, Debye-Ang):
   XX=            -60.1943   YY=           -107.3846   ZZ=           -104.3821
   XY=            -11.5941   XZ=             -5.8307   YZ=             -6.4563

 Normal termination of Gaussian 16 at Thu May  6 11:12:51 2021.
