 Gaussian 16, Revision A.03,
 Gaussian 16:  EM64L-G16RevA.03 25-Dec-2016

 -------------
 #p 6-31g* mp2
 -------------

 ------------------------------------------------------
 Input file generated by CHIRIPA (05-May-2021 14:57:21)
 ------------------------------------------------------
 Symbolic Z-matrix:
 Charge =  0 Multiplicity = 1

                         Standard orientation:
 ---------------------------------------------------------------------
 Center     Atomic      Atomic             Coordinates (Angstroms)
 Number     Number       Type             X           Y           Z
 ---------------------------------------------------------------------
      1          6           0        1.050192   -1.793699   -0.082906
      2          6           0        2.105377   -2.000793    0.811643
      3          6           0        3.233103   -1.174991    0.782790
      4          6           0        3.272582   -0.146994   -0.157930
      5          6           0        2.237411    0.084728   -1.062371
      6          6           0        1.119454   -0.753434   -1.015414
      7          1           0        0.177941   -2.440003   -0.053460
      8          1           0        2.054318   -2.807896    1.536917
      9          1           0        4.064230   -1.312912    1.463690
     10          1           0        2.317087    0.897519   -1.774018
     11          1           0        0.301476   -0.590254   -1.711351
     12          7           0        4.461284    0.733788   -0.198058
     13          8           0        4.471770    1.632506   -1.036410
     14          8           0        5.359996    0.508750    0.609601
     15          6           0       -2.533900    2.696107    0.692010
     16          6           0       -3.385527    2.393836   -0.375645
     17          6           0       -3.693214    1.065458   -0.684328
     18          6           0       -3.129143    0.059752    0.099044
     19          6           0       -2.277239    0.328873    1.169148
     20          6           0       -1.983444    1.664480    1.459646
     21          1           0       -2.300278    3.730830    0.924739
     22          1           0       -3.814465    3.192965   -0.973516
     23          1           0       -4.349507    0.803179   -1.505246
     24          1           0       -1.864893   -0.489307    1.747051
     25          1           0       -1.321745    1.896264    2.289389
     26          7           0       -3.447523   -1.350369   -0.218120
     27          8           0       -2.937709   -2.218187    0.487301
     28          8           0       -4.200856   -1.561102   -1.166127
 ---------------------------------------------------------------------

 SCF Done:  E(RHF) =  -868.339935419     A.U. after   16 cycles
 E2 =    -0.2599741456D+01 EUMP2 =    -0.87093967687541D+03

 The electronic state is 1-A.
 Alpha  occ. eigenvalues --  -20.61824 -20.61768 -20.60821 -20.60815 -15.86819
 Alpha  occ. eigenvalues --  -15.85872 -11.31941 -11.31151 -11.28478 -11.28464
 Alpha  occ. eigenvalues --  -11.28118 -11.27716 -11.27710 -11.27401 -11.27378
 Alpha  occ. eigenvalues --  -11.27258 -11.26656 -11.26642  -1.60865  -1.59901
 Alpha  occ. eigenvalues --   -1.40424  -1.39456  -1.20083  -1.19304  -1.09513
 Alpha  occ. eigenvalues --   -1.08683  -1.05432  -1.04695  -0.96388  -0.95533
 Alpha  occ. eigenvalues --   -0.86841  -0.86077  -0.83222  -0.82373  -0.78312
 Alpha  occ. eigenvalues --   -0.77466  -0.73035  -0.72200  -0.72085  -0.71228
 Alpha  occ. eigenvalues --   -0.71158  -0.70290  -0.65721  -0.65411  -0.64933
 Alpha  occ. eigenvalues --   -0.64674  -0.62780  -0.62046  -0.55914  -0.55056
 Alpha  occ. eigenvalues --   -0.53815  -0.53509  -0.53010  -0.52760  -0.49809
 Alpha  occ. eigenvalues --   -0.49765  -0.48851  -0.48837  -0.45866  -0.44881
 Alpha  occ. eigenvalues --   -0.38060  -0.37370  -0.36915  -0.36284
 Alpha virt. eigenvalues --    0.04147   0.05067   0.10547   0.11404   0.15684
 Alpha virt. eigenvalues --    0.16563   0.20795   0.21666   0.26704   0.27334
 Alpha virt. eigenvalues --    0.27485   0.28674   0.30500   0.31163   0.32415

 Mulliken charges:
               1
     1  C   -0.181233
     2  C   -0.221939
     3  C   -0.172222
     4  C    0.156972
     5  C   -0.172536
     6  C   -0.219699
     7  H    0.244618
     8  H    0.225256
     9  H    0.274714
    10  H    0.273830
    11  H    0.224183
    12  N    0.488026
    13  O   -0.461848
    14  O   -0.460917
    15  C   -0.170090
    16  C   -0.218985
    17  C   -0.172518
    18  C    0.153506
    19  C   -0.169977
    20  C   -0.217425
    21  H    0.229872
    22  H    0.226273
    23  H    0.276484
    24  H    0.273497
    25  H    0.227670
    26  N    0.487197
    27  O   -0.467113
    28  O   -0.455599
 Sum of Mulliken charges =  -0.00000

 Dipole moment (field-independent basis, Debye):
    X=             -3.2906    Y=              1.9588    Z=              1.2836  Tot=              4.0388
 Quadrupole moment (field-independent basis, Debye-Ang):
   XX=           -138.1246   YY=           -102.0311   ZZ=            -99.5213
   XY=            -27.8709   XZ=              2.1293   YZ=             -2.3267

 Normal termination of Gaussian 16 at Wed May  5 17:45:19 2021.
