 Gaussian 16, Revision A.03,
 Gaussian 16:  EM64L-G16RevA.03 25-Dec-2016

 -------------
 #p 6-31g* mp2
 -------------

 ------------------------------------------------------
 Input file generated by CHIRIPA (05-May-2021 14:55:24)
 ------------------------------------------------------
 Symbolic Z-matrix:
 Charge =  0 Multiplicity = 1

                         Standard orientation:
 ---------------------------------------------------------------------
 Center     Atomic      Atomic             Coordinates (Angstroms)
 Number     Number       Type             X           Y           Z
 ---------------------------------------------------------------------
      1          6           0       -5.814232   -1.574364    0.291851
      2          6           0       -5.949307   -0.274635    0.790830
      3          6           0       -4.932767    0.666811    0.604083
      4          6           0       -3.789544    0.272671   -0.089447
      5          6           0       -3.625371   -1.014615   -0.598598
      6          6           0       -4.654739   -1.939562   -0.400050
      7          1           0       -6.608888   -2.299293    0.441505
      8          1           0       -6.848674    0.011784    1.328556
      9          1           0       -5.011225    1.679783    0.979781
     10          1           0       -2.717135   -1.270616   -1.130564
     11          1           0       -4.547101   -2.948240   -0.788674
     12          7           0       -2.706588    1.260604   -0.293395
     13          8           0       -1.709287    0.888448   -0.907827
     14          8           0       -2.875574    2.388395    0.165046
     15          6           0        4.392284   -0.437228    0.225620
     16          6           0        3.232808    0.438628   -0.250276
     17          6           0        1.865332   -0.168171    0.065315
     18          1           0        4.311908   -1.427477   -0.243308
     19          1           0        4.301871   -0.596200    1.309110
     20          1           0        3.326151    0.597043   -1.332315
     21          1           0        3.316061    1.426967    0.219692
     22          1           0        1.746827   -0.310626    1.144326
     23          1           0        1.756975   -1.145266   -0.416498
     24          1           0        1.050850    0.474308   -0.283541
     25          6           0        5.765867    0.156019   -0.082685
     26          6           0        6.925344   -0.719837    0.393212
     27          6           0        8.292820   -0.113038    0.077621
     28          1           0        5.856281    0.314991   -1.166174
     29          1           0        5.846244    1.146267    0.386243
     30          1           0        6.842090   -1.708176   -0.076756
     31          1           0        6.832000   -0.878252    1.475250
     32          1           0        8.401177    0.864057    0.559435
     33          1           0        8.411324    0.029417   -1.001390
     34          1           0        9.107302   -0.755516    0.426477
 ---------------------------------------------------------------------

 SCF Done:  E(RHF) =  -669.536233364     A.U. after   15 cycles
 E2 =    -0.2090615516D+01 EUMP2 =    -0.67162684888032D+03

 The electronic state is 1-A.
 Alpha  occ. eigenvalues --  -20.60921 -20.60913 -15.85951 -11.31263 -11.27828
 Alpha  occ. eigenvalues --  -11.27820 -11.27567 -11.26835 -11.26824 -11.21159
 Alpha  occ. eigenvalues --  -11.20817 -11.20696 -11.20695 -11.20633 -11.19804
 Alpha  occ. eigenvalues --   -1.59978  -1.39535  -1.19432  -1.08839  -1.07771
 Alpha  occ. eigenvalues --   -1.04828  -1.02802  -0.95684  -0.95236  -0.86259
 Alpha  occ. eigenvalues --   -0.86225  -0.82516  -0.78891  -0.77583  -0.77555
 Alpha  occ. eigenvalues --   -0.72179  -0.71290  -0.70542  -0.65089  -0.64832
 Alpha  occ. eigenvalues --   -0.64413  -0.62174  -0.60215  -0.58617  -0.56821
 Alpha  occ. eigenvalues --   -0.55335  -0.54553  -0.53161  -0.52920  -0.51872
 Alpha  occ. eigenvalues --   -0.51670  -0.49221  -0.48934  -0.48921  -0.47188
 Alpha  occ. eigenvalues --   -0.45955  -0.45110  -0.45040  -0.44950  -0.42999
 Alpha  occ. eigenvalues --   -0.37411  -0.36428
 Alpha virt. eigenvalues --    0.04938   0.11227   0.16418   0.21348   0.23480
 Alpha virt. eigenvalues --    0.25097   0.27233   0.27292   0.28105   0.28126
 Alpha virt. eigenvalues --    0.28891   0.30903   0.32040   0.32320   0.32497

 Mulliken charges:
               1
     1  C   -0.170583
     2  C   -0.218629
     3  C   -0.170661
     4  C    0.157956
     5  C   -0.170508
     6  C   -0.218600
     7  H    0.225882
     8  H    0.223682
     9  H    0.275749
    10  H    0.276281
    11  H    0.223795
    12  N    0.490596
    13  O   -0.461929
    14  O   -0.459152
    15  C   -0.297239
    16  C   -0.298949
    17  C   -0.486471
    18  H    0.146839
    19  H    0.147528
    20  H    0.151153
    21  H    0.152209
    22  H    0.148489
    23  H    0.146502
    24  H    0.189667
    25  C   -0.297710
    26  C   -0.299010
    27  C   -0.475341
    28  H    0.148925
    29  H    0.149537
    30  H    0.150616
    31  H    0.150984
    32  H    0.155021
    33  H    0.154762
    34  H    0.158611
 Sum of Mulliken charges =  -0.00000

 Dipole moment (field-independent basis, Debye):
    X=             -4.1183    Y=             -3.3882    Z=              0.6784  Tot=              5.3759
 Quadrupole moment (field-independent basis, Debye-Ang):
   XX=            -66.9417   YY=            -94.5263   ZZ=            -93.6450
   XY=             10.2144   XZ=             -3.9632   YZ=              3.0071

 Normal termination of Gaussian 16 at Wed May  5 22:23:32 2021.
