 Gaussian 16, Revision A.03,
 Gaussian 16:  EM64L-G16RevA.03 25-Dec-2016

 -------------
 #p 6-31g* mp2
 -------------

 ------------------------------------------------------
 Input file generated by CHIRIPA (05-May-2021 14:55:22)
 ------------------------------------------------------
 Symbolic Z-matrix:
 Charge =  0 Multiplicity = 1

                         Standard orientation:
 ---------------------------------------------------------------------
 Center     Atomic      Atomic             Coordinates (Angstroms)
 Number     Number       Type             X           Y           Z
 ---------------------------------------------------------------------
      1          6           0        4.755871   -0.577392   -1.218763
      2          6           0        3.911183    0.480051   -1.572087
      3          6           0        2.794529    0.788715   -0.789554
      4          6           0        2.551355    0.015737    0.344757
      5          6           0        3.374189   -1.044052    0.723018
      6          6           0        4.485155   -1.334733   -0.074356
      7          1           0        5.621106   -0.810185   -1.832418
      8          1           0        4.118969    1.069915   -2.460304
      9          1           0        2.124055    1.601852   -1.039936
     10          1           0        3.141185   -1.614107    1.614178
     11          1           0        5.139417   -2.156534    0.202467
     12          7           0        1.372214    0.332987    1.181045
     13          8           0        1.179820   -0.363163    2.175528
     14          8           0        0.662724    1.271791    0.826210
     15          6           0       -2.980714    0.591074   -0.312494
     16          6           0       -3.529909    2.000267   -0.087672
     17          6           0       -2.450059    3.078242   -0.186093
     18          1           0       -2.191585    0.389993    0.424925
     19          1           0       -2.503755    0.544391   -1.301294
     20          1           0       -4.006908    2.043893    0.899843
     21          1           0       -4.317955    2.197946   -0.825590
     22          1           0       -1.980176    3.063681   -1.174830
     23          1           0       -1.667362    2.908754    0.560406
     24          1           0       -2.864530    4.077837   -0.022129
     25          6           0       -4.048256   -0.497507   -0.217239
     26          6           0       -3.499061   -1.906700   -0.442060
     27          6           0       -4.578912   -2.984675   -0.343639
     28          1           0       -4.525216   -0.450824    0.771562
     29          1           0       -4.837385   -0.296425   -0.954657
     30          1           0       -2.711016   -2.104378    0.295858
     31          1           0       -3.022063   -1.950327   -1.429575
     32          1           0       -5.361608   -2.815188   -1.090138
     33          1           0       -5.048794   -2.970115    0.645098
     34          1           0       -4.164441   -3.984270   -0.507603
 ---------------------------------------------------------------------

 SCF Done:  E(RHF) =  -669.536398232     A.U. after   15 cycles
 E2 =    -0.2091597286D+01 EUMP2 =    -0.67162799551751D+03

 The electronic state is 1-A.
 Alpha  occ. eigenvalues --  -20.61033 -20.61009 -15.86044 -11.31322 -11.27882
 Alpha  occ. eigenvalues --  -11.27874 -11.27614 -11.26880 -11.26869 -11.20823
 Alpha  occ. eigenvalues --  -11.20454 -11.20424 -11.20415 -11.20067 -11.19650
 Alpha  occ. eigenvalues --   -1.60078  -1.39635  -1.19487  -1.08901  -1.07374
 Alpha  occ. eigenvalues --   -1.04877  -1.02506  -0.95750  -0.94945  -0.86279
 Alpha  occ. eigenvalues --   -0.85964  -0.82588  -0.78609  -0.77645  -0.77142
 Alpha  occ. eigenvalues --   -0.72271  -0.71382  -0.70596  -0.65145  -0.64881
 Alpha  occ. eigenvalues --   -0.64001  -0.62223  -0.59901  -0.58350  -0.56551
 Alpha  occ. eigenvalues --   -0.55385  -0.54217  -0.53211  -0.52968  -0.51690
 Alpha  occ. eigenvalues --   -0.51357  -0.49077  -0.49027  -0.48853  -0.46901
 Alpha  occ. eigenvalues --   -0.45634  -0.45173  -0.44691  -0.44399  -0.42752
 Alpha  occ. eigenvalues --   -0.37463  -0.36475
 Alpha virt. eigenvalues --    0.04866   0.11181   0.16366   0.21286   0.23886
 Alpha virt. eigenvalues --    0.25320   0.27213   0.27730   0.27976   0.28671
 Alpha virt. eigenvalues --    0.29089   0.30941   0.32304   0.32421   0.32740

 Mulliken charges:
               1
     1  C   -0.170428
     2  C   -0.218619
     3  C   -0.170575
     4  C    0.157670
     5  C   -0.170371
     6  C   -0.218650
     7  H    0.226122
     8  H    0.224016
     9  H    0.276462
    10  H    0.275819
    11  H    0.223897
    12  N    0.493472
    13  O   -0.459459
    14  O   -0.464018
    15  C   -0.303440
    16  C   -0.297917
    17  C   -0.481985
    18  H    0.170565
    19  H    0.141861
    20  H    0.150400
    21  H    0.144771
    22  H    0.146137
    23  H    0.181505
    24  H    0.151741
    25  C   -0.297380
    26  C   -0.299688
    27  C   -0.474892
    28  H    0.149165
    29  H    0.145052
    30  H    0.155588
    31  H    0.147780
    32  H    0.153068
    33  H    0.155282
    34  H    0.157053
 Sum of Mulliken charges =  -0.00000

 Dipole moment (field-independent basis, Debye):
    X=              4.5233    Y=             -1.1211    Z=             -2.7594  Tot=              5.4159
 Quadrupole moment (field-independent basis, Debye-Ang):
   XX=            -75.4551   YY=            -93.8008   ZZ=            -94.4289
   XY=             -4.4106   XZ=             -5.8415   YZ=             -3.0287

 Normal termination of Gaussian 16 at Thu May  6 19:12:51 2021.
