 Gaussian 16, Revision A.03,
 Gaussian 16:  EM64L-G16RevA.03 25-Dec-2016

 -------------
 #p 6-31g* mp2
 -------------

 ------------------------------------------------------
 Input file generated by CHIRIPA (05-May-2021 14:55:22)
 ------------------------------------------------------
 Symbolic Z-matrix:
 Charge =  0 Multiplicity = 1

                         Standard orientation:
 ---------------------------------------------------------------------
 Center     Atomic      Atomic             Coordinates (Angstroms)
 Number     Number       Type             X           Y           Z
 ---------------------------------------------------------------------
      1          6           0       -2.424117    2.692587   -0.608500
      2          6           0       -2.425083    1.672775   -1.565843
      3          6           0       -2.556242    0.335771   -1.178848
      4          6           0       -2.684989    0.053219    0.180151
      5          6           0       -2.687590    1.046949    1.157793
      6          6           0       -2.555142    2.376975    0.747871
      7          1           0       -2.321729    3.728493   -0.918032
      8          1           0       -2.323493    1.914933   -2.619923
      9          1           0       -2.560135   -0.473439   -1.898975
     10          1           0       -2.790611    0.774466    2.201133
     11          1           0       -2.554721    3.166908    1.493559
     12          7           0       -2.824523   -1.358514    0.601981
     13          8           0       -2.936472   -1.581197    1.805525
     14          8           0       -2.819300   -2.215616   -0.278919
     15          6           0        2.654936   -0.459819   -0.049448
     16          6           0        2.049855   -1.485396   -1.008641
     17          6           0        0.543898   -1.662126   -0.812040
     18          1           0        2.452690   -0.770508    0.984725
     19          1           0        2.150029    0.505935   -0.190099
     20          1           0        2.556698   -2.448577   -0.867192
     21          1           0        2.253731   -1.172329   -2.040649
     22          1           0        0.020476   -0.714159   -0.973255
     23          1           0        0.325164   -1.997659    0.206869
     24          1           0        0.132009   -2.399699   -1.507880
     25          6           0        4.159763   -0.272058   -0.233761
     26          6           0        4.764846    0.753520    0.725433
     27          6           0        6.270803    0.930249    0.528831
     28          1           0        4.664671   -1.237811   -0.093109
     29          1           0        4.362009    0.038632   -1.267933
     30          1           0        4.560969    0.440452    1.757440
     31          1           0        4.258002    1.716701    0.583983
     32          1           0        6.489536    1.265783   -0.490077
     33          1           0        6.794224   -0.017717    0.690046
     34          1           0        6.682691    1.667823    1.224672
 ---------------------------------------------------------------------

 SCF Done:  E(RHF) =  -669.534640938     A.U. after   15 cycles
 E2 =    -0.2093529326D+01 EUMP2 =    -0.67162817026375D+03

 The electronic state is 1-A.
 Alpha  occ. eigenvalues --  -20.60802 -20.60773 -15.85810 -11.31164 -11.27768
 Alpha  occ. eigenvalues --  -11.27741 -11.27522 -11.26786 -11.26773 -11.21583
 Alpha  occ. eigenvalues --  -11.21313 -11.21293 -11.21200 -11.21072 -11.20537
 Alpha  occ. eigenvalues --   -1.59844  -1.39400  -1.19376  -1.08763  -1.08289
 Alpha  occ. eigenvalues --   -1.04787  -1.03353  -0.95807  -0.95589  -0.86832
 Alpha  occ. eigenvalues --   -0.86165  -0.82434  -0.79447  -0.78116  -0.77468
 Alpha  occ. eigenvalues --   -0.72048  -0.71144  -0.70488  -0.65027  -0.64933
 Alpha  occ. eigenvalues --   -0.64777  -0.62132  -0.60766  -0.59158  -0.57421
 Alpha  occ. eigenvalues --   -0.55311  -0.55133  -0.53199  -0.52873  -0.52447
 Alpha  occ. eigenvalues --   -0.52142  -0.49725  -0.48804  -0.48802  -0.47746
 Alpha  occ. eigenvalues --   -0.46474  -0.45668  -0.45576  -0.44784  -0.43540
 Alpha  occ. eigenvalues --   -0.37314  -0.36337
 Alpha virt. eigenvalues --    0.05041   0.11238   0.16513   0.21356   0.22993
 Alpha virt. eigenvalues --    0.24478   0.26784   0.27144   0.27608   0.27812
 Alpha virt. eigenvalues --    0.28700   0.30801   0.31602   0.31871   0.31966

 Mulliken charges:
               1
     1  C   -0.170769
     2  C   -0.218997
     3  C   -0.173847
     4  C    0.162423
     5  C   -0.170803
     6  C   -0.218678
     7  H    0.225601
     8  H    0.223560
     9  H    0.277161
    10  H    0.275620
    11  H    0.223473
    12  N    0.489945
    13  O   -0.460752
    14  O   -0.458057
    15  C   -0.298219
    16  C   -0.300494
    17  C   -0.482770
    18  H    0.151234
    19  H    0.146291
    20  H    0.153255
    21  H    0.147655
    22  H    0.150663
    23  H    0.160636
    24  H    0.167854
    25  C   -0.297875
    26  C   -0.299233
    27  C   -0.475532
    28  H    0.150596
    29  H    0.148092
    30  H    0.152550
    31  H    0.149515
    32  H    0.154418
    33  H    0.155991
    34  H    0.159495
 Sum of Mulliken charges =  -0.00000

 Dipole moment (field-independent basis, Debye):
    X=              0.3660    Y=              4.8838    Z=             -1.4569  Tot=              5.1096
 Quadrupole moment (field-independent basis, Debye-Ang):
   XX=            -99.6620   YY=            -93.6818   ZZ=            -90.3526
   XY=            -13.9676   XZ=              4.0876   YZ=              1.9080

 Normal termination of Gaussian 16 at Thu May  6 06:15:48 2021.
