 Gaussian 16, Revision A.03,
 Gaussian 16:  EM64L-G16RevA.03 25-Dec-2016

 -------------
 #p 6-31g* mp2
 -------------

 ------------------------------------------------------
 Input file generated by CHIRIPA (05-May-2021 14:53:13)
 ------------------------------------------------------
 Symbolic Z-matrix:
 Charge =  0 Multiplicity = 1

                         Standard orientation:
 ---------------------------------------------------------------------
 Center     Atomic      Atomic             Coordinates (Angstroms)
 Number     Number       Type             X           Y           Z
 ---------------------------------------------------------------------
      1          6           0       -3.401761    0.833407    0.148710
      2          6           0       -2.397058    1.738981   -0.564375
      3          6           0       -2.363173    3.154297    0.013143
      4          1           0       -4.402238    1.282311    0.081808
      5          1           0       -3.150181    0.788423    1.217391
      6          1           0       -2.649636    1.781140   -1.631634
      7          1           0       -1.398887    1.287774   -0.495933
      8          1           0       -2.089042    3.131507    1.072828
      9          1           0       -3.346897    3.627676   -0.069326
     10          1           0       -1.638299    3.784658   -0.511323
     11          6           0       -3.447212   -0.584786   -0.417320
     12          6           0       -4.451915   -1.490361    0.295765
     13          6           0       -4.485800   -2.905677   -0.281753
     14          1           0       -3.698792   -0.539802   -1.486001
     15          1           0       -2.446735   -1.033690   -0.350418
     16          1           0       -5.450085   -1.039153    0.227323
     17          1           0       -4.199337   -1.532519    1.363024
     18          1           0       -3.502076   -3.379056   -0.199284
     19          1           0       -4.759931   -2.882886   -1.341438
     20          1           0       -5.210674   -3.536038    0.242712
     21          6           0        3.510277   -2.472010   -0.064642
     22          6           0        4.210769   -1.437200   -0.693132
     23          6           0        3.757401   -0.117582   -0.605872
     24          6           0        2.594665    0.132478    0.121319
     25          6           0        1.874679   -0.876877    0.758587
     26          6           0        2.346520   -2.189045    0.657939
     27          1           0        3.869639   -3.494227   -0.137628
     28          1           0        5.114859   -1.654007   -1.254969
     29          1           0        4.280224    0.702638   -1.082645
     30          1           0        0.976611   -0.629699    1.311572
     31          1           0        1.800468   -2.990690    1.147058
     32          7           0        2.104927    1.525555    0.220784
     33          8           0        1.077877    1.719641    0.867419
     34          8           0        2.757393    2.396985   -0.349772
 ---------------------------------------------------------------------

 SCF Done:  E(RHF) =  -669.536168364     A.U. after   15 cycles
 E2 =    -0.2091539909D+01 EUMP2 =    -0.67162770827281D+03

 The electronic state is 1-A.
 Alpha  occ. eigenvalues --  -20.60985 -20.60978 -15.86001 -11.31315 -11.27881
 Alpha  occ. eigenvalues --  -11.27871 -11.27608 -11.26883 -11.26872 -11.21437
 Alpha  occ. eigenvalues --  -11.21074 -11.21051 -11.20738 -11.20525 -11.19786
 Alpha  occ. eigenvalues --   -1.60036  -1.39594  -1.19482  -1.08887  -1.07916
 Alpha  occ. eigenvalues --   -1.04877  -1.02904  -0.95733  -0.95369  -0.86395
 Alpha  occ. eigenvalues --   -0.86278  -0.82567  -0.79047  -0.77692  -0.77589
 Alpha  occ. eigenvalues --   -0.72230  -0.71346  -0.70590  -0.65142  -0.64881
 Alpha  occ. eigenvalues --   -0.64550  -0.62226  -0.60284  -0.58818  -0.56952
 Alpha  occ. eigenvalues --   -0.55380  -0.54668  -0.53206  -0.52969  -0.52046
 Alpha  occ. eigenvalues --   -0.51802  -0.49360  -0.48989  -0.48963  -0.47344
 Alpha  occ. eigenvalues --   -0.46131  -0.45398  -0.45166  -0.44652  -0.43177
 Alpha  occ. eigenvalues --   -0.37457  -0.36477
 Alpha virt. eigenvalues --    0.04873   0.11159   0.16341   0.21062   0.23126
 Alpha virt. eigenvalues --    0.24886   0.26375   0.27431   0.27812   0.28480
 Alpha virt. eigenvalues --    0.28859   0.30870   0.31812   0.32124   0.32852

 Mulliken charges:
               1
     1  C   -0.298216
     2  C   -0.302809
     3  C   -0.471241
     4  H    0.147604
     5  H    0.148868
     6  H    0.145553
     7  H    0.161406
     8  H    0.160903
     9  H    0.145970
    10  H    0.165993
    11  C   -0.296311
    12  C   -0.299127
    13  C   -0.474618
    14  H    0.149221
    15  H    0.143070
    16  H    0.152925
    17  H    0.150081
    18  H    0.150679
    19  H    0.155603
    20  H    0.159362
    21  C   -0.170531
    22  C   -0.218467
    23  C   -0.170747
    24  C    0.158548
    25  C   -0.171508
    26  C   -0.218374
    27  H    0.226168
    28  H    0.223956
    29  H    0.275914
    30  H    0.275542
    31  H    0.223957
    32  N    0.488470
    33  O   -0.459443
    34  O   -0.458400
 Sum of Mulliken charges =  -0.00000

 Dipole moment (field-independent basis, Debye):
    X=              1.9893    Y=             -4.8000    Z=             -0.3161  Tot=              5.2055
 Quadrupole moment (field-independent basis, Debye-Ang):
   XX=            -83.1568   YY=            -97.1526   ZZ=            -93.6397
   XY=            -11.7262   XZ=             -2.9510   YZ=             -2.0713

 Normal termination of Gaussian 16 at Thu May  6 15:24:06 2021.
