 Gaussian 16, Revision A.03,
 Gaussian 16:  EM64L-G16RevA.03 25-Dec-2016

 -------------
 #p 6-31g* mp2
 -------------

 ------------------------------------------------------
 Input file generated by CHIRIPA (05-May-2021 14:53:16)
 ------------------------------------------------------
 Symbolic Z-matrix:
 Charge =  0 Multiplicity = 1

                         Standard orientation:
 ---------------------------------------------------------------------
 Center     Atomic      Atomic             Coordinates (Angstroms)
 Number     Number       Type             X           Y           Z
 ---------------------------------------------------------------------
      1          6           0        3.763011    0.426219   -0.368484
      2          6           0        3.686911    1.943482   -0.541989
      3          6           0        2.293098    2.422823   -0.948576
      4          1           0        3.466425   -0.059258   -1.308322
      5          1           0        3.031233    0.113652    0.389275
      6          1           0        4.419580    2.253256   -1.298198
      7          1           0        3.983897    2.425406    0.398311
      8          1           0        1.553261    2.142126   -0.191971
      9          1           0        1.991420    1.968998   -1.898120
     10          1           0        2.261294    3.510389   -1.067102
     11          6           0        5.150117   -0.068254    0.037916
     12          6           0        5.226217   -1.585518    0.211421
     13          6           0        6.620030   -2.064858    0.618008
     14          1           0        5.881895    0.244313   -0.719843
     15          1           0        5.446703    0.417223    0.977753
     16          1           0        4.929231   -2.067441   -0.728880
     17          1           0        4.493548   -1.895291    0.967630
     18          1           0        6.921709   -1.611033    1.567552
     19          1           0        7.359867   -1.784161   -0.138597
     20          1           0        6.651834   -3.152424    0.736534
     21          6           0       -1.158608    0.630302    0.742402
     22          6           0       -1.337866   -0.310398   -0.277143
     23          6           0       -2.620441   -0.744320   -0.625366
     24          6           0       -3.706278   -0.214284    0.069839
     25          6           0       -3.560172    0.724158    1.090266
     26          6           0       -2.268377    1.143672    1.421655
     27          1           0       -0.158691    0.961788    1.006371
     28          1           0       -0.477841   -0.710803   -0.806367
     29          1           0       -2.787889   -1.471520   -1.410579
     30          1           0       -4.436837    1.105221    1.599843
     31          1           0       -2.132168    1.874343    2.213875
     32          7           0       -5.068963   -0.666032   -0.289898
     33          8           0       -6.009251   -0.183803    0.337758
     34          8           0       -5.170947   -1.493786   -1.192704
 ---------------------------------------------------------------------

 SCF Done:  E(RHF) =  -669.535447039     A.U. after   15 cycles
 E2 =    -0.2091123382D+01 EUMP2 =    -0.67162657042077D+03

 The electronic state is 1-A.
 Alpha  occ. eigenvalues --  -20.60728 -20.60723 -15.85781 -11.31142 -11.27708
 Alpha  occ. eigenvalues --  -11.27701 -11.27435 -11.26725 -11.26706 -11.22547
 Alpha  occ. eigenvalues --  -11.22382 -11.22268 -11.22184 -11.22134 -11.21607
 Alpha  occ. eigenvalues --   -1.59803  -1.39357  -1.19311  -1.09287  -1.08707
 Alpha  occ. eigenvalues --   -1.04712  -1.04355  -0.96818  -0.95545  -0.87830
 Alpha  occ. eigenvalues --   -0.86108  -0.82379  -0.80424  -0.79093  -0.77423
 Alpha  occ. eigenvalues --   -0.71999  -0.71126  -0.70449  -0.65917  -0.64963
 Alpha  occ. eigenvalues --   -0.64715  -0.62060  -0.61755  -0.60187  -0.58425
 Alpha  occ. eigenvalues --   -0.56186  -0.55194  -0.53480  -0.53247  -0.53015
 Alpha  occ. eigenvalues --   -0.52803  -0.50754  -0.48767  -0.48755  -0.48722
 Alpha  occ. eigenvalues --   -0.47456  -0.46631  -0.46545  -0.44764  -0.44609
 Alpha  occ. eigenvalues --   -0.37282  -0.36316
 Alpha virt. eigenvalues --    0.05090   0.11331   0.16521   0.19102   0.22508
 Alpha virt. eigenvalues --    0.23830   0.25044   0.26147   0.26963   0.27487
 Alpha virt. eigenvalues --    0.29027   0.30164   0.30968   0.31372   0.32207

 Mulliken charges:
               1
     1  C   -0.298475
     2  C   -0.300399
     3  C   -0.478107
     4  H    0.149724
     5  H    0.141883
     6  H    0.156532
     7  H    0.153482
     8  H    0.145170
     9  H    0.157712
    10  H    0.166001
    11  C   -0.298587
    12  C   -0.300281
    13  C   -0.476172
    14  H    0.152306
    15  H    0.151043
    16  H    0.152372
    17  H    0.151220
    18  H    0.156011
    19  H    0.156502
    20  H    0.162165
    21  C   -0.172980
    22  C   -0.219889
    23  C   -0.171127
    24  C    0.158589
    25  C   -0.170944
    26  C   -0.219390
    27  H    0.229950
    28  H    0.224560
    29  H    0.275425
    30  H    0.275396
    31  H    0.223362
    32  N    0.488042
    33  O   -0.460548
    34  O   -0.460545
 Sum of Mulliken charges =  -0.00000

 Dipole moment (field-independent basis, Debye):
    X=              5.0304    Y=              1.6213    Z=              1.2130  Tot=              5.4226
 Quadrupole moment (field-independent basis, Debye-Ang):
   XX=           -130.0580   YY=            -94.1654   ZZ=            -91.5803
   XY=             -7.7684   XZ=             -6.6238   YZ=              2.4574

 Normal termination of Gaussian 16 at Thu May  6 12:15:38 2021.
