 Gaussian 16, Revision A.03,
 Gaussian 16:  EM64L-G16RevA.03 25-Dec-2016

 -------------
 #p 6-31g* mp2
 -------------

 ------------------------------------------------------
 Input file generated by CHIRIPA (05-May-2021 14:55:21)
 ------------------------------------------------------
 Symbolic Z-matrix:
 Charge =  0 Multiplicity = 1

                         Standard orientation:
 ---------------------------------------------------------------------
 Center     Atomic      Atomic             Coordinates (Angstroms)
 Number     Number       Type             X           Y           Z
 ---------------------------------------------------------------------
      1          6           0       -2.958284   -2.265381   -0.112290
      2          6           0       -2.059708   -1.243785    0.212404
      3          6           0       -2.488598    0.085325    0.276183
      4          6           0       -3.829110    0.358250    0.008175
      5          6           0       -4.748529   -0.637498   -0.318084
      6          6           0       -4.297465   -1.959516   -0.376033
      7          1           0       -2.616499   -3.295111   -0.159571
      8          1           0       -1.019104   -1.478381    0.417714
      9          1           0       -1.814257    0.895704    0.525115
     10          1           0       -5.779762   -0.372634   -0.517646
     11          1           0       -4.997544   -2.750857   -0.628450
     12          7           0       -4.294894    1.761565    0.072609
     13          8           0       -5.481032    1.975835   -0.167813
     14          8           0       -3.465018    2.620642    0.362314
     15          6           0        4.349192   -0.637350    0.393032
     16          6           0        3.049574   -0.972302   -0.339623
     17          6           0        2.152267   -1.923232    0.453073
     18          1           0        4.894118   -1.567723    0.603765
     19          1           0        4.107924   -0.189015    1.366778
     20          1           0        3.293225   -1.418601   -1.312282
     21          1           0        2.507770   -0.041007   -0.548806
     22          1           0        1.880300   -1.482104    1.417459
     23          1           0        2.670217   -2.867525    0.649646
     24          1           0        1.228789   -2.149291   -0.089095
     25          6           0        5.256807    0.312315   -0.386775
     26          6           0        6.556427    0.647267    0.345880
     27          6           0        7.453732    1.598198   -0.446816
     28          1           0        5.498075   -0.136019   -1.360520
     29          1           0        4.711882    1.242688   -0.597508
     30          1           0        7.098229   -0.284027    0.555063
     31          1           0        6.312774    1.093567    1.318539
     32          1           0        6.935783    2.542491   -0.643387
     33          1           0        7.725700    1.157069   -1.411201
     34          1           0        8.377210    1.824257    0.095352
 ---------------------------------------------------------------------

 SCF Done:  E(RHF) =  -669.535587853     A.U. after   15 cycles
 E2 =    -0.2090741438D+01 EUMP2 =    -0.67162632929131D+03

 The electronic state is 1-A.
 Alpha  occ. eigenvalues --  -20.60729 -20.60724 -15.85781 -11.31135 -11.27703
 Alpha  occ. eigenvalues --  -11.27691 -11.27436 -11.26719 -11.26656 -11.22347
 Alpha  occ. eigenvalues --  -11.22153 -11.21929 -11.21899 -11.21756 -11.21290
 Alpha  occ. eigenvalues --   -1.59805  -1.39359  -1.19302  -1.08943  -1.08701
 Alpha  occ. eigenvalues --   -1.04703  -1.04092  -0.96565  -0.95539  -0.87592
 Alpha  occ. eigenvalues --   -0.86100  -0.82370  -0.80161  -0.78707  -0.77420
 Alpha  occ. eigenvalues --   -0.72001  -0.71127  -0.70415  -0.65569  -0.64953
 Alpha  occ. eigenvalues --   -0.64734  -0.62098  -0.61471  -0.59957  -0.58147
 Alpha  occ. eigenvalues --   -0.55843  -0.55206  -0.53405  -0.53043  -0.53001
 Alpha  occ. eigenvalues --   -0.52632  -0.50485  -0.48758  -0.48756  -0.48467
 Alpha  occ. eigenvalues --   -0.47170  -0.46261  -0.46154  -0.44767  -0.44333
 Alpha  occ. eigenvalues --   -0.37286  -0.36305
 Alpha virt. eigenvalues --    0.05112   0.11320   0.16598   0.20185   0.22594
 Alpha virt. eigenvalues --    0.23789   0.26059   0.26316   0.27023   0.28172
 Alpha virt. eigenvalues --    0.28763   0.30497   0.30840   0.31530   0.31846

 Mulliken charges:
               1
     1  C   -0.172810
     2  C   -0.226714
     3  C   -0.173026
     4  C    0.158894
     5  C   -0.171346
     6  C   -0.218432
     7  H    0.225546
     8  H    0.235366
     9  H    0.275427
    10  H    0.275364
    11  H    0.223144
    12  N    0.488064
    13  O   -0.460620
    14  O   -0.460674
    15  C   -0.299212
    16  C   -0.299299
    17  C   -0.482805
    18  H    0.150582
    19  H    0.150725
    20  H    0.154630
    21  H    0.153123
    22  H    0.155821
    23  H    0.160384
    24  H    0.153462
    25  C   -0.299022
    26  C   -0.300128
    27  C   -0.476098
    28  H    0.150230
    29  H    0.151421
    30  H    0.152049
    31  H    0.152791
    32  H    0.156393
    33  H    0.155454
    34  H    0.161314
 Sum of Mulliken charges =  -0.00000

 Dipole moment (field-independent basis, Debye):
    X=              1.8700    Y=             -4.9374    Z=             -0.2329  Tot=              5.2848
 Quadrupole moment (field-independent basis, Debye-Ang):
   XX=           -102.7070   YY=            -98.2690   ZZ=            -95.3371
   XY=             20.4078   XZ=              2.3193   YZ=              0.9684

 Normal termination of Gaussian 16 at Thu May  6 17:29:32 2021.
