 Gaussian 16, Revision A.03,
 Gaussian 16:  EM64L-G16RevA.03 25-Dec-2016

 -------------
 #p 6-31g* mp2
 -------------

 ------------------------------------------------------
 Input file generated by CHIRIPA (05-May-2021 14:53:14)
 ------------------------------------------------------
 Symbolic Z-matrix:
 Charge =  0 Multiplicity = 1

                         Standard orientation:
 ---------------------------------------------------------------------
 Center     Atomic      Atomic             Coordinates (Angstroms)
 Number     Number       Type             X           Y           Z
 ---------------------------------------------------------------------
      1          6           0       -2.471111    1.005832   -0.478466
      2          6           0       -2.520053    2.527229   -0.333755
      3          6           0       -1.377146    3.228042   -1.068886
      4          1           0       -1.508378    0.638429   -0.097540
      5          1           0       -2.505368    0.744667   -1.545243
      6          1           0       -2.487109    2.785395    0.732491
      7          1           0       -3.482859    2.891033   -0.714894
      8          1           0       -1.410038    2.999565   -2.139081
      9          1           0       -0.408630    2.893326   -0.683472
     10          1           0       -1.431461    4.314915   -0.952193
     11          6           0       -3.607217    0.291044    0.250966
     12          6           0       -3.558275   -1.230353    0.106255
     13          6           0       -4.701182   -1.931167    0.841386
     14          1           0       -3.572960    0.552209    1.317743
     15          1           0       -4.569950    0.658447   -0.129961
     16          1           0       -2.595469   -1.594157    0.487394
     17          1           0       -3.591219   -1.488519   -0.959991
     18          1           0       -5.669698   -1.596450    0.455972
     19          1           0       -4.668291   -1.702689    1.911581
     20          1           0       -4.646867   -3.018039    0.724693
     21          6           0        3.905382    1.356590    0.830762
     22          6           0        4.319329    0.464611   -0.163996
     23          6           0        3.479317   -0.571467   -0.582887
     24          6           0        2.226332   -0.686718    0.017144
     25          6           0        1.785262    0.186085    1.010604
     26          6           0        2.641898    1.214730    1.413858
     27          1           0        4.564381    2.158553    1.150093
     28          1           0        5.300027    0.572369   -0.618602
     29          1           0        3.774507   -1.276034   -1.350914
     30          1           0        0.801947    0.053244    1.445186
     31          1           0        2.317771    1.905982    2.186618
     32          7           0        1.328249   -1.779632   -0.418041
     33          8           0        0.229187   -1.859704    0.126282
     34          8           0        1.740401   -2.535492   -1.295220
 ---------------------------------------------------------------------

 SCF Done:  E(RHF) =  -669.536213568     A.U. after   15 cycles
 E2 =    -0.2092547311D+01 EUMP2 =    -0.67162876087924D+03

 The electronic state is 1-A.
 Alpha  occ. eigenvalues --  -20.60986 -20.60981 -15.86013 -11.31333 -11.27906
 Alpha  occ. eigenvalues --  -11.27883 -11.27619 -11.26907 -11.26890 -11.21354
 Alpha  occ. eigenvalues --  -11.20993 -11.20821 -11.20696 -11.20420 -11.20206
 Alpha  occ. eigenvalues --   -1.60038  -1.39597  -1.19498  -1.08899  -1.07822
 Alpha  occ. eigenvalues --   -1.04895  -1.02931  -0.95745  -0.95431  -0.86457
 Alpha  occ. eigenvalues --   -0.86293  -0.82585  -0.79008  -0.77737  -0.77449
 Alpha  occ. eigenvalues --   -0.72243  -0.71344  -0.70605  -0.65161  -0.64905
 Alpha  occ. eigenvalues --   -0.64458  -0.62244  -0.60335  -0.58824  -0.56999
 Alpha  occ. eigenvalues --   -0.55395  -0.54749  -0.53219  -0.52986  -0.52145
 Alpha  occ. eigenvalues --   -0.51840  -0.49422  -0.49004  -0.48990  -0.47308
 Alpha  occ. eigenvalues --   -0.46052  -0.45365  -0.45073  -0.44598  -0.43180
 Alpha  occ. eigenvalues --   -0.37466  -0.36487
 Alpha virt. eigenvalues --    0.04851   0.11092   0.16345   0.20761   0.23129
 Alpha virt. eigenvalues --    0.24826   0.26062   0.27519   0.27683   0.28307
 Alpha virt. eigenvalues --    0.29239   0.31157   0.31836   0.32175   0.32512

 Mulliken charges:
               1
     1  C   -0.301957
     2  C   -0.299107
     3  C   -0.475328
     4  H    0.153780
     5  H    0.151358
     6  H    0.146642
     7  H    0.152113
     8  H    0.156968
     9  H    0.150343
    10  H    0.157572
    11  C   -0.297474
    12  C   -0.308245
    13  C   -0.475417
    14  H    0.143547
    15  H    0.146233
    16  H    0.177911
    17  H    0.151883
    18  H    0.150546
    19  H    0.150832
    20  H    0.161610
    21  C   -0.170390
    22  C   -0.218248
    23  C   -0.170460
    24  C    0.157967
    25  C   -0.171551
    26  C   -0.219025
    27  H    0.226348
    28  H    0.224102
    29  H    0.276028
    30  H    0.276539
    31  H    0.224423
    32  N    0.494973
    33  O   -0.466299
    34  O   -0.458218
 Sum of Mulliken charges =  -0.00000

 Dipole moment (field-independent basis, Debye):
    X=              3.4137    Y=              3.6391    Z=              1.4724  Tot=              5.2023
 Quadrupole moment (field-independent basis, Debye-Ang):
   XX=            -79.4813   YY=           -100.9319   ZZ=            -92.6089
   XY=              5.0901   XZ=              2.0017   YZ=              0.5799

 Normal termination of Gaussian 16 at Thu May  6 05:48:48 2021.
