 Gaussian 16, Revision A.03,
 Gaussian 16:  EM64L-G16RevA.03 25-Dec-2016

 -------------
 #p 6-31g* mp2
 -------------

 ------------------------------------------------------
 Input file generated by CHIRIPA (05-May-2021 14:53:15)
 ------------------------------------------------------
 Symbolic Z-matrix:
 Charge =  0 Multiplicity = 1

                         Standard orientation:
 ---------------------------------------------------------------------
 Center     Atomic      Atomic             Coordinates (Angstroms)
 Number     Number       Type             X           Y           Z
 ---------------------------------------------------------------------
      1          6           0       -4.082548    0.100958   -0.203337
      2          6           0       -3.908551   -1.400353    0.028560
      3          6           0       -5.235163   -2.160118    0.003046
      4          1           0       -4.754965    0.508526    0.563923
      5          1           0       -4.578920    0.260392   -1.170597
      6          1           0       -3.411408   -1.556860    0.994464
      7          1           0       -3.236318   -1.804359   -0.739227
      8          1           0       -5.733065   -2.033538   -0.963739
      9          1           0       -5.909150   -1.784632    0.779804
     10          1           0       -5.087502   -3.231509    0.170909
     11          6           0       -2.765201    0.874140   -0.180674
     12          6           0       -2.939199    2.375451   -0.412571
     13          6           0       -1.612586    3.135216   -0.387056
     14          1           0       -2.268829    0.714706    0.786586
     15          1           0       -2.092785    0.466571   -0.947934
     16          1           0       -3.611431    2.779457    0.355217
     17          1           0       -3.436341    2.531958   -1.378475
     18          1           0       -0.938599    2.759730   -1.163815
     19          1           0       -1.114684    3.008636    0.579728
     20          1           0       -1.760247    4.206606   -0.554919
     21          6           0        0.303703   -0.866595    0.862348
     22          6           0        0.853184   -1.529553   -0.239958
     23          6           0        2.165956   -1.268340   -0.643621
     24          6           0        2.904141   -0.333942    0.081138
     25          6           0        2.384867    0.342887    1.183656
     26          6           0        1.069946    0.065865    1.569390
     27          1           0       -0.716925   -1.075652    1.168960
     28          1           0        0.260444   -2.254210   -0.790934
     29          1           0        2.616220   -1.767188   -1.493228
     30          1           0        3.000342    1.060034    1.713099
     31          1           0        0.645819    0.582235    2.425849
     32          7           0        4.295051   -0.049039   -0.336713
     33          8           0        4.924622    0.778580    0.318516
     34          8           0        4.729339   -0.658746   -1.311541
 ---------------------------------------------------------------------

 SCF Done:  E(RHF) =  -669.534732474     A.U. after   15 cycles
 E2 =    -0.2093079974D+01 EUMP2 =    -0.67162781244810D+03

 The electronic state is 1-A.
 Alpha  occ. eigenvalues --  -20.60702 -20.60697 -15.85758 -11.31096 -11.27700
 Alpha  occ. eigenvalues --  -11.27697 -11.27363 -11.26678 -11.26663 -11.22780
 Alpha  occ. eigenvalues --  -11.22342 -11.22294 -11.22255 -11.21966 -11.21605
 Alpha  occ. eigenvalues --   -1.59779  -1.39333  -1.19283  -1.09366  -1.08666
 Alpha  occ. eigenvalues --   -1.04690  -1.04373  -0.96793  -0.95511  -0.87806
 Alpha  occ. eigenvalues --   -0.86085  -0.82360  -0.80473  -0.79214  -0.77400
 Alpha  occ. eigenvalues --   -0.71976  -0.71104  -0.70386  -0.65988  -0.64931
 Alpha  occ. eigenvalues --   -0.64694  -0.62044  -0.61768  -0.60177  -0.58430
 Alpha  occ. eigenvalues --   -0.56081  -0.55194  -0.53471  -0.53247  -0.52975
 Alpha  occ. eigenvalues --   -0.52781  -0.50733  -0.48775  -0.48734  -0.48730
 Alpha  occ. eigenvalues --   -0.47518  -0.46658  -0.46629  -0.44746  -0.44639
 Alpha  occ. eigenvalues --   -0.37180  -0.36300
 Alpha virt. eigenvalues --    0.05138   0.11230   0.16596   0.19464   0.22706
 Alpha virt. eigenvalues --    0.23067   0.24360   0.25614   0.26974   0.27977
 Alpha virt. eigenvalues --    0.29267   0.30424   0.31118   0.31469   0.31552

 Mulliken charges:
               1
     1  C   -0.298083
     2  C   -0.303017
     3  C   -0.475604
     4  H    0.152099
     5  H    0.153690
     6  H    0.145146
     7  H    0.148825
     8  H    0.158828
     9  H    0.158044
    10  H    0.161629
    11  C   -0.299695
    12  C   -0.300555
    13  C   -0.475057
    14  H    0.139891
    15  H    0.152607
    16  H    0.152594
    17  H    0.154697
    18  H    0.159324
    19  H    0.151412
    20  H    0.162990
    21  C   -0.167417
    22  C   -0.223643
    23  C   -0.170596
    24  C    0.157554
    25  C   -0.170113
    26  C   -0.221106
    27  H    0.232972
    28  H    0.223220
    29  H    0.275204
    30  H    0.275353
    31  H    0.222305
    32  N    0.488157
    33  O   -0.460740
    34  O   -0.460916
 Sum of Mulliken charges =  -0.00000

 Dipole moment (field-independent basis, Debye):
    X=             -5.1036    Y=             -0.9313    Z=              1.3789  Tot=              5.3680
 Quadrupole moment (field-independent basis, Debye-Ang):
   XX=           -123.9750   YY=            -92.6160   ZZ=            -91.0753
   XY=             -1.5374   XZ=              4.4439   YZ=              2.3421

 Normal termination of Gaussian 16 at Wed May  5 15:40:08 2021.
