 Gaussian 16, Revision A.03,
 Gaussian 16:  EM64L-G16RevA.03 25-Dec-2016

 -------------
 #p 6-31g* mp2
 -------------

 ------------------------------------------------------
 Input file generated by CHIRIPA (05-May-2021 14:53:16)
 ------------------------------------------------------
 Symbolic Z-matrix:
 Charge =  0 Multiplicity = 1

                         Standard orientation:
 ---------------------------------------------------------------------
 Center     Atomic      Atomic             Coordinates (Angstroms)
 Number     Number       Type             X           Y           Z
 ---------------------------------------------------------------------
      1          6           0       -3.714305    0.518494   -0.187926
      2          6           0       -3.056570    1.882691   -0.398491
      3          6           0       -4.059566    2.968543   -0.789283
      4          1           0       -4.235603    0.223796   -1.108982
      5          1           0       -4.483316    0.606455    0.591997
      6          1           0       -2.288075    1.791872   -1.176811
      7          1           0       -2.536616    2.174088    0.523112
      8          1           0       -4.820349    3.088302   -0.011165
      9          1           0       -4.570396    2.703913   -1.720747
     10          1           0       -3.568001    3.935518   -0.934830
     11          6           0       -2.724469   -0.577395    0.203199
     12          6           0       -3.382203   -1.941592    0.413764
     13          6           0       -2.379208   -3.027445    0.804557
     14          1           0       -1.955457   -0.665357   -0.576723
     15          1           0       -2.203170   -0.282697    1.124256
     16          1           0       -3.902157   -2.232989   -0.507838
     17          1           0       -4.150699   -1.850773    1.192085
     18          1           0       -1.868378   -2.762815    1.736021
     19          1           0       -1.618424   -3.147203    0.026439
     20          1           0       -2.870772   -3.994419    0.950104
     21          6           0        3.100042    2.371961    0.705542
     22          6           0        4.056184    1.575435    0.066902
     23          6           0        3.743184    0.272480   -0.331706
     24          6           0        2.458600   -0.204080   -0.074753
     25          6           0        1.484189    0.565021    0.559517
     26          6           0        1.819354    1.865105    0.949381
     27          1           0        3.351796    3.383012    1.011793
     28          1           0        5.051578    1.966436   -0.123763
     29          1           0        4.464177   -0.365780   -0.827903
     30          1           0        0.500315    0.147541    0.735927
     31          1           0        1.074787    2.481432    1.445169
     32          7           0        2.115510   -1.581940   -0.492113
     33          8           0        0.976711   -1.978395   -0.254208
     34          8           0        2.991889   -2.239362   -1.049240
 ---------------------------------------------------------------------

 SCF Done:  E(RHF) =  -669.536144634     A.U. after   15 cycles
 E2 =    -0.2092383262D+01 EUMP2 =    -0.67162852789616D+03

 The electronic state is 1-A.
 Alpha  occ. eigenvalues --  -20.60862 -20.60853 -15.85896 -11.31188 -11.27767
 Alpha  occ. eigenvalues --  -11.27711 -11.27501 -11.26769 -11.26745 -11.21820
 Alpha  occ. eigenvalues --  -11.21323 -11.21254 -11.21140 -11.21029 -11.19961
 Alpha  occ. eigenvalues --   -1.59925  -1.39481  -1.19361  -1.08774  -1.08262
 Alpha  occ. eigenvalues --   -1.04751  -1.03244  -0.95667  -0.95610  -0.86675
 Alpha  occ. eigenvalues --   -0.86153  -0.82455  -0.79374  -0.78103  -0.77439
 Alpha  occ. eigenvalues --   -0.72124  -0.71239  -0.70471  -0.65031  -0.64881
 Alpha  occ. eigenvalues --   -0.64757  -0.62099  -0.60637  -0.59116  -0.57263
 Alpha  occ. eigenvalues --   -0.55267  -0.54921  -0.53091  -0.52863  -0.52362
 Alpha  occ. eigenvalues --   -0.52045  -0.49614  -0.48887  -0.48849  -0.47629
 Alpha  occ. eigenvalues --   -0.46419  -0.45577  -0.45437  -0.44855  -0.43527
 Alpha  occ. eigenvalues --   -0.37349  -0.36352
 Alpha virt. eigenvalues --    0.05000   0.11285   0.16498   0.20484   0.23105
 Alpha virt. eigenvalues --    0.24324   0.25251   0.26894   0.27866   0.28418
 Alpha virt. eigenvalues --    0.29813   0.30492   0.31762   0.31890   0.32368

 Mulliken charges:
               1
     1  C   -0.297239
     2  C   -0.299553
     3  C   -0.475137
     4  H    0.151838
     5  H    0.148940
     6  H    0.152564
     7  H    0.142543
     8  H    0.155675
     9  H    0.157488
    10  H    0.157957
    11  C   -0.303634
    12  C   -0.299539
    13  C   -0.480703
    14  H    0.161363
    15  H    0.139876
    16  H    0.151316
    17  H    0.147463
    18  H    0.150873
    19  H    0.181665
    20  H    0.155081
    21  C   -0.170378
    22  C   -0.219081
    23  C   -0.170104
    24  C    0.155770
    25  C   -0.175930
    26  C   -0.220728
    27  H    0.225603
    28  H    0.223354
    29  H    0.275407
    30  H    0.285440
    31  H    0.224129
    32  N    0.493667
    33  O   -0.466463
    34  O   -0.459524
 Sum of Mulliken charges =  -0.00000

 Dipole moment (field-independent basis, Debye):
    X=              1.3041    Y=              4.7042    Z=              1.3337  Tot=              5.0605
 Quadrupole moment (field-independent basis, Debye-Ang):
   XX=            -85.3100   YY=            -97.9532   ZZ=            -94.2930
   XY=             11.7912   XZ=              1.7041   YZ=              0.3052

 Normal termination of Gaussian 16 at Thu May  6 20:27:11 2021.
