 Gaussian 16, Revision A.03,
 Gaussian 16:  EM64L-G16RevA.03 25-Dec-2016

 -------------
 #p 6-31g* mp2
 -------------

 ------------------------------------------------------
 Input file generated by CHIRIPA (05-May-2021 14:57:21)
 ------------------------------------------------------
 Symbolic Z-matrix:
 Charge =  0 Multiplicity = 1

                         Standard orientation:
 ---------------------------------------------------------------------
 Center     Atomic      Atomic             Coordinates (Angstroms)
 Number     Number       Type             X           Y           Z
 ---------------------------------------------------------------------
      1          6           0        2.007316    1.376264    1.085993
      2          6           0        2.958110    0.807924    1.940101
      3          6           0        4.027473    0.071175    1.422210
      4          6           0        4.115672   -0.078021    0.039006
      5          6           0        3.184363    0.476012   -0.837920
      6          6           0        2.123273    1.208790   -0.297853
      7          1           0        1.179823    1.947046    1.496917
      8          1           0        2.870584    0.936354    3.015225
      9          1           0        4.777655   -0.379596    2.060529
     10          1           0        3.298249    0.330773   -1.905325
     11          1           0        1.386353    1.649040   -0.963565
     12          7           0        5.243380   -0.855882   -0.521001
     13          8           0        5.298596   -0.972789   -1.743261
     14          8           0        6.050708   -1.333932    0.272930
     15          6           0       -2.330995    1.829878   -0.655792
     16          6           0       -1.856225    0.519379   -0.538702
     17          6           0       -2.733006   -0.530150   -0.248373
     18          6           0       -4.084380   -0.231937   -0.080596
     19          6           0       -4.587893    1.063278   -0.190960
     20          6           0       -3.692913    2.097173   -0.481854
     21          1           0       -1.642821    2.639104   -0.881546
     22          1           0       -0.799055    0.308844   -0.673274
     23          1           0       -2.392358   -1.553928   -0.152171
     24          1           0       -5.647131    1.242063   -0.051430
     25          1           0       -4.064445    3.113956   -0.572205
     26          7           0       -5.022223   -1.334751    0.227061
     27          8           0       -6.208227   -1.045779    0.370327
     28          8           0       -4.553541   -2.467227    0.319112
 ---------------------------------------------------------------------

 SCF Done:  E(RHF) =  -868.336702934     A.U. after   16 cycles
 E2 =    -0.2600392655D+01 EUMP2 =    -0.87093709558927D+03

 The electronic state is 1-A.
 Alpha  occ. eigenvalues --  -20.61355 -20.61346 -20.61230 -20.61225 -15.86417
 Alpha  occ. eigenvalues --  -15.86287 -11.31960 -11.31797 -11.28635 -11.28539
 Alpha  occ. eigenvalues --  -11.28398 -11.28370 -11.28363 -11.28251 -11.27753
 Alpha  occ. eigenvalues --  -11.27545 -11.27453 -11.27441  -1.60426  -1.60303
 Alpha  occ. eigenvalues --   -1.39974  -1.39852  -1.20182  -1.19993  -1.09550
 Alpha  occ. eigenvalues --   -1.09386  -1.05624  -1.05404  -0.96339  -0.96191
 Alpha  occ. eigenvalues --   -0.87055  -0.86786  -0.83171  -0.83006  -0.78199
 Alpha  occ. eigenvalues --   -0.77998  -0.72631  -0.72504  -0.71753  -0.71628
 Alpha  occ. eigenvalues --   -0.71289  -0.71148  -0.65901  -0.65802  -0.65640
 Alpha  occ. eigenvalues --   -0.65258  -0.63014  -0.62665  -0.56120  -0.55988
 Alpha  occ. eigenvalues --   -0.53991  -0.53763  -0.53734  -0.53390  -0.49406
 Alpha  occ. eigenvalues --   -0.49373  -0.49274  -0.49249  -0.45340  -0.45224
 Alpha  occ. eigenvalues --   -0.38198  -0.38008  -0.37223  -0.36995
 Alpha virt. eigenvalues --    0.04376   0.04511   0.10193   0.10634   0.15760
 Alpha virt. eigenvalues --    0.15971   0.18268   0.21931   0.24955   0.26975
 Alpha virt. eigenvalues --    0.27416   0.28916   0.30244   0.30598   0.31540

 Mulliken charges:
               1
     1  C   -0.170373
     2  C   -0.218308
     3  C   -0.168511
     4  C    0.158816
     5  C   -0.170441
     6  C   -0.225502
     7  H    0.226426
     8  H    0.227307
     9  H    0.279081
    10  H    0.277857
    11  H    0.215849
    12  N    0.488077
    13  O   -0.458880
    14  O   -0.457657
    15  C   -0.175278
    16  C   -0.224643
    17  C   -0.171148
    18  C    0.159459
    19  C   -0.170616
    20  C   -0.217727
    21  H    0.219096
    22  H    0.225077
    23  H    0.278881
    24  H    0.277625
    25  H    0.224917
    26  N    0.487826
    27  O   -0.458883
    28  O   -0.458323
 Sum of Mulliken charges =  -0.00000

 Dipole moment (field-independent basis, Debye):
    X=             -0.5568    Y=              6.4760    Z=              1.0240  Tot=              6.5801
 Quadrupole moment (field-independent basis, Debye-Ang):
   XX=           -160.0151   YY=           -105.9996   ZZ=           -100.9188
   XY=             -8.2888   XZ=             14.1815   YZ=             -0.7788

 Normal termination of Gaussian 16 at Thu May  6 21:02:46 2021.
