 Gaussian 16, Revision A.03,
 Gaussian 16:  EM64L-G16RevA.03 25-Dec-2016

 -------------
 #p 6-31g* mp2
 -------------

 ------------------------------------------------------
 Input file generated by CHIRIPA (05-May-2021 14:51:14)
 ------------------------------------------------------
 Symbolic Z-matrix:
 Charge =  0 Multiplicity = 1

                         Standard orientation:
 ---------------------------------------------------------------------
 Center     Atomic      Atomic             Coordinates (Angstroms)
 Number     Number       Type             X           Y           Z
 ---------------------------------------------------------------------
      1          6           0       -2.416894    1.446294    0.109841
      2          6           0       -1.228761    1.692351    1.040314
      3          6           0       -1.026057    3.173468    1.361248
      4          1           0       -2.266770    2.007748   -0.822456
      5          1           0       -3.327264    1.849672    0.574501
      6          1           0       -0.321133    1.287396    0.574655
      7          1           0       -1.381639    1.130094    1.970428
      8          1           0       -1.914878    3.587219    1.848493
      9          1           0       -0.848346    3.745415    0.444790
     10          1           0       -0.171543    3.326538    2.027758
     11          6           0       -2.632389   -0.029628   -0.220226
     12          6           0       -3.820522   -0.275685   -1.150699
     13          6           0       -4.023226   -1.756802   -1.471633
     14          1           0       -1.722019   -0.433006   -0.684886
     15          1           0       -2.782513   -0.591082    0.712071
     16          1           0       -3.667644    0.286572   -2.080812
     17          1           0       -4.728150    0.129270   -0.685040
     18          1           0       -4.200937   -2.328749   -0.555174
     19          1           0       -3.134404   -2.170553   -1.958878
     20          1           0       -4.877740   -1.909872   -2.138143
     21          6           0        2.647649   -0.054698   -0.320391
     22          6           0        4.081895    0.091191   -0.829939
     23          6           0        4.312392    1.403909   -1.579229
     24          1           0        1.954848    0.010429   -1.170526
     25          1           0        2.412643    0.791593    0.339880
     26          1           0        4.314589   -0.755854   -1.487954
     27          1           0        4.771373    0.025517    0.021485
     28          1           0        4.107287    2.260081   -0.928458
     29          1           0        3.647908    1.474270   -2.446474
     30          1           0        5.344147    1.487449   -1.934702
     31          6           0        2.401634   -1.361968    0.430775
     32          6           0        0.967388   -1.507857    0.940324
     33          6           0        0.736891   -2.820575    1.689614
     34          1           0        2.636640   -2.208260   -0.229496
     35          1           0        3.094435   -1.427095    1.280910
     36          1           0        0.277910   -1.442183    0.088900
     37          1           0        0.734694   -0.660812    1.598339
     38          1           0        1.401375   -2.890935    2.556859
     39          1           0        0.941996   -3.676747    1.038843
     40          1           0       -0.294865   -2.904116    2.045087
 ---------------------------------------------------------------------

 SCF Done:  E(RHF) =  -470.731880908     A.U. after   11 cycles
 E2 =    -0.1584954186D+01 EUMP2 =    -0.47231683509439D+03

 The electronic state is 1-A.
 Alpha  occ. eigenvalues --  -11.21634 -11.21590 -11.21486 -11.21465 -11.21433
 Alpha  occ. eigenvalues --  -11.21368 -11.21341 -11.21309 -11.21099 -11.21078
 Alpha  occ. eigenvalues --  -11.21035 -11.21016  -1.08480  -1.08361  -1.03536
 Alpha  occ. eigenvalues --   -1.03484  -0.95985  -0.95949  -0.86996  -0.86971
 Alpha  occ. eigenvalues --   -0.79710  -0.79525  -0.78538  -0.77894  -0.65108
 Alpha  occ. eigenvalues --   -0.65008  -0.60957  -0.60876  -0.59412  -0.59265
 Alpha  occ. eigenvalues --   -0.57663  -0.57497  -0.55273  -0.55245  -0.52707
 Alpha  occ. eigenvalues --   -0.52621  -0.52417  -0.52376  -0.49961  -0.49872
 Alpha  occ. eigenvalues --   -0.48156  -0.47865  -0.46699  -0.46642  -0.46267
 Alpha  occ. eigenvalues --   -0.45770  -0.45528  -0.44908  -0.43782  -0.43727
 Alpha virt. eigenvalues --    0.21432   0.23180   0.23662   0.24091   0.24647
 Alpha virt. eigenvalues --    0.26242   0.26407   0.28215   0.28345   0.29813
 Alpha virt. eigenvalues --    0.30671   0.31105   0.31807   0.31838   0.32046

 Mulliken charges:
               1
     1  C   -0.297807
     2  C   -0.307307
     3  C   -0.475305
     4  H    0.149119
     5  H    0.149055
     6  H    0.162535
     7  H    0.150967
     8  H    0.154853
     9  H    0.155087
    10  H    0.159051
    11  C   -0.302473
    12  C   -0.299096
    13  C   -0.475535
    14  H    0.153996
    15  H    0.149421
    16  H    0.151650
    17  H    0.151914
    18  H    0.155213
    19  H    0.154484
    20  H    0.160312
    21  C   -0.300753
    22  C   -0.299486
    23  C   -0.475774
    24  H    0.148389
    25  H    0.151209
    26  H    0.152122
    27  H    0.152235
    28  H    0.155340
    29  H    0.154938
    30  H    0.160436
    31  C   -0.297484
    32  C   -0.308461
    33  C   -0.475304
    34  H    0.148990
    35  H    0.149290
    36  H    0.156928
    37  H    0.158046
    38  H    0.154581
    39  H    0.154553
    40  H    0.160072
 Sum of Mulliken charges =  -0.00000

 Dipole moment (field-independent basis, Debye):
    X=              0.0145    Y=             -0.0017    Z=             -0.0004  Tot=              0.0146
 Quadrupole moment (field-independent basis, Debye-Ang):
   XX=            -84.5982   YY=            -86.6313   ZZ=            -83.8086
   XY=             -0.3194   XZ=             -0.1735   YZ=              0.4845

 Normal termination of Gaussian 16 at Wed May  5 18:25:47 2021.
