 Gaussian 16, Revision A.03,
 Gaussian 16:  EM64L-G16RevA.03 25-Dec-2016

 -------------
 #p 6-31g* mp2
 -------------

 ------------------------------------------------------
 Input file generated by CHIRIPA (05-May-2021 14:55:24)
 ------------------------------------------------------
 Symbolic Z-matrix:
 Charge =  0 Multiplicity = 1

                         Standard orientation:
 ---------------------------------------------------------------------
 Center     Atomic      Atomic             Coordinates (Angstroms)
 Number     Number       Type             X           Y           Z
 ---------------------------------------------------------------------
      1          6           0       -4.344094   -1.856491   -0.567382
      2          6           0       -3.061319   -1.862327   -0.009731
      3          6           0       -2.413432   -0.661122    0.293414
      4          6           0       -3.080650    0.532972    0.024619
      5          6           0       -4.358815    0.571626   -0.530441
      6          6           0       -4.987613   -0.641675   -0.825502
      7          1           0       -4.839974   -2.794315   -0.799732
      8          1           0       -2.559142   -2.804265    0.191804
      9          1           0       -1.420442   -0.636663    0.725606
     10          1           0       -4.834008    1.526441   -0.720013
     11          1           0       -5.983843   -0.634106   -1.258531
     12          7           0       -2.404865    1.811037    0.341266
     13          8           0       -3.014131    2.849658    0.094895
     14          8           0       -1.278716    1.749962    0.829830
     15          6           0        4.709042   -0.014445    0.226289
     16          6           0        5.637552    0.262801   -0.956498
     17          6           0        6.879957    1.060181   -0.558491
     18          1           0        4.404956    0.940126    0.677144
     19          1           0        5.265264   -0.562219    0.999566
     20          1           0        5.079361    0.808677   -1.727898
     21          1           0        5.939310   -0.692534   -1.404708
     22          1           0        7.461202    0.517594    0.194075
     23          1           0        6.596367    2.027335   -0.130951
     24          1           0        7.529750    1.247124   -1.419119
     25          6           0        3.462549   -0.810722   -0.155715
     26          6           0        2.534038   -1.087970    1.027072
     27          6           0        1.291633   -1.885349    0.629065
     28          1           0        2.906327   -0.262950   -0.928993
     29          1           0        3.766634   -1.765294   -0.606571
     30          1           0        2.232282   -0.132633    1.475282
     31          1           0        3.092230   -1.633846    1.798472
     32          1           0        1.575224   -2.852503    0.201525
     33          1           0        0.710389   -1.342762   -0.123501
     34          1           0        0.641841   -2.072292    1.489693
 ---------------------------------------------------------------------

 SCF Done:  E(RHF) =  -669.535567525     A.U. after   15 cycles
 E2 =    -0.2091431098D+01 EUMP2 =    -0.67162699862290D+03

 The electronic state is 1-A.
 Alpha  occ. eigenvalues --  -20.60760 -20.60752 -15.85808 -11.31119 -11.27708
 Alpha  occ. eigenvalues --  -11.27613 -11.27446 -11.26720 -11.26686 -11.21603
 Alpha  occ. eigenvalues --  -11.21517 -11.21412 -11.21285 -11.21174 -11.20868
 Alpha  occ. eigenvalues --   -1.59833  -1.39387  -1.19300  -1.08708  -1.08328
 Alpha  occ. eigenvalues --   -1.04697  -1.03510  -0.96012  -0.95543  -0.87045
 Alpha  occ. eigenvalues --   -0.86092  -0.82379  -0.79580  -0.78114  -0.77426
 Alpha  occ. eigenvalues --   -0.72030  -0.71155  -0.70422  -0.64973  -0.64951
 Alpha  occ. eigenvalues --   -0.64686  -0.62110  -0.60852  -0.59381  -0.57590
 Alpha  occ. eigenvalues --   -0.55402  -0.55105  -0.53039  -0.52902  -0.52606
 Alpha  occ. eigenvalues --   -0.52414  -0.49900  -0.48784  -0.48781  -0.47891
 Alpha  occ. eigenvalues --   -0.46552  -0.45670  -0.45555  -0.44802  -0.43755
 Alpha  occ. eigenvalues --   -0.37291  -0.36292
 Alpha virt. eigenvalues --    0.05071   0.11315   0.16581   0.20823   0.23024
 Alpha virt. eigenvalues --    0.24103   0.26435   0.26837   0.27642   0.27999
 Alpha virt. eigenvalues --    0.29468   0.30883   0.31301   0.31664   0.32290

 Mulliken charges:
               1
     1  C   -0.170579
     2  C   -0.222168
     3  C   -0.178602
     4  C    0.157977
     5  C   -0.170406
     6  C   -0.218992
     7  H    0.225356
     8  H    0.224514
     9  H    0.287704
    10  H    0.275245
    11  H    0.223163
    12  N    0.487548
    13  O   -0.460422
    14  O   -0.461653
    15  C   -0.299300
    16  C   -0.299835
    17  C   -0.475890
    18  H    0.154290
    19  H    0.148457
    20  H    0.153300
    21  H    0.150365
    22  H    0.154443
    23  H    0.156921
    24  H    0.159776
    25  C   -0.299313
    26  C   -0.300815
    27  C   -0.484735
    28  H    0.153191
    29  H    0.147152
    30  H    0.164409
    31  H    0.151713
    32  H    0.155636
    33  H    0.157309
    34  H    0.154245
 Sum of Mulliken charges =  -0.00000

 Dipole moment (field-independent basis, Debye):
    X=             -2.2741    Y=             -4.4232    Z=             -1.1027  Tot=              5.0943
 Quadrupole moment (field-independent basis, Debye-Ang):
   XX=            -77.7254   YY=            -98.5414   ZZ=            -95.0510
   XY=              9.7738   XZ=              5.1057   YZ=             -1.8418

 Normal termination of Gaussian 16 at Wed May  5 20:45:35 2021.
