 Gaussian 16, Revision A.03,
 Gaussian 16:  EM64L-G16RevA.03 25-Dec-2016

 -------------
 #p 6-31g* mp2
 -------------

 ------------------------------------------------------
 Input file generated by CHIRIPA (05-May-2021 14:51:08)
 ------------------------------------------------------
 Symbolic Z-matrix:
 Charge =  0 Multiplicity = 1

                         Standard orientation:
 ---------------------------------------------------------------------
 Center     Atomic      Atomic             Coordinates (Angstroms)
 Number     Number       Type             X           Y           Z
 ---------------------------------------------------------------------
      1          6           0       -2.748907   -0.950219    0.129932
      2          6           0       -1.769176   -0.623133    1.257375
      3          6           0       -0.500434   -1.474719    1.203639
      4          1           0       -3.017233   -2.014230    0.183106
      5          1           0       -2.247519   -0.802228   -0.836558
      6          1           0       -2.272690   -0.770366    2.221436
      7          1           0       -1.503300    0.440266    1.201628
      8          1           0        0.026874   -1.321019    0.256579
      9          1           0       -0.746888   -2.538530    1.282181
     10          1           0        0.185904   -1.224410    2.018591
     11          6           0       -4.022192   -0.107099    0.170190
     12          6           0       -5.001923   -0.434185   -0.957253
     13          6           0       -6.270665    0.417402   -0.903517
     14          1           0       -4.523580   -0.255090    1.136681
     15          1           0       -3.753866    0.956912    0.117016
     16          1           0       -5.267800   -1.497584   -0.901506
     17          1           0       -4.498409   -0.286952   -1.921314
     18          1           0       -6.024211    1.481212   -0.982059
     19          1           0       -6.797973    0.263701    0.043543
     20          1           0       -6.957003    0.167092   -1.718468
     21          6           0        2.821876    0.811279    0.281019
     22          6           0        2.212505    2.095183   -0.283110
     23          6           0        1.086146    2.648422    0.590408
     24          1           0        2.032791    0.054308    0.387249
     25          1           0        3.203967    1.008522    1.292204
     26          1           0        1.832918    1.895928   -1.293470
     27          1           0        3.003169    2.849123   -0.388190
     28          1           0        1.454510    2.875061    1.596163
     29          1           0        0.277610    1.916450    0.685739
     30          1           0        0.664858    3.566266    0.168580
     31          6           0        3.949224    0.246039   -0.581141
     32          6           0        4.558594   -1.037865   -0.017012
     33          6           0        5.684954   -1.591104   -0.890530
     34          1           0        3.567132    0.048797   -1.592327
     35          1           0        4.738309    1.003010   -0.687371
     36          1           0        3.767930   -1.791805    0.088068
     37          1           0        4.938181   -0.838610    0.993348
     38          1           0        6.493490   -0.859132   -0.985861
     39          1           0        5.316590   -1.817743   -1.896286
     40          1           0        6.106242   -2.508948   -0.468702
 ---------------------------------------------------------------------

 SCF Done:  E(RHF) =  -470.732596001     A.U. after   11 cycles
 E2 =    -0.1583881580D+01 EUMP2 =    -0.47231647758079D+03

 The electronic state is 1-A.
 Alpha  occ. eigenvalues --  -11.21654 -11.21623 -11.21576 -11.21558 -11.21445
 Alpha  occ. eigenvalues --  -11.21381 -11.21339 -11.21250 -11.21144 -11.21084
 Alpha  occ. eigenvalues --  -11.21053 -11.21039  -1.08479  -1.08379  -1.03594
 Alpha  occ. eigenvalues --   -1.03485  -0.96032  -0.95947  -0.87071  -0.86946
 Alpha  occ. eigenvalues --   -0.79650  -0.79560  -0.78285  -0.78195  -0.65232
 Alpha  occ. eigenvalues --   -0.64930  -0.61175  -0.60726  -0.59418  -0.59281
 Alpha  occ. eigenvalues --   -0.57662  -0.57538  -0.55355  -0.55240  -0.52746
 Alpha  occ. eigenvalues --   -0.52641  -0.52451  -0.52387  -0.50170  -0.49741
 Alpha  occ. eigenvalues --   -0.48022  -0.47829  -0.46704  -0.46543  -0.45884
 Alpha  occ. eigenvalues --   -0.45731  -0.45689  -0.45510  -0.43813  -0.43741
 Alpha virt. eigenvalues --    0.20591   0.23049   0.23687   0.25106   0.26052
 Alpha virt. eigenvalues --    0.26137   0.27112   0.27264   0.28553   0.29463
 Alpha virt. eigenvalues --    0.30416   0.31443   0.31739   0.31871   0.32176

 Mulliken charges:
               1
     1  C   -0.298124
     2  C   -0.307351
     3  C   -0.479243
     4  H    0.149885
     5  H    0.149333
     6  H    0.152977
     7  H    0.158120
     8  H    0.156091
     9  H    0.156023
    10  H    0.162731
    11  C   -0.298507
    12  C   -0.299689
    13  C   -0.475755
    14  H    0.149725
    15  H    0.150055
    16  H    0.151950
    17  H    0.151912
    18  H    0.155333
    19  H    0.155245
    20  H    0.160305
    21  C   -0.307730
    22  C   -0.298600
    23  C   -0.483688
    24  H    0.160780
    25  H    0.148671
    26  H    0.150817
    27  H    0.151873
    28  H    0.155368
    29  H    0.162241
    30  H    0.159907
    31  C   -0.297716
    32  C   -0.299864
    33  C   -0.475632
    34  H    0.148753
    35  H    0.149346
    36  H    0.152433
    37  H    0.151781
    38  H    0.155059
    39  H    0.155022
    40  H    0.160163
 Sum of Mulliken charges =  -0.00000

 Dipole moment (field-independent basis, Debye):
    X=             -0.0459    Y=             -0.0312    Z=              0.0292  Tot=              0.0627
 Quadrupole moment (field-independent basis, Debye-Ang):
   XX=            -85.8576   YY=            -84.6043   ZZ=            -84.4242
   XY=              1.6001   XZ=              0.4582   YZ=             -0.3696

 Normal termination of Gaussian 16 at Wed May  5 22:55:19 2021.
