 Gaussian 16, Revision A.03,
 Gaussian 16:  EM64L-G16RevA.03 25-Dec-2016

 -------------
 #p 6-31g* mp2
 -------------

 ------------------------------------------------------
 Input file generated by CHIRIPA (05-May-2021 14:53:15)
 ------------------------------------------------------
 Symbolic Z-matrix:
 Charge =  0 Multiplicity = 1

                         Standard orientation:
 ---------------------------------------------------------------------
 Center     Atomic      Atomic             Coordinates (Angstroms)
 Number     Number       Type             X           Y           Z
 ---------------------------------------------------------------------
      1          6           0       -2.605086    0.835996    0.270553
      2          6           0       -2.115666    2.182199   -0.264415
      3          6           0       -1.938227    3.227080    0.837644
      4          1           0       -3.558688    0.982260    0.796097
      5          1           0       -1.890198    0.464433    1.017727
      6          1           0       -2.830556    2.550454   -1.011366
      7          1           0       -1.163215    2.032683   -0.788912
      8          1           0       -1.209304    2.884753    1.579321
      9          1           0       -2.886119    3.405466    1.355602
     10          1           0       -1.587792    4.181743    0.433078
     11          6           0       -2.787282   -0.218934   -0.819243
     12          6           0       -3.276703   -1.565137   -0.284276
     13          6           0       -3.454142   -2.610018   -1.386335
     14          1           0       -3.502171    0.152629   -1.566418
     15          1           0       -1.833681   -0.365198   -1.344788
     16          1           0       -4.229154   -1.415621    0.240221
     17          1           0       -2.561812   -1.933392    0.462676
     18          1           0       -2.506250   -2.788405   -1.904293
     19          1           0       -4.183065   -2.267692   -2.128011
     20          1           0       -3.804576   -3.564681   -0.981768
     21          6           0        0.936066   -1.366899    2.145315
     22          6           0        1.804157   -2.099893    1.329435
     23          6           0        2.458003   -1.486429    0.256731
     24          6           0        2.219537   -0.132196    0.027652
     25          6           0        1.360441    0.624989    0.822583
     26          6           0        0.717364   -0.009192    1.889736
     27          1           0        0.432327   -1.851500    2.976463
     28          1           0        1.975907   -3.154446    1.525558
     29          1           0        3.135172   -2.030165   -0.390736
     30          1           0        1.209277    1.674743    0.602166
     31          1           0        0.043730    0.562546    2.521699
     32          7           0        2.906034    0.528217   -1.105034
     33          8           0        2.679021    1.722544   -1.285820
     34          8           0        3.658123   -0.160984   -1.790600
 ---------------------------------------------------------------------

 SCF Done:  E(RHF) =  -669.534626719     A.U. after   15 cycles
 E2 =    -0.2094530601D+01 EUMP2 =    -0.67162915732074D+03

 The electronic state is 1-A.
 Alpha  occ. eigenvalues --  -20.60860 -20.60854 -15.85911 -11.31305 -11.27857
 Alpha  occ. eigenvalues --  -11.27851 -11.27610 -11.26888 -11.26875 -11.21937
 Alpha  occ. eigenvalues --  -11.21910 -11.21700 -11.21672 -11.21602 -11.21314
 Alpha  occ. eigenvalues --   -1.59933  -1.39485  -1.19481  -1.08880  -1.08751
 Alpha  occ. eigenvalues --   -1.04893  -1.03893  -0.96351  -0.95695  -0.87368
 Alpha  occ. eigenvalues --   -0.86284  -0.82536  -0.79946  -0.78582  -0.77572
 Alpha  occ. eigenvalues --   -0.72128  -0.71257  -0.70578  -0.65491  -0.65110
 Alpha  occ. eigenvalues --   -0.64874  -0.62320  -0.61185  -0.59705  -0.57954
 Alpha  occ. eigenvalues --   -0.55698  -0.55362  -0.53217  -0.53047  -0.52990
 Alpha  occ. eigenvalues --   -0.52747  -0.50311  -0.48893  -0.48881  -0.48262
 Alpha  occ. eigenvalues --   -0.46975  -0.46108  -0.46022  -0.44881  -0.44117
 Alpha  occ. eigenvalues --   -0.37435  -0.36409
 Alpha virt. eigenvalues --    0.04927   0.11030   0.16332   0.19412   0.22955
 Alpha virt. eigenvalues --    0.23585   0.25565   0.26583   0.27102   0.28541
 Alpha virt. eigenvalues --    0.29159   0.29500   0.31362   0.31420   0.32016

 Mulliken charges:
               1
     1  C   -0.302220
     2  C   -0.305536
     3  C   -0.476973
     4  H    0.148347
     5  H    0.146931
     6  H    0.156598
     7  H    0.158101
     8  H    0.141696
     9  H    0.157699
    10  H    0.167217
    11  C   -0.297874
    12  C   -0.299477
    13  C   -0.476026
    14  H    0.151333
    15  H    0.153156
    16  H    0.151111
    17  H    0.147897
    18  H    0.156769
    19  H    0.156877
    20  H    0.159039
    21  C   -0.172361
    22  C   -0.218353
    23  C   -0.170821
    24  C    0.158160
    25  C   -0.171955
    26  C   -0.220072
    27  H    0.226703
    28  H    0.224160
    29  H    0.276018
    30  H    0.279275
    31  H    0.226626
    32  N    0.488274
    33  O   -0.460451
    34  O   -0.459868
 Sum of Mulliken charges =  -0.00000

 Dipole moment (field-independent basis, Debye):
    X=             -2.3912    Y=             -2.3153    Z=              3.8819  Tot=              5.1135
 Quadrupole moment (field-independent basis, Debye-Ang):
   XX=           -104.2160   YY=            -91.0147   ZZ=            -95.3608
   XY=             -7.7878   XZ=              8.5162   YZ=             -0.3254

 Normal termination of Gaussian 16 at Wed May  5 23:31:56 2021.
