 Gaussian 16, Revision A.03,
 Gaussian 16:  EM64L-G16RevA.03 25-Dec-2016

 -------------
 #p 6-31g* mp2
 -------------

 ------------------------------------------------------
 Input file generated by CHIRIPA (05-May-2021 14:57:26)
 ------------------------------------------------------
 Symbolic Z-matrix:
 Charge =  0 Multiplicity = 1

                         Standard orientation:
 ---------------------------------------------------------------------
 Center     Atomic      Atomic             Coordinates (Angstroms)
 Number     Number       Type             X           Y           Z
 ---------------------------------------------------------------------
      1          6           0       -5.241885    0.779375   -0.024172
      2          6           0       -4.305422    1.238976   -0.956012
      3          6           0       -3.048430    0.635273   -1.056316
      4          6           0       -2.760028   -0.430524   -0.205323
      5          6           0       -3.671744   -0.911268    0.733267
      6          6           0       -4.922620   -0.292390    0.816012
      7          1           0       -6.215972    1.254240    0.046926
      8          1           0       -4.550622    2.071136   -1.609795
      9          1           0       -2.304652    0.970935   -1.768737
     10          1           0       -3.398381   -1.742783    1.371447
     11          1           0       -5.647919   -0.651434    1.540632
     12          7           0       -1.432544   -1.077670   -0.302215
     13          8           0       -1.202890   -2.014970    0.458945
     14          8           0       -0.646851   -0.635349   -1.137486
     15          6           0        1.958157    2.571745    0.710150
     16          6           0        1.406099    1.408686    1.257002
     17          6           0        1.963353    0.157825    0.975287
     18          6           0        3.077487    0.106550    0.139005
     19          6           0        3.650361    1.247337   -0.421096
     20          6           0        3.076554    2.487507   -0.125680
     21          1           0        1.518840    3.539291    0.934316
     22          1           0        0.537551    1.471086    1.906445
     23          1           0        1.556127   -0.758458    1.385176
     24          1           0        4.516323    1.153309   -1.065059
     25          1           0        3.507403    3.389088   -0.551783
     26          7           0        3.676189   -1.212021   -0.166487
     27          8           0        4.657615   -1.230326   -0.906151
     28          8           0        3.152688   -2.202245    0.339518
 ---------------------------------------------------------------------

 SCF Done:  E(RHF) =  -868.337558298     A.U. after   16 cycles
 E2 =    -0.2601044227D+01 EUMP2 =    -0.87093860252438D+03

 The electronic state is 1-A.
 Alpha  occ. eigenvalues --  -20.61257 -20.61214 -20.59540 -20.59477 -15.86244
 Alpha  occ. eigenvalues --  -15.84569 -11.31629 -11.29984 -11.28190 -11.28184
 Alpha  occ. eigenvalues --  -11.27923 -11.27199 -11.27184 -11.26713 -11.26555
 Alpha  occ. eigenvalues --  -11.26545 -11.25758 -11.25709  -1.60299  -1.58581
 Alpha  occ. eigenvalues --   -1.39847  -1.38131  -1.19799  -1.18230  -1.09191
 Alpha  occ. eigenvalues --   -1.07644  -1.05194  -1.03675  -0.96020  -0.94453
 Alpha  occ. eigenvalues --   -0.86589  -0.85082  -0.82846  -0.81303  -0.77900
 Alpha  occ. eigenvalues --   -0.76298  -0.72454  -0.71653  -0.70890  -0.70804
 Alpha  occ. eigenvalues --   -0.69885  -0.69407  -0.65442  -0.65186  -0.63922
 Alpha  occ. eigenvalues --   -0.63740  -0.62533  -0.61021  -0.55685  -0.54266
 Alpha  occ. eigenvalues --   -0.53539  -0.53276  -0.51987  -0.51812  -0.49227
 Alpha  occ. eigenvalues --   -0.49196  -0.47582  -0.47530  -0.45242  -0.43526
 Alpha  occ. eigenvalues --   -0.37788  -0.36804  -0.36259  -0.35205
 Alpha virt. eigenvalues --    0.04576   0.06285   0.10849   0.12410   0.16097
 Alpha virt. eigenvalues --    0.17678   0.21034   0.22287   0.26949   0.27893
 Alpha virt. eigenvalues --    0.28142   0.29265   0.30632   0.31791   0.32158

 Mulliken charges:
               1
     1  C   -0.170818
     2  C   -0.219017
     3  C   -0.171958
     4  C    0.156688
     5  C   -0.172235
     6  C   -0.218703
     7  H    0.226795
     8  H    0.224142
     9  H    0.276603
    10  H    0.276869
    11  H    0.224908
    12  N    0.485127
    13  O   -0.459603
    14  O   -0.455216
    15  C   -0.171055
    16  C   -0.223212
    17  C   -0.156296
    18  C    0.159439
    19  C   -0.170328
    20  C   -0.220215
    21  H    0.218516
    22  H    0.215555
    23  H    0.286416
    24  H    0.272470
    25  H    0.217851
    26  N    0.488441
    27  O   -0.467267
    28  O   -0.453897
 Sum of Mulliken charges =  -0.00000

 Dipole moment (field-independent basis, Debye):
    X=             -7.0436    Y=              6.6038    Z=              1.3539  Tot=              9.7496
 Quadrupole moment (field-independent basis, Debye-Ang):
   XX=            -90.7207   YY=           -104.2909   ZZ=           -101.4100
   XY=             11.8433   XZ=             -0.2456   YZ=             -4.2698

 Normal termination of Gaussian 16 at Thu May  6 00:26:06 2021.
