 Gaussian 16, Revision A.03,
 Gaussian 16:  EM64L-G16RevA.03 25-Dec-2016

 -------------
 #p 6-31g* mp2
 -------------

 ------------------------------------------------------
 Input file generated by CHIRIPA (05-May-2021 14:57:26)
 ------------------------------------------------------
 Symbolic Z-matrix:
 Charge =  0 Multiplicity = 1

                         Standard orientation:
 ---------------------------------------------------------------------
 Center     Atomic      Atomic             Coordinates (Angstroms)
 Number     Number       Type             X           Y           Z
 ---------------------------------------------------------------------
      1          6           0        4.261348    1.635474    0.788534
      2          6           0        3.147933    1.233893    1.533894
      3          6           0        2.307657    0.219800    1.064747
      4          6           0        2.611880   -0.373770   -0.159350
      5          6           0        3.713713    0.004243   -0.925092
      6          6           0        4.540192    1.020451   -0.436421
      7          1           0        4.908736    2.424068    1.160562
      8          1           0        2.928937    1.709753    2.485547
      9          1           0        1.439081   -0.110584    1.621379
     10          1           0        3.906288   -0.488822   -1.870195
     11          1           0        5.404192    1.330281   -1.017416
     12          7           0        1.729620   -1.448465   -0.666350
     13          8           0        2.019364   -1.955609   -1.747780
     14          8           0        0.765066   -1.763317    0.027294
     15          6           0       -2.459836   -1.942606    1.380030
     16          6           0       -2.647407   -1.987724   -0.005359
     17          6           0       -2.813261   -0.808724   -0.738161
     18          6           0       -2.786043    0.403462   -0.050299
     19          6           0       -2.601086    0.481192    1.329208
     20          6           0       -2.437315   -0.710465    2.041726
     21          1           0       -2.331807   -2.863398    1.941410
     22          1           0       -2.665341   -2.943194   -0.521885
     23          1           0       -2.960169   -0.814729   -1.811380
     24          1           0       -2.587867    1.448688    1.816236
     25          1           0       -2.291823   -0.672394    3.117564
     26          7           0       -2.960523    1.658316   -0.815346
     27          8           0       -2.932613    2.713561   -0.185807
     28          8           0       -3.121887    1.562867   -2.030043
 ---------------------------------------------------------------------

 SCF Done:  E(RHF) =  -868.338457576     A.U. after   16 cycles
 E2 =    -0.2600521994D+01 EUMP2 =    -0.87093897957076D+03

 The electronic state is 1-A.
 Alpha  occ. eigenvalues --  -20.61053 -20.61048 -20.60200 -20.60177 -15.86082
 Alpha  occ. eigenvalues --  -15.85236 -11.31325 -11.30347 -11.27897 -11.27870
 Alpha  occ. eigenvalues --  -11.27598 -11.26986 -11.26879 -11.26853 -11.26799
 Alpha  occ. eigenvalues --  -11.26550 -11.25971 -11.25723  -1.60127  -1.59274
 Alpha  occ. eigenvalues --   -1.39684  -1.38834  -1.19486  -1.18479  -1.08907
 Alpha  occ. eigenvalues --   -1.07918  -1.04875  -1.03864  -0.95766  -0.94806
 Alpha  occ. eigenvalues --   -0.86279  -0.85284  -0.82606  -0.81663  -0.77669
 Alpha  occ. eigenvalues --   -0.76750  -0.72336  -0.71465  -0.71438  -0.70598
 Alpha  occ. eigenvalues --   -0.70593  -0.69614  -0.65147  -0.64882  -0.64155
 Alpha  occ. eigenvalues --   -0.63897  -0.62230  -0.61250  -0.55380  -0.54374
 Alpha  occ. eigenvalues --   -0.53204  -0.52972  -0.52153  -0.51986  -0.49097
 Alpha  occ. eigenvalues --   -0.49061  -0.48231  -0.48197  -0.45104  -0.44297
 Alpha  occ. eigenvalues --   -0.37456  -0.36473  -0.36368  -0.35389
 Alpha virt. eigenvalues --    0.04847   0.05800   0.11188   0.12222   0.16376
 Alpha virt. eigenvalues --    0.17363   0.21296   0.22235   0.27171   0.28007
 Alpha virt. eigenvalues --    0.28279   0.29115   0.30829   0.31747   0.32306

 Mulliken charges:
               1
     1  C   -0.169752
     2  C   -0.217609
     3  C   -0.170359
     4  C    0.158157
     5  C   -0.169976
     6  C   -0.218167
     7  H    0.226678
     8  H    0.223033
     9  H    0.272699
    10  H    0.275964
    11  H    0.224477
    12  N    0.490663
    13  O   -0.460721
    14  O   -0.465720
    15  C   -0.159987
    16  C   -0.199494
    17  C   -0.169265
    18  C    0.157381
    19  C   -0.176153
    20  C   -0.221946
    21  H    0.224019
    22  H    0.225635
    23  H    0.274421
    24  H    0.268970
    25  H    0.216306
    26  N    0.487849
    27  O   -0.465998
    28  O   -0.461105
 Sum of Mulliken charges =  -0.00000

 Dipole moment (field-independent basis, Debye):
    X=              3.8965    Y=             -0.9168    Z=              4.3343  Tot=              5.8999
 Quadrupole moment (field-independent basis, Debye-Ang):
   XX=            -91.6895   YY=           -110.7683   ZZ=            -99.5585
   XY=             22.5828   XZ=             -5.3825   YZ=              3.0593

 Normal termination of Gaussian 16 at Wed May  5 21:15:58 2021.
