 Gaussian 16, Revision A.03,
 Gaussian 16:  EM64L-G16RevA.03 25-Dec-2016

 -------------
 #p 6-31g* mp2
 -------------

 ------------------------------------------------------
 Input file generated by CHIRIPA (05-May-2021 14:53:16)
 ------------------------------------------------------
 Symbolic Z-matrix:
 Charge =  0 Multiplicity = 1

                         Standard orientation:
 ---------------------------------------------------------------------
 Center     Atomic      Atomic             Coordinates (Angstroms)
 Number     Number       Type             X           Y           Z
 ---------------------------------------------------------------------
      1          6           0       -4.608533   -0.297191   -0.299732
      2          6           0       -4.678272   -1.812434   -0.106962
      3          6           0       -5.755223   -2.469320   -0.970946
      4          1           0       -5.587793    0.141480   -0.064014
      5          1           0       -4.414547   -0.077856   -1.358815
      6          1           0       -4.870693   -2.028876    0.951689
      7          1           0       -3.698677   -2.247526   -0.342981
      8          1           0       -5.564250   -2.282634   -2.032680
      9          1           0       -6.742924   -2.062741   -0.730653
     10          1           0       -5.787696   -3.552479   -0.817413
     11          6           0       -3.536635    0.373837    0.557289
     12          6           0       -3.466896    1.889080    0.364520
     13          6           0       -2.389944    2.545967    1.228504
     14          1           0       -3.730620    0.154502    1.616372
     15          1           0       -2.557375   -0.064833    0.321572
     16          1           0       -4.446490    2.324173    0.600539
     17          1           0       -3.274475    2.105523   -0.694131
     18          1           0       -1.402243    2.139388    0.988211
     19          1           0       -2.580918    2.359280    2.290238
     20          1           0       -2.357472    3.629126    1.074971
     21          6           0        4.619798   -1.914383    0.763504
     22          6           0        4.966341   -1.255774   -0.420837
     23          6           0        4.176903   -0.210286   -0.908989
     24          6           0        3.042677    0.152241   -0.184147
     25          6           0        2.671077   -0.484561    0.998936
     26          6           0        3.475290   -1.527357    1.468368
     27          1           0        5.238791   -2.725497    1.135441
     28          1           0        5.854619   -1.554208   -0.970331
     29          1           0        4.421951    0.316694   -1.823133
     30          1           0        1.779677   -0.164576    1.524705
     31          1           0        3.203725   -2.037048    2.388428
     32          7           0        2.199113    1.257627   -0.691023
     33          8           0        1.204857    1.558027   -0.033868
     34          8           0        2.548158    1.802698   -1.735869
 ---------------------------------------------------------------------

 SCF Done:  E(RHF) =  -669.536130117     A.U. after   15 cycles
 E2 =    -0.2090747225D+01 EUMP2 =    -0.67162687734169D+03

 The electronic state is 1-A.
 Alpha  occ. eigenvalues --  -20.60942 -20.60929 -15.85988 -11.31295 -11.27858
 Alpha  occ. eigenvalues --  -11.27855 -11.27595 -11.26865 -11.26855 -11.21230
 Alpha  occ. eigenvalues --  -11.20842 -11.20768 -11.20691 -11.20628 -11.19783
 Alpha  occ. eigenvalues --   -1.60005  -1.39562  -1.19464  -1.08869  -1.07786
 Alpha  occ. eigenvalues --   -1.04859  -1.02821  -0.95715  -0.95259  -0.86282
 Alpha  occ. eigenvalues --   -0.86257  -0.82549  -0.78923  -0.77624  -0.77556
 Alpha  occ. eigenvalues --   -0.72215  -0.71322  -0.70573  -0.65122  -0.64862
 Alpha  occ. eigenvalues --   -0.64413  -0.62206  -0.60202  -0.58685  -0.56871
 Alpha  occ. eigenvalues --   -0.55364  -0.54524  -0.53192  -0.52951  -0.51955
 Alpha  occ. eigenvalues --   -0.51688  -0.49236  -0.48964  -0.48906  -0.47221
 Alpha  occ. eigenvalues --   -0.45952  -0.45123  -0.45047  -0.44934  -0.43094
 Alpha  occ. eigenvalues --   -0.37443  -0.36460
 Alpha virt. eigenvalues --    0.04928   0.11194   0.16425   0.21260   0.23470
 Alpha virt. eigenvalues --    0.25002   0.26972   0.27355   0.27852   0.28275
 Alpha virt. eigenvalues --    0.28936   0.30779   0.31859   0.32316   0.32605

 Mulliken charges:
               1
     1  C   -0.297902
     2  C   -0.298905
     3  C   -0.475297
     4  H    0.148371
     5  H    0.150528
     6  H    0.149960
     7  H    0.150347
     8  H    0.155407
     9  H    0.154834
    10  H    0.158031
    11  C   -0.298221
    12  C   -0.298187
    13  C   -0.486065
    14  H    0.145282
    15  H    0.151337
    16  H    0.146973
    17  H    0.154912
    18  H    0.181373
    19  H    0.145711
    20  H    0.158821
    21  C   -0.170614
    22  C   -0.218578
    23  C   -0.170669
    24  C    0.157299
    25  C   -0.170685
    26  C   -0.218525
    27  H    0.226029
    28  H    0.223815
    29  H    0.275845
    30  H    0.275816
    31  H    0.224012
    32  N    0.496643
    33  O   -0.468791
    34  O   -0.458909
 Sum of Mulliken charges =  -0.00000

 Dipole moment (field-independent basis, Debye):
    X=              3.2504    Y=             -3.8589    Z=              1.7122  Tot=              5.3280
 Quadrupole moment (field-independent basis, Debye-Ang):
   XX=            -76.1020   YY=            -97.1574   ZZ=            -92.6048
   XY=            -11.8673   XZ=              1.5172   YZ=             -0.0592

 Normal termination of Gaussian 16 at Wed May  5 21:59:04 2021.
