 Gaussian 16, Revision A.03,
 Gaussian 16:  EM64L-G16RevA.03 25-Dec-2016

 -------------
 #p 6-31g* mp2
 -------------

 ------------------------------------------------------
 Input file generated by CHIRIPA (05-May-2021 14:53:14)
 ------------------------------------------------------
 Symbolic Z-matrix:
 Charge =  0 Multiplicity = 1

                         Standard orientation:
 ---------------------------------------------------------------------
 Center     Atomic      Atomic             Coordinates (Angstroms)
 Number     Number       Type             X           Y           Z
 ---------------------------------------------------------------------
      1          6           0       -4.192293   -0.052253   -0.410458
      2          6           0       -4.702273    1.011233    0.562632
      3          6           0       -6.162303    1.390020    0.312377
      4          1           0       -4.305795    0.316461   -1.439104
      5          1           0       -4.823711   -0.947740   -0.327942
      6          1           0       -4.069235    1.903945    0.479297
      7          1           0       -4.587367    0.640022    1.589090
      8          1           0       -6.810686    0.513896    0.415368
      9          1           0       -6.289610    1.785000   -0.700730
     10          1           0       -6.506286    2.151610    1.019141
     11          6           0       -2.734257   -0.441413   -0.172947
     12          6           0       -2.224277   -1.504899   -1.146036
     13          6           0       -0.764247   -1.883685   -0.895781
     14          1           0       -2.102839    0.454075   -0.255462
     15          1           0       -2.620755   -0.810126    0.855699
     16          1           0       -2.339183   -1.133688   -2.172494
     17          1           0       -2.857315   -2.397610   -1.062702
     18          1           0       -0.636941   -2.278665    0.117326
     19          1           0       -0.115864   -1.007561   -0.998772
     20          1           0       -0.420264   -2.645275   -1.602546
     21          6           0        3.335134    2.473330   -0.649075
     22          6           0        2.573022    2.358083    0.518155
     23          6           0        2.218432    1.099623    1.013224
     24          6           0        2.644830   -0.027632    0.312674
     25          6           0        3.405030    0.054469   -0.852936
     26          6           0        3.747977    1.323183   -1.329695
     27          1           0        3.606066    3.454915   -1.026546
     28          1           0        2.251008    3.249575    1.048807
     29          1           0        1.629214    0.981529    1.914498
     30          1           0        3.711341   -0.852406   -1.360055
     31          1           0        4.339926    1.409660   -2.236428
     32          7           0        2.275604   -1.365335    0.827090
     33          8           0        2.663664   -2.343090    0.191448
     34          8           0        1.605137   -1.410740    1.856191
 ---------------------------------------------------------------------

 SCF Done:  E(RHF) =  -669.535807101     A.U. after   15 cycles
 E2 =    -0.2092586366D+01 EUMP2 =    -0.67162839346634D+03

 The electronic state is 1-A.
 Alpha  occ. eigenvalues --  -20.60800 -20.60778 -15.85810 -11.31209 -11.27776
 Alpha  occ. eigenvalues --  -11.27773 -11.27524 -11.26796 -11.26787 -11.21422
 Alpha  occ. eigenvalues --  -11.21101 -11.21059 -11.20950 -11.20938 -11.20245
 Alpha  occ. eigenvalues --   -1.59844  -1.39400  -1.19384  -1.08774  -1.08071
 Alpha  occ. eigenvalues --   -1.04785  -1.03133  -0.95608  -0.95568  -0.86590
 Alpha  occ. eigenvalues --   -0.86182  -0.82440  -0.79230  -0.77886  -0.77482
 Alpha  occ. eigenvalues --   -0.72050  -0.71148  -0.70486  -0.65035  -0.64788
 Alpha  occ. eigenvalues --   -0.64706  -0.62130  -0.60535  -0.58953  -0.57175
 Alpha  occ. eigenvalues --   -0.55287  -0.54871  -0.53113  -0.52876  -0.52240
 Alpha  occ. eigenvalues --   -0.51989  -0.49522  -0.48810  -0.48804  -0.47510
 Alpha  occ. eigenvalues --   -0.46266  -0.45418  -0.45349  -0.44767  -0.43365
 Alpha  occ. eigenvalues --   -0.37347  -0.36389
 Alpha virt. eigenvalues --    0.05024   0.11258   0.16482   0.21399   0.23197
 Alpha virt. eigenvalues --    0.24712   0.26953   0.27299   0.27748   0.28206
 Alpha virt. eigenvalues --    0.28406   0.30958   0.31653   0.32147   0.32428

 Mulliken charges:
               1
     1  C   -0.297831
     2  C   -0.299113
     3  C   -0.475410
     4  H    0.147845
     5  H    0.150140
     6  H    0.148864
     7  H    0.152866
     8  H    0.155807
     9  H    0.154235
    10  H    0.158987
    11  C   -0.298136
    12  C   -0.300066
    13  C   -0.482262
    14  H    0.144650
    15  H    0.154342
    16  H    0.147627
    17  H    0.152267
    18  H    0.175328
    19  H    0.142022
    20  H    0.163033
    21  C   -0.170830
    22  C   -0.218712
    23  C   -0.171620
    24  C    0.157964
    25  C   -0.171619
    26  C   -0.218583
    27  H    0.225652
    28  H    0.223581
    29  H    0.276085
    30  H    0.276087
    31  H    0.223563
    32  N    0.492615
    33  O   -0.458831
    34  O   -0.460548
 Sum of Mulliken charges =  -0.00000

 Dipole moment (field-independent basis, Debye):
    X=              1.4223    Y=              4.5837    Z=             -1.7212  Tot=              5.0986
 Quadrupole moment (field-independent basis, Debye-Ang):
   XX=            -88.6261   YY=            -93.9278   ZZ=            -93.0412
   XY=             12.2276   XZ=             -7.0836   YZ=              2.8319

 Normal termination of Gaussian 16 at Thu May  6 17:07:01 2021.
