 Gaussian 16, Revision A.03,
 Gaussian 16:  EM64L-G16RevA.03 25-Dec-2016

 -------------
 #p 6-31g* mp2
 -------------

 ------------------------------------------------------
 Input file generated by CHIRIPA (05-May-2021 14:57:25)
 ------------------------------------------------------
 Symbolic Z-matrix:
 Charge =  0 Multiplicity = 1

                         Standard orientation:
 ---------------------------------------------------------------------
 Center     Atomic      Atomic             Coordinates (Angstroms)
 Number     Number       Type             X           Y           Z
 ---------------------------------------------------------------------
      1          6           0        4.718993    0.392562    0.628210
      2          6           0        4.013983   -0.531608    1.406279
      3          6           0        2.786538   -1.038144    0.968844
      4          6           0        2.291348   -0.596785   -0.257238
      5          6           0        2.970060    0.322979   -1.055157
      6          6           0        4.195704    0.816159   -0.597863
      7          1           0        5.671803    0.780863    0.975733
      8          1           0        4.417955   -0.862366    2.358881
      9          1           0        2.219825   -1.754496    1.551161
     10          1           0        2.541851    0.633867   -2.000357
     11          1           0        4.741032    1.533788   -1.204222
     12          7           0        0.992860   -1.125962   -0.730843
     13          8           0        0.578133   -0.721229   -1.814738
     14          8           0        0.414419   -1.935444   -0.009190
     15          6           0       -1.155613    2.641265    0.178995
     16          6           0       -1.582745    2.083088   -1.030350
     17          6           0       -2.331139    0.902277   -1.042230
     18          6           0       -2.635842    0.303486    0.179201
     19          6           0       -2.224772    0.835142    1.400533
     20          6           0       -1.477422    2.016612    1.388445
     21          1           0       -0.574649    3.558803    0.178915
     22          1           0       -1.334297    2.566022   -1.971145
     23          1           0       -2.674598    0.448564   -1.963968
     24          1           0       -2.487955    0.330762    2.322354
     25          1           0       -1.147046    2.447836    2.329158
     26          7           0       -3.427580   -0.946935    0.179310
     27          8           0       -3.682923   -1.455080    1.268909
     28          8           0       -3.777809   -1.395192   -0.910204
 ---------------------------------------------------------------------

 SCF Done:  E(RHF) =  -868.337756664     A.U. after   16 cycles
 E2 =    -0.2602177562D+01 EUMP2 =    -0.87093993422640D+03

 The electronic state is 1-A.
 Alpha  occ. eigenvalues --  -20.61045 -20.61038 -20.59565 -20.59533 -15.86060
 Alpha  occ. eigenvalues --  -15.84620 -11.31489 -11.30110 -11.28087 -11.28031
 Alpha  occ. eigenvalues --  -11.27812 -11.27107 -11.27068 -11.26802 -11.26683
 Alpha  occ. eigenvalues --  -11.26643 -11.25904 -11.25789  -1.60089  -1.58604
 Alpha  occ. eigenvalues --   -1.39648  -1.38163  -1.19664  -1.18350  -1.09047
 Alpha  occ. eigenvalues --   -1.07737  -1.05078  -1.03784  -0.95876  -0.94540
 Alpha  occ. eigenvalues --   -0.86470  -0.85187  -0.82714  -0.81380  -0.77752
 Alpha  occ. eigenvalues --   -0.76372  -0.72300  -0.71425  -0.70862  -0.70771
 Alpha  occ. eigenvalues --   -0.69871  -0.69520  -0.65319  -0.65081  -0.64022
 Alpha  occ. eigenvalues --   -0.63833  -0.62424  -0.61136  -0.55575  -0.54370
 Alpha  occ. eigenvalues --   -0.53410  -0.53169  -0.52109  -0.51908  -0.49061
 Alpha  occ. eigenvalues --   -0.49031  -0.47626  -0.47584  -0.45077  -0.43548
 Alpha  occ. eigenvalues --   -0.37674  -0.36692  -0.36349  -0.35292
 Alpha virt. eigenvalues --    0.04771   0.06237   0.10959   0.12295   0.16250
 Alpha virt. eigenvalues --    0.17636   0.21101   0.22191   0.26994   0.27898
 Alpha virt. eigenvalues --    0.28216   0.29120   0.30654   0.31658   0.32263

 Mulliken charges:
               1
     1  C   -0.171366
     2  C   -0.219025
     3  C   -0.171353
     4  C    0.160801
     5  C   -0.171782
     6  C   -0.219285
     7  H    0.225909
     8  H    0.224425
     9  H    0.277907
    10  H    0.272976
    11  H    0.222706
    12  N    0.489217
    13  O   -0.462618
    14  O   -0.456528
    15  C   -0.175722
    16  C   -0.218244
    17  C   -0.152211
    18  C    0.162196
    19  C   -0.171047
    20  C   -0.222530
    21  H    0.218575
    22  H    0.219372
    23  H    0.278706
    24  H    0.272614
    25  H    0.217085
    26  N    0.492256
    27  O   -0.464925
    28  O   -0.458109
 Sum of Mulliken charges =  -0.00000

 Dipole moment (field-independent basis, Debye):
    X=              7.3615    Y=              5.9315    Z=              1.4919  Tot=              9.5708
 Quadrupole moment (field-independent basis, Debye-Ang):
   XX=            -99.9661   YY=           -104.6908   ZZ=            -97.6107
   XY=             -8.6660   XZ=              3.7605   YZ=             -3.7531

 Normal termination of Gaussian 16 at Wed May  5 19:33:32 2021.
