 Gaussian 16, Revision A.03,
 Gaussian 16:  EM64L-G16RevA.03 25-Dec-2016

 -------------
 #p 6-31g* mp2
 -------------

 ------------------------------------------------------
 Input file generated by CHIRIPA (05-May-2021 14:57:21)
 ------------------------------------------------------
 Symbolic Z-matrix:
 Charge =  0 Multiplicity = 1

                         Standard orientation:
 ---------------------------------------------------------------------
 Center     Atomic      Atomic             Coordinates (Angstroms)
 Number     Number       Type             X           Y           Z
 ---------------------------------------------------------------------
      1          6           0        4.100126   -1.569406    0.854821
      2          6           0        3.279499   -0.829570    1.712571
      3          6           0        2.592034    0.293862    1.243699
      4          6           0        2.748848    0.650659   -0.094731
      5          6           0        3.559080   -0.066070   -0.974000
      6          6           0        4.237056   -1.185970   -0.483368
      7          1           0        4.630479   -2.440743    1.227503
      8          1           0        3.171271   -1.125018    2.752303
      9          1           0        1.950222    0.884607    1.885972
     10          1           0        3.647098    0.253035   -2.005427
     11          1           0        4.873683   -1.758650   -1.151790
     12          7           0        2.026082    1.838117   -0.602623
     13          8           0        2.181009    2.131698   -1.786027
     14          8           0        1.318338    2.452782    0.192313
     15          6           0       -0.912160   -1.964036   -0.502206
     16          6           0       -0.819286   -1.024239    0.529626
     17          6           0       -1.896673   -0.182914    0.822813
     18          6           0       -3.057048   -0.309060    0.060641
     19          6           0       -3.180250   -1.235479   -0.973699
     20          6           0       -2.090269   -2.066475   -1.249258
     21          1           0       -0.070328   -2.613585   -0.723113
     22          1           0        0.094410   -0.942455    1.111449
     23          1           0       -1.851833    0.553402    1.616064
     24          1           0       -4.104129   -1.293536   -1.536278
     25          1           0       -2.165232   -2.795416   -2.051175
     26          7           0       -4.204296    0.576147    0.361695
     27          8           0       -5.215561    0.445199   -0.324479
     28          8           0       -4.070521    1.384158    1.278132
 ---------------------------------------------------------------------

 SCF Done:  E(RHF) =  -868.336563752     A.U. after   16 cycles
 E2 =    -0.2602150903D+01 EUMP2 =    -0.87093871465486D+03

 The electronic state is 1-A.
 Alpha  occ. eigenvalues --  -20.61439 -20.61433 -20.60377 -20.60362 -15.86499
 Alpha  occ. eigenvalues --  -15.85428 -11.32130 -11.30839 -11.28739 -11.28678
 Alpha  occ. eigenvalues --  -11.28456 -11.27799 -11.27730 -11.27449 -11.27414
 Alpha  occ. eigenvalues --  -11.27243 -11.26490 -11.26415  -1.60503  -1.59444
 Alpha  occ. eigenvalues --   -1.40053  -1.38997  -1.20336  -1.19034  -1.09649
 Alpha  occ. eigenvalues --   -1.08433  -1.05777  -1.04452  -0.96448  -0.95254
 Alpha  occ. eigenvalues --   -0.87134  -0.85858  -0.83271  -0.82094  -0.78291
 Alpha  occ. eigenvalues --   -0.77121  -0.72706  -0.71835  -0.71651  -0.71392
 Alpha  occ. eigenvalues --   -0.70761  -0.70173  -0.65955  -0.65732  -0.64697
 Alpha  occ. eigenvalues --   -0.64517  -0.63091  -0.61817  -0.56200  -0.55010
 Alpha  occ. eigenvalues --   -0.54151  -0.53820  -0.52766  -0.52473  -0.49483
 Alpha  occ. eigenvalues --   -0.49454  -0.48415  -0.48397  -0.45400  -0.44392
 Alpha  occ. eigenvalues --   -0.38328  -0.37392  -0.37010  -0.36016
 Alpha virt. eigenvalues --    0.04195   0.05430   0.10149   0.11649   0.15626
 Alpha virt. eigenvalues --    0.16893   0.20290   0.21856   0.25880   0.27085
 Alpha virt. eigenvalues --    0.28312   0.28616   0.30246   0.31273   0.31992

 Mulliken charges:
               1
     1  C   -0.172358
     2  C   -0.221144
     3  C   -0.186593
     4  C    0.165602
     5  C   -0.171840
     6  C   -0.219503
     7  H    0.228740
     8  H    0.226770
     9  H    0.276667
    10  H    0.278924
    11  H    0.226565
    12  N    0.489003
    13  O   -0.456708
    14  O   -0.458295
    15  C   -0.173458
    16  C   -0.223737
    17  C   -0.165876
    18  C    0.158982
    19  C   -0.170235
    20  C   -0.218125
    21  H    0.222230
    22  H    0.222399
    23  H    0.277304
    24  H    0.275200
    25  H    0.221492
    26  N    0.488406
    27  O   -0.461674
    28  O   -0.458738
 Sum of Mulliken charges =  -0.00000

 Dipole moment (field-independent basis, Debye):
    X=              6.7705    Y=             -7.1269    Z=              0.6389  Tot=              9.8509
 Quadrupole moment (field-independent basis, Debye-Ang):
   XX=           -113.7629   YY=           -108.5960   ZZ=            -98.8694
   XY=             -0.9302   XZ=              8.1737   YZ=              4.2882

 Normal termination of Gaussian 16 at Wed May  5 16:16:05 2021.
