 Gaussian 16, Revision A.03,
 Gaussian 16:  EM64L-G16RevA.03 25-Dec-2016

 -------------
 #p 6-31g* mp2
 -------------

 ------------------------------------------------------
 Input file generated by CHIRIPA (05-May-2021 14:57:23)
 ------------------------------------------------------
 Symbolic Z-matrix:
 Charge =  0 Multiplicity = 1

                         Standard orientation:
 ---------------------------------------------------------------------
 Center     Atomic      Atomic             Coordinates (Angstroms)
 Number     Number       Type             X           Y           Z
 ---------------------------------------------------------------------
      1          6           0       -4.226531   -1.027373    1.067820
      2          6           0       -3.483825   -1.558590    0.008236
      3          6           0       -2.602967   -0.750491   -0.716756
      4          6           0       -2.489033    0.590508   -0.353395
      5          6           0       -3.215277    1.149170    0.697203
      6          6           0       -4.090127    0.322432    1.408321
      7          1           0       -4.908469   -1.662364    1.625622
      8          1           0       -3.587726   -2.606511   -0.258432
      9          1           0       -2.015872   -1.135802   -1.541542
     10          1           0       -3.090293    2.197537    0.939533
     11          1           0       -4.665652    0.737701    2.230737
     12          7           0       -1.559688    1.455872   -1.113568
     13          8           0       -1.477387    2.634130   -0.773608
     14          8           0       -0.931165    0.939502   -2.034956
     15          6           0        4.553647    1.133289    0.688739
     16          6           0        4.583372    0.309593   -0.441377
     17          6           0        3.529818   -0.570327   -0.706537
     18          6           0        2.457408   -0.600747    0.183577
     19          6           0        2.398648    0.207337    1.317966
     20          6           0        3.463303    1.079627    1.563262
     21          1           0        5.376385    1.813869    0.887006
     22          1           0        5.428860    0.349136   -1.122282
     23          1           0        3.527114   -1.219111   -1.574000
     24          1           0        1.542250    0.145459    1.978398
     25          1           0        3.437522    1.718156    2.441703
     26          7           0        1.336182   -1.528241   -0.086621
     27          8           0        0.402848   -1.536079    0.713044
     28          8           0        1.411928   -2.229810   -1.092951
 ---------------------------------------------------------------------

 SCF Done:  E(RHF) =  -868.339736618     A.U. after   16 cycles
 E2 =    -0.2600181875D+01 EUMP2 =    -0.87093991849328D+03

 The electronic state is 1-A.
 Alpha  occ. eigenvalues --  -20.60671 -20.60646 -20.60110 -20.60097 -15.85673
 Alpha  occ. eigenvalues --  -15.85141 -11.30801 -11.30143 -11.27377 -11.27337
 Alpha  occ. eigenvalues --  -11.27085 -11.26835 -11.26631 -11.26507 -11.26349
 Alpha  occ. eigenvalues --  -11.26327 -11.25788 -11.25600  -1.59716  -1.59187
 Alpha  occ. eigenvalues --   -1.39280  -1.38749  -1.18956  -1.18331  -1.08406
 Alpha  occ. eigenvalues --   -1.07817  -1.04340  -1.03693  -0.95284  -0.94698
 Alpha  occ. eigenvalues --   -0.85756  -0.85133  -0.82133  -0.81547  -0.77202
 Alpha  occ. eigenvalues --   -0.76613  -0.71929  -0.71389  -0.71057  -0.70424
 Alpha  occ. eigenvalues --   -0.70099  -0.69502  -0.64633  -0.64369  -0.64015
 Alpha  occ. eigenvalues --   -0.63740  -0.61706  -0.61062  -0.54879  -0.54287
 Alpha  occ. eigenvalues --   -0.52661  -0.52453  -0.52026  -0.51818  -0.48692
 Alpha  occ. eigenvalues --   -0.48661  -0.48142  -0.48102  -0.44753  -0.44231
 Alpha  occ. eigenvalues --   -0.36929  -0.36309  -0.35916  -0.35197
 Alpha virt. eigenvalues --    0.05325   0.05908   0.11737   0.12416   0.16881
 Alpha virt. eigenvalues --    0.17441   0.21801   0.22375   0.27707   0.28304
 Alpha virt. eigenvalues --    0.28673   0.29258   0.31316   0.31875   0.32875

 Mulliken charges:
               1
     1  C   -0.169913
     2  C   -0.216137
     3  C   -0.151380
     4  C    0.156158
     5  C   -0.173146
     6  C   -0.220107
     7  H    0.222022
     8  H    0.224058
     9  H    0.281403
    10  H    0.269600
    11  H    0.217956
    12  N    0.487038
    13  O   -0.467025
    14  O   -0.462387
    15  C   -0.169396
    16  C   -0.217929
    17  C   -0.166941
    18  C    0.162477
    19  C   -0.169557
    20  C   -0.216935
    21  H    0.224960
    22  H    0.222970
    23  H    0.275496
    24  H    0.272647
    25  H    0.222382
    26  N    0.490707
    27  O   -0.468061
    28  O   -0.460961
 Sum of Mulliken charges =  -0.00000

 Dipole moment (field-independent basis, Debye):
    X=              0.8916    Y=             -0.0047    Z=              3.4834  Tot=              3.5957
 Quadrupole moment (field-independent basis, Debye-Ang):
   XX=            -69.2965   YY=           -110.0835   ZZ=           -102.2065
   XY=             10.4213   XZ=             -5.4261   YZ=              7.0323

 Normal termination of Gaussian 16 at Wed May  5 16:20:03 2021.
