 Gaussian 16, Revision A.03,
 Gaussian 16:  EM64L-G16RevA.03 25-Dec-2016

 -------------
 #p 6-31g* mp2
 -------------

 ------------------------------------------------------
 Input file generated by CHIRIPA (05-May-2021 14:57:25)
 ------------------------------------------------------
 Symbolic Z-matrix:
 Charge =  0 Multiplicity = 1

                         Standard orientation:
 ---------------------------------------------------------------------
 Center     Atomic      Atomic             Coordinates (Angstroms)
 Number     Number       Type             X           Y           Z
 ---------------------------------------------------------------------
      1          6           0        1.506619   -2.132106    0.549397
      2          6           0        2.753324   -2.458829    0.005799
      3          6           0        3.680384   -1.457141   -0.297067
      4          6           0        3.326084   -0.133181   -0.042327
      5          6           0        2.091970    0.224186    0.498544
      6          6           0        1.180496   -0.794000    0.793604
      7          1           0        0.792510   -2.916649    0.781638
      8          1           0        3.009313   -3.497167   -0.184913
      9          1           0        4.652609   -1.681981   -0.718545
     10          1           0        1.865417    1.268246    0.677516
     11          1           0        0.213029   -0.537316    1.215702
     12          7           0        4.299271    0.935994   -0.358826
     13          8           0        3.962962    2.094811   -0.124995
     14          8           0        5.379936    0.594952   -0.834735
     15          6           0       -2.249339    2.606289    0.490660
     16          6           0       -3.015689    2.393832   -0.660030
     17          6           0       -3.528501    1.125366   -0.947375
     18          6           0       -3.254281    0.087338   -0.058222
     19          6           0       -2.494114    0.267366    1.096347
     20          6           0       -1.991452    1.544250    1.363637
     21          1           0       -1.854916    3.594934    0.706087
     22          1           0       -3.217566    3.216766   -1.339789
     23          1           0       -4.124756    0.932963   -1.831047
     24          1           0       -2.309715   -0.572572    1.755072
     25          1           0       -1.396605    1.706321    2.258028
     26          7           0       -3.791799   -1.259985   -0.351805
     27          8           0       -3.535991   -2.157943    0.447489
     28          8           0       -4.458736   -1.392548   -1.375650
 ---------------------------------------------------------------------

 SCF Done:  E(RHF) =  -868.337402803     A.U. after   16 cycles
 E2 =    -0.2601145501D+01 EUMP2 =    -0.87093854830414D+03

 The electronic state is 1-A.
 Alpha  occ. eigenvalues --  -20.61597 -20.61559 -20.60940 -20.60921 -15.86638
 Alpha  occ. eigenvalues --  -15.85985 -11.32057 -11.31281 -11.28721 -11.28557
 Alpha  occ. eigenvalues --  -11.28299 -11.27885 -11.27815 -11.27698 -11.27536
 Alpha  occ. eigenvalues --  -11.27487 -11.26796 -11.26779  -1.60654  -1.60009
 Alpha  occ. eigenvalues --   -1.40209  -1.39566  -1.20231  -1.19435  -1.09586
 Alpha  occ. eigenvalues --   -1.08828  -1.05668  -1.04833  -0.96424  -0.95679
 Alpha  occ. eigenvalues --   -0.87028  -0.86239  -0.83274  -0.82520  -0.78337
 Alpha  occ. eigenvalues --   -0.77593  -0.72853  -0.72206  -0.71979  -0.71331
 Alpha  occ. eigenvalues --   -0.71303  -0.70508  -0.65892  -0.65637  -0.65080
 Alpha  occ. eigenvalues --   -0.64873  -0.63030  -0.62168  -0.56072  -0.55294
 Alpha  occ. eigenvalues --   -0.54013  -0.53727  -0.53153  -0.52839  -0.49619
 Alpha  occ. eigenvalues --   -0.49600  -0.48967  -0.48952  -0.45605  -0.44988
 Alpha  occ. eigenvalues --   -0.38162  -0.37418  -0.37222  -0.36413
 Alpha virt. eigenvalues --    0.04175   0.04950   0.10280   0.11252   0.15550
 Alpha virt. eigenvalues --    0.16464   0.19682   0.22108   0.25567   0.26844
 Alpha virt. eigenvalues --    0.28258   0.29085   0.30279   0.31248   0.31855

 Mulliken charges:
               1
     1  C   -0.173189
     2  C   -0.218385
     3  C   -0.171084
     4  C    0.158773
     5  C   -0.173922
     6  C   -0.218840
     7  H    0.232993
     8  H    0.225373
     9  H    0.275838
    10  H    0.269441
    11  H    0.221752
    12  N    0.488345
    13  O   -0.463547
    14  O   -0.459435
    15  C   -0.169774
    16  C   -0.216911
    17  C   -0.169474
    18  C    0.160699
    19  C   -0.179404
    20  C   -0.223039
    21  H    0.231653
    22  H    0.228647
    23  H    0.278917
    24  H    0.271567
    25  H    0.224730
    26  N    0.488297
    27  O   -0.464073
    28  O   -0.455949
 Sum of Mulliken charges =  -0.00000

 Dipole moment (field-independent basis, Debye):
    X=             -1.7912    Y=              1.0414    Z=              1.9486  Tot=              2.8443
 Quadrupole moment (field-independent basis, Debye-Ang):
   XX=           -137.3874   YY=           -100.0532   ZZ=           -102.0436
   XY=            -31.7280   XZ=              1.5749   YZ=             -0.6243

 Normal termination of Gaussian 16 at Fri May  7 03:27:37 2021.
