 Gaussian 16, Revision A.03,
 Gaussian 16:  EM64L-G16RevA.03 25-Dec-2016

 -------------
 #p 6-31g* mp2
 -------------

 ------------------------------------------------------
 Input file generated by CHIRIPA (05-May-2021 14:55:24)
 ------------------------------------------------------
 Symbolic Z-matrix:
 Charge =  0 Multiplicity = 1

                         Standard orientation:
 ---------------------------------------------------------------------
 Center     Atomic      Atomic             Coordinates (Angstroms)
 Number     Number       Type             X           Y           Z
 ---------------------------------------------------------------------
      1          6           0       -0.918634   -1.307494    1.461416
      2          6           0       -0.905644    0.050656    1.127082
      3          6           0       -1.955854    0.611544    0.394271
      4          6           0       -3.007889   -0.218588    0.010353
      5          6           0       -3.049652   -1.575267    0.328106
      6          6           0       -1.988710   -2.114698    1.061566
      7          1           0       -0.098637   -1.734871    2.030934
      8          1           0       -0.075914    0.679937    1.436273
      9          1           0       -1.971229    1.659872    0.121894
     10          1           0       -3.890518   -2.177329    0.005794
     11          1           0       -2.001464   -3.169782    1.319794
     12          7           0       -4.125381    0.363841   -0.765785
     13          8           0       -5.040617   -0.388812   -1.092117
     14          8           0       -4.064874    1.561974   -1.033093
     15          6           0        3.951858   -0.058885   -0.683442
     16          6           0        4.378954   -1.401636   -0.089646
     17          6           0        5.052641   -2.313997   -1.115092
     18          1           0        3.266541   -0.237916   -1.523224
     19          1           0        4.833517    0.446214   -1.101709
     20          1           0        3.496980   -1.903433    0.328608
     21          1           0        5.063184   -1.219381    0.748942
     22          1           0        5.948881   -1.837159   -1.524947
     23          1           0        4.373778   -2.525098   -1.947668
     24          1           0        5.349835   -3.268368   -0.669322
     25          6           0        3.276848    0.864208    0.329470
     26          6           0        2.849752    2.206959   -0.264325
     27          6           0        2.176065    3.119320    0.761121
     28          1           0        2.395189    0.359109    0.747737
     29          1           0        3.962165    1.043240    1.169252
     30          1           0        2.165523    2.024704   -1.102912
     31          1           0        3.731726    2.708756   -0.682580
     32          1           0        2.854928    3.330421    1.593696
     33          1           0        1.279826    2.642482    1.170976
     34          1           0        1.878871    4.073691    0.315350
 ---------------------------------------------------------------------

 SCF Done:  E(RHF) =  -669.535258988     A.U. after   15 cycles
 E2 =    -0.2091926354D+01 EUMP2 =    -0.67162718534257D+03

 The electronic state is 1-A.
 Alpha  occ. eigenvalues --  -20.60768 -20.60763 -15.85822 -11.31196 -11.27768
 Alpha  occ. eigenvalues --  -11.27758 -11.27512 -11.26782 -11.26751 -11.22385
 Alpha  occ. eigenvalues --  -11.22281 -11.22259 -11.22046 -11.22021 -11.21608
 Alpha  occ. eigenvalues --   -1.59844  -1.39397  -1.19369  -1.09195  -1.08762
 Alpha  occ. eigenvalues --   -1.04776  -1.04274  -0.96729  -0.95596  -0.87742
 Alpha  occ. eigenvalues --   -0.86176  -0.82431  -0.80335  -0.79014  -0.77475
 Alpha  occ. eigenvalues --   -0.72040  -0.71167  -0.70476  -0.65899  -0.65021
 Alpha  occ. eigenvalues --   -0.64754  -0.62221  -0.61570  -0.60086  -0.58334
 Alpha  occ. eigenvalues --   -0.56044  -0.55269  -0.53398  -0.53177  -0.53095
 Alpha  occ. eigenvalues --   -0.52867  -0.50681  -0.48819  -0.48794  -0.48627
 Alpha  occ. eigenvalues --   -0.47356  -0.46540  -0.46452  -0.44800  -0.44523
 Alpha  occ. eigenvalues --   -0.37348  -0.36371
 Alpha virt. eigenvalues --    0.05058   0.11181   0.16528   0.18949   0.22696
 Alpha virt. eigenvalues --    0.23366   0.25263   0.26025   0.26539   0.28419
 Alpha virt. eigenvalues --    0.29518   0.29944   0.31072   0.31360   0.31738

 Mulliken charges:
               1
     1  C   -0.173109
     2  C   -0.226053
     3  C   -0.173568
     4  C    0.158682
     5  C   -0.170994
     6  C   -0.218488
     7  H    0.226437
     8  H    0.234851
     9  H    0.275818
    10  H    0.275682
    11  H    0.223471
    12  N    0.488075
    13  O   -0.460508
    14  O   -0.460241
    15  C   -0.298860
    16  C   -0.299049
    17  C   -0.476239
    18  H    0.152848
    19  H    0.152537
    20  H    0.146894
    21  H    0.152580
    22  H    0.157170
    23  H    0.156873
    24  H    0.160908
    25  C   -0.299705
    26  C   -0.301792
    27  C   -0.478553
    28  H    0.140391
    29  H    0.151337
    30  H    0.155452
    31  H    0.156712
    32  H    0.158860
    33  H    0.144674
    34  H    0.166909
 Sum of Mulliken charges =  -0.00000

 Dipole moment (field-independent basis, Debye):
    X=              4.1153    Y=             -1.9979    Z=              2.6285  Tot=              5.2760
 Quadrupole moment (field-independent basis, Debye-Ang):
   XX=           -116.7200   YY=            -90.0027   ZZ=            -95.8354
   XY=              8.6755   XZ=             -7.8918   YZ=             -0.9686

 Normal termination of Gaussian 16 at Thu May  6 01:34:57 2021.
