 Gaussian 16, Revision A.03,
 Gaussian 16:  EM64L-G16RevA.03 25-Dec-2016

 -------------
 #p 6-31g* mp2
 -------------

 ------------------------------------------------------
 Input file generated by CHIRIPA (05-May-2021 14:53:13)
 ------------------------------------------------------
 Symbolic Z-matrix:
 Charge =  0 Multiplicity = 1

                         Standard orientation:
 ---------------------------------------------------------------------
 Center     Atomic      Atomic             Coordinates (Angstroms)
 Number     Number       Type             X           Y           Z
 ---------------------------------------------------------------------
      1          6           0       -4.333684   -0.141050    0.291656
      2          6           0       -5.363451   -0.748303   -0.661659
      3          6           0       -5.960086   -2.053438   -0.133981
      4          1           0       -3.529866   -0.869512    0.465339
      5          1           0       -4.808094    0.039223    1.266249
      6          1           0       -4.887607   -0.926095   -1.634582
      7          1           0       -6.164813   -0.018239   -0.833244
      8          1           0       -6.459852   -1.888163    0.825977
      9          1           0       -5.175389   -2.801177    0.020087
     10          1           0       -6.693713   -2.470228   -0.831074
     11          6           0       -3.728257    1.164073   -0.221997
     12          6           0       -2.698490    1.771326    0.731318
     13          6           0       -2.101855    3.076461    0.203640
     14          1           0       -3.253847    0.983800   -1.196590
     15          1           0       -4.532075    1.892534   -0.395680
     16          1           0       -1.897127    1.041262    0.902903
     17          1           0       -3.174334    1.949118    1.704240
     18          1           0       -2.886552    3.824200    0.049572
     19          1           0       -1.602089    2.911185   -0.756319
     20          1           0       -1.368228    3.493251    0.900732
     21          6           0        1.046874   -1.778552    0.184226
     22          6           0        2.298835   -2.382615    0.339866
     23          6           0        3.470326   -1.628345    0.224835
     24          6           0        3.352441   -0.266308   -0.047651
     25          6           0        2.119683    0.364473   -0.208012
     26          6           0        0.961444   -0.409350   -0.088735
     27          1           0        0.141979   -2.372083    0.275234
     28          1           0        2.368211   -3.445759    0.551899
     29          1           0        4.452438   -2.070454    0.340654
     30          1           0        2.082463    1.426347   -0.418862
     31          1           0       -0.009494    0.062448   -0.210095
     32          7           0        4.585631    0.542555   -0.171678
     33          8           0        4.454810    1.740754   -0.412173
     34          8           0        5.659676   -0.036976   -0.026044
 ---------------------------------------------------------------------

 SCF Done:  E(RHF) =  -669.535482801     A.U. after   15 cycles
 E2 =    -0.2091236806D+01 EUMP2 =    -0.67162671960699D+03

 The electronic state is 1-A.
 Alpha  occ. eigenvalues --  -20.60752 -20.60746 -15.85805 -11.31175 -11.27750
 Alpha  occ. eigenvalues --  -11.27740 -11.27498 -11.26766 -11.26737 -11.22569
 Alpha  occ. eigenvalues --  -11.22323 -11.22272 -11.22213 -11.21893 -11.21722
 Alpha  occ. eigenvalues --   -1.59827  -1.39380  -1.19351  -1.09289  -1.08746
 Alpha  occ. eigenvalues --   -1.04756  -1.04343  -0.96774  -0.95579  -0.87785
 Alpha  occ. eigenvalues --   -0.86156  -0.82412  -0.80405  -0.79093  -0.77457
 Alpha  occ. eigenvalues --   -0.72024  -0.71150  -0.70462  -0.65995  -0.65003
 Alpha  occ. eigenvalues --   -0.64745  -0.62206  -0.61642  -0.60133  -0.58377
 Alpha  occ. eigenvalues --   -0.56074  -0.55257  -0.53446  -0.53188  -0.53083
 Alpha  occ. eigenvalues --   -0.52854  -0.50721  -0.48804  -0.48778  -0.48684
 Alpha  occ. eigenvalues --   -0.47451  -0.46626  -0.46560  -0.44785  -0.44596
 Alpha  occ. eigenvalues --   -0.37334  -0.36354
 Alpha virt. eigenvalues --    0.05079   0.11242   0.16541   0.18618   0.22841
 Alpha virt. eigenvalues --    0.23335   0.25338   0.26298   0.26927   0.28581
 Alpha virt. eigenvalues --    0.29280   0.29927   0.31005   0.31121   0.32089

 Mulliken charges:
               1
     1  C   -0.296553
     2  C   -0.300355
     3  C   -0.475667
     4  H    0.141664
     5  H    0.152735
     6  H    0.151951
     7  H    0.154762
     8  H    0.156847
     9  H    0.152847
    10  H    0.162744
    11  C   -0.299933
    12  C   -0.304475
    13  C   -0.477987
    14  H    0.147748
    15  H    0.154443
    16  H    0.143985
    17  H    0.157791
    18  H    0.160647
    19  H    0.152367
    20  H    0.164337
    21  C   -0.172291
    22  C   -0.218486
    23  C   -0.170983
    24  C    0.158767
    25  C   -0.172496
    26  C   -0.225035
    27  H    0.225321
    28  H    0.223381
    29  H    0.275611
    30  H    0.276204
    31  H    0.232897
    32  N    0.488057
    33  O   -0.460309
    34  O   -0.460536
 Sum of Mulliken charges =  -0.00000

 Dipole moment (field-independent basis, Debye):
    X=             -4.5488    Y=             -2.7569    Z=              0.4566  Tot=              5.3386
 Quadrupole moment (field-independent basis, Debye-Ang):
   XX=           -121.5179   YY=            -90.3276   ZZ=            -95.3531
   XY=            -12.2521   XZ=              1.9778   YZ=             -0.2610

 Normal termination of Gaussian 16 at Thu May  6 01:00:17 2021.
