 Gaussian 16, Revision A.03,
 Gaussian 16:  EM64L-G16RevA.03 25-Dec-2016

 -------------
 #p 6-31g* mp2
 -------------

 ------------------------------------------------------
 Input file generated by CHIRIPA (05-May-2021 14:53:12)
 ------------------------------------------------------
 Symbolic Z-matrix:
 Charge =  0 Multiplicity = 1

                         Standard orientation:
 ---------------------------------------------------------------------
 Center     Atomic      Atomic             Coordinates (Angstroms)
 Number     Number       Type             X           Y           Z
 ---------------------------------------------------------------------
      1          6           0        4.918317   -0.162886    0.244729
      2          6           0        5.881791    0.207647   -0.883282
      3          6           0        7.339762    0.251691   -0.424831
      4          1           0        5.025193    0.562609    1.062763
      5          1           0        5.204284   -1.141202    0.655236
      6          1           0        5.593253    1.184342   -1.292462
      7          1           0        5.772473   -0.518704   -1.698806
      8          1           0        7.650750   -0.723101   -0.035384
      9          1           0        7.470511    0.989621    0.373269
     10          1           0        8.011220    0.518499   -1.246912
     11          6           0        3.457025   -0.211023   -0.198031
     12          6           0        2.493551   -0.581556    0.929980
     13          6           0        1.035581   -0.625599    0.471529
     14          1           0        3.171058    0.767293   -0.608538
     15          1           0        3.350150   -0.936518   -1.016065
     16          1           0        2.602869    0.144795    1.745505
     17          1           0        2.782089   -1.558251    1.339160
     18          1           0        0.904831   -1.363530   -0.326571
     19          1           0        0.724593    0.349192    0.082082
     20          1           0        0.364122   -0.892407    1.293610
     21          6           0       -2.738643    2.596849    0.256504
     22          6           0       -2.153453    1.653537    1.107525
     23          6           0       -2.441503    0.292981    0.964481
     24          6           0       -3.323145   -0.090875   -0.044803
     25          6           0       -3.922146    0.824935   -0.908388
     26          6           0       -3.619569    2.180272   -0.746967
     27          1           0       -2.509236    3.651735    0.374761
     28          1           0       -1.468949    1.974172    1.887712
     29          1           0       -2.002554   -0.458507    1.609466
     30          1           0       -4.600642    0.474913   -1.676858
     31          1           0       -4.075511    2.910638   -1.409333
     32          7           0       -3.635779   -1.528473   -0.205965
     33          8           0       -4.415760   -1.840986   -1.102961
     34          8           0       -3.094924   -2.315527    0.567765
 ---------------------------------------------------------------------

 SCF Done:  E(RHF) =  -669.534779951     A.U. after   15 cycles
 E2 =    -0.2091916441D+01 EUMP2 =    -0.67162669639169D+03

 The electronic state is 1-A.
 Alpha  occ. eigenvalues --  -20.60724 -20.60719 -15.85777 -11.31128 -11.27717
 Alpha  occ. eigenvalues --  -11.27699 -11.27472 -11.26726 -11.26713 -11.21808
 Alpha  occ. eigenvalues --  -11.21734 -11.21574 -11.21509 -11.21287 -11.21186
 Alpha  occ. eigenvalues --   -1.59799  -1.39353  -1.19319  -1.08714  -1.08600
 Alpha  occ. eigenvalues --   -1.04729  -1.03702  -0.96164  -0.95546  -0.87186
 Alpha  occ. eigenvalues --   -0.86119  -0.82383  -0.79774  -0.78409  -0.77424
 Alpha  occ. eigenvalues --   -0.71998  -0.71120  -0.70444  -0.65232  -0.64972
 Alpha  occ. eigenvalues --   -0.64739  -0.62123  -0.61096  -0.59519  -0.57767
 Alpha  occ. eigenvalues --   -0.55448  -0.55237  -0.53251  -0.52955  -0.52556
 Alpha  occ. eigenvalues --   -0.52526  -0.50076  -0.48755  -0.48752  -0.48081
 Alpha  occ. eigenvalues --   -0.46793  -0.45950  -0.45874  -0.44763  -0.43962
 Alpha  occ. eigenvalues --   -0.37306  -0.36261
 Alpha virt. eigenvalues --    0.05102   0.11278   0.16561   0.20834   0.22778
 Alpha virt. eigenvalues --    0.24038   0.26291   0.26489   0.27342   0.27862
 Alpha virt. eigenvalues --    0.28660   0.30227   0.31311   0.31559   0.31782

 Mulliken charges:
               1
     1  C   -0.298301
     2  C   -0.299713
     3  C   -0.475769
     4  H    0.148388
     5  H    0.150890
     6  H    0.151022
     7  H    0.153066
     8  H    0.155953
     9  H    0.154617
    10  H    0.160585
    11  C   -0.298656
    12  C   -0.300050
    13  C   -0.477856
    14  H    0.147632
    15  H    0.152137
    16  H    0.147599
    17  H    0.155138
    18  H    0.163058
    19  H    0.154206
    20  H    0.154109
    21  C   -0.171432
    22  C   -0.219453
    23  C   -0.165762
    24  C    0.157124
    25  C   -0.170913
    26  C   -0.218829
    27  H    0.225262
    28  H    0.223465
    29  H    0.277231
    30  H    0.275415
    31  H    0.223123
    32  N    0.488174
    33  O   -0.460754
    34  O   -0.460705
 Sum of Mulliken charges =  -0.00000

 Dipole moment (field-independent basis, Debye):
    X=              1.1425    Y=              5.0105    Z=              0.5222  Tot=              5.1656
 Quadrupole moment (field-independent basis, Debye-Ang):
   XX=           -101.9996   YY=            -95.0406   ZZ=            -92.2988
   XY=            -18.1846   XZ=              0.4296   YZ=             -0.9830

 Normal termination of Gaussian 16 at Thu May  6 02:31:04 2021.
