 Gaussian 16, Revision A.03,
 Gaussian 16:  EM64L-G16RevA.03 25-Dec-2016

 -------------
 #p 6-31g* mp2
 -------------

 ------------------------------------------------------
 Input file generated by CHIRIPA (05-May-2021 14:53:18)
 ------------------------------------------------------
 Symbolic Z-matrix:
 Charge =  0 Multiplicity = 1

                         Standard orientation:
 ---------------------------------------------------------------------
 Center     Atomic      Atomic             Coordinates (Angstroms)
 Number     Number       Type             X           Y           Z
 ---------------------------------------------------------------------
      1          6           0       -4.659421    0.253391    0.098180
      2          6           0       -5.894173    0.023229   -0.773827
      3          6           0       -6.906222    1.165387   -0.678820
      4          1           0       -4.974644    0.379924    1.142962
      5          1           0       -4.179224    1.195755   -0.199740
      6          1           0       -6.371115   -0.919114   -0.475276
      7          1           0       -5.575959   -0.102962   -1.816627
      8          1           0       -6.452328    2.109700   -0.996395
      9          1           0       -7.252002    1.288911    0.352577
     10          1           0       -7.780958    0.980236   -1.310022
     11          6           0       -3.638448   -0.879850    0.013889
     12          6           0       -2.403696   -0.649688    0.885897
     13          6           0       -1.391648   -1.791846    0.790889
     14          1           0       -4.118646   -1.822213    0.311810
     15          1           0       -3.323226   -1.006383   -1.030893
     16          1           0       -2.721911   -0.523497    1.928697
     17          1           0       -1.926755    0.292655    0.587346
     18          1           0       -1.045868   -1.915370   -0.240507
     19          1           0       -1.845542   -2.736159    1.108465
     20          1           0       -0.516912   -1.606695    1.422091
     21          6           0        2.709184    2.669852    0.405009
     22          6           0        1.902673    1.664154    0.947811
     23          6           0        2.188087    0.317120    0.705758
     24          6           0        3.292803    0.010257   -0.087164
     25          6           0        4.115308    0.989456   -0.642092
     26          6           0        3.810984    2.329892   -0.386815
     27          1           0        2.480124    3.713696    0.598178
     28          1           0        1.046357    1.925225    1.563122
     29          1           0        1.580441   -0.481576    1.113517
     30          1           0        4.962138    0.698171   -1.251560
     31          1           0        4.439084    3.108821   -0.809668
     32          7           0        3.604968   -1.412294   -0.350415
     33          8           0        4.583956   -1.656440   -1.052279
     34          8           0        2.864743   -2.256209    0.150097
 ---------------------------------------------------------------------

 SCF Done:  E(RHF) =  -669.535455354     A.U. after   15 cycles
 E2 =    -0.2091195029D+01 EUMP2 =    -0.67162665038277D+03

 The electronic state is 1-A.
 Alpha  occ. eigenvalues --  -20.60735 -20.60729 -15.85786 -11.31153 -11.27735
 Alpha  occ. eigenvalues --  -11.27702 -11.27482 -11.26753 -11.26738 -11.21939
 Alpha  occ. eigenvalues --  -11.21777 -11.21634 -11.21574 -11.21256 -11.21247
 Alpha  occ. eigenvalues --   -1.59809  -1.39362  -1.19333  -1.08729  -1.08664
 Alpha  occ. eigenvalues --   -1.04738  -1.03758  -0.96190  -0.95560  -0.87199
 Alpha  occ. eigenvalues --   -0.86134  -0.82392  -0.79818  -0.78478  -0.77439
 Alpha  occ. eigenvalues --   -0.72005  -0.71133  -0.70453  -0.65291  -0.64986
 Alpha  occ. eigenvalues --   -0.64751  -0.62139  -0.61137  -0.59559  -0.57815
 Alpha  occ. eigenvalues --   -0.55460  -0.55236  -0.53087  -0.53047  -0.52715
 Alpha  occ. eigenvalues --   -0.52525  -0.50101  -0.48765  -0.48760  -0.48135
 Alpha  occ. eigenvalues --   -0.46851  -0.46015  -0.45941  -0.44766  -0.44010
 Alpha  occ. eigenvalues --   -0.37320  -0.36339
 Alpha virt. eigenvalues --    0.05083   0.11302   0.16557   0.20178   0.22779
 Alpha virt. eigenvalues --    0.23817   0.26092   0.26395   0.27034   0.27978
 Alpha virt. eigenvalues --    0.29121   0.29920   0.31357   0.31553   0.32041

 Mulliken charges:
               1
     1  C   -0.298148
     2  C   -0.299931
     3  C   -0.475761
     4  H    0.149247
     5  H    0.147605
     6  H    0.153060
     7  H    0.152839
     8  H    0.154393
     9  H    0.155068
    10  H    0.161165
    11  C   -0.298525
    12  C   -0.301400
    13  C   -0.477251
    14  H    0.151845
    15  H    0.151844
    16  H    0.150981
    17  H    0.145182
    18  H    0.163001
    19  H    0.160562
    20  H    0.154906
    21  C   -0.170645
    22  C   -0.222574
    23  C   -0.176793
    24  C    0.157275
    25  C   -0.170186
    26  C   -0.219033
    27  H    0.225494
    28  H    0.224233
    29  H    0.286731
    30  H    0.275536
    31  H    0.223306
    32  N    0.486827
    33  O   -0.460642
    34  O   -0.460212
 Sum of Mulliken charges =  -0.00000

 Dipole moment (field-independent basis, Debye):
    X=             -1.1846    Y=              4.9095    Z=              0.8758  Tot=              5.1258
 Quadrupole moment (field-independent basis, Debye-Ang):
   XX=            -99.5247   YY=            -94.9395   ZZ=            -93.4795
   XY=             19.0071   XZ=              0.3225   YZ=             -1.6365

 Normal termination of Gaussian 16 at Wed May  5 22:05:33 2021.
