 Gaussian 16, Revision A.03,
 Gaussian 16:  EM64L-G16RevA.03 25-Dec-2016

 -------------
 #p 6-31g* mp2
 -------------

 ------------------------------------------------------
 Input file generated by CHIRIPA (05-May-2021 14:55:22)
 ------------------------------------------------------
 Symbolic Z-matrix:
 Charge =  0 Multiplicity = 1

                         Standard orientation:
 ---------------------------------------------------------------------
 Center     Atomic      Atomic             Coordinates (Angstroms)
 Number     Number       Type             X           Y           Z
 ---------------------------------------------------------------------
      1          6           0       -0.504590   -2.647111    0.450480
      2          6           0       -0.411803   -1.525661    1.281299
      3          6           0       -1.266267   -0.434254    1.098898
      4          6           0       -2.206056   -0.498271    0.071284
      5          6           0       -2.323090   -1.601372   -0.772966
      6          6           0       -1.458256   -2.681327   -0.572198
      7          1           0        0.163206   -3.490494    0.599308
      8          1           0        0.327868   -1.496320    2.076329
      9          1           0       -1.216130    0.446489    1.727544
     10          1           0       -3.070539   -1.601456   -1.557019
     11          1           0       -1.532590   -3.550944   -1.218948
     12          7           0       -3.116128    0.651091   -0.131538
     13          8           0       -3.935548    0.570069   -1.044019
     14          8           0       -2.992790    1.611219    0.625812
     15          6           0        2.076991    1.272820    0.214612
     16          6           0        1.690482    2.557682   -0.518686
     17          6           0        0.579402    3.332007    0.191045
     18          1           0        1.188914    0.633840    0.314447
     19          1           0        2.397874    1.523700    1.235146
     20          1           0        1.371740    2.304593   -1.537982
     21          1           0        2.579625    3.193594   -0.616956
     22          1           0        0.891047    3.613041    1.202233
     23          1           0       -0.323702    2.718988    0.275973
     24          1           0        0.318776    4.246871   -0.350210
     25          6           0        3.186535    0.487690   -0.482675
     26          6           0        3.573045   -0.797172    0.250623
     27          6           0        4.684125   -1.571497   -0.459108
     28          1           0        2.865652    0.236810   -1.503208
     29          1           0        4.074613    1.126670   -0.582510
     30          1           0        2.683902   -1.433084    0.348893
     31          1           0        3.891787   -0.544082    1.269919
     32          1           0        5.587228   -0.958478   -0.544036
     33          1           0        4.372480   -1.852531   -1.470294
     34          1           0        4.944751   -2.486361    0.082146
 ---------------------------------------------------------------------

 SCF Done:  E(RHF) =  -669.534702624     A.U. after   15 cycles
 E2 =    -0.2095505973D+01 EUMP2 =    -0.67163020859706D+03

 The electronic state is 1-A.
 Alpha  occ. eigenvalues --  -20.60997 -20.60992 -15.86012 -11.31359 -11.27905
 Alpha  occ. eigenvalues --  -11.27885 -11.27640 -11.26920 -11.26890 -11.22101
 Alpha  occ. eigenvalues --  -11.21627 -11.21551 -11.21458 -11.21381 -11.20613
 Alpha  occ. eigenvalues --   -1.60048  -1.39604  -1.19537  -1.08929  -1.08605
 Alpha  occ. eigenvalues --   -1.04934  -1.03653  -0.96069  -0.95765  -0.87088
 Alpha  occ. eigenvalues --   -0.86319  -0.82596  -0.79755  -0.78469  -0.77607
 Alpha  occ. eigenvalues --   -0.72234  -0.71362  -0.70622  -0.65269  -0.65180
 Alpha  occ. eigenvalues --   -0.64912  -0.62260  -0.61047  -0.59498  -0.57692
 Alpha  occ. eigenvalues --   -0.55418  -0.55368  -0.53346  -0.52998  -0.52749
 Alpha  occ. eigenvalues --   -0.52472  -0.50041  -0.48998  -0.48986  -0.48052
 Alpha  occ. eigenvalues --   -0.46818  -0.45981  -0.45876  -0.44882  -0.43890
 Alpha  occ. eigenvalues --   -0.37496  -0.36361
 Alpha virt. eigenvalues --    0.04822   0.10912   0.16232   0.20717   0.22933
 Alpha virt. eigenvalues --    0.23930   0.26065   0.26526   0.27191   0.28243
 Alpha virt. eigenvalues --    0.29157   0.30675   0.31185   0.31528   0.32033

 Mulliken charges:
               1
     1  C   -0.171660
     2  C   -0.216402
     3  C   -0.175072
     4  C    0.159432
     5  C   -0.171255
     6  C   -0.218544
     7  H    0.227033
     8  H    0.227753
     9  H    0.279119
    10  H    0.276075
    11  H    0.224275
    12  N    0.488142
    13  O   -0.458209
    14  O   -0.458669
    15  C   -0.309605
    16  C   -0.299304
    17  C   -0.484296
    18  H    0.157298
    19  H    0.144649
    20  H    0.152154
    21  H    0.150678
    22  H    0.150982
    23  H    0.167444
    24  H    0.163588
    25  C   -0.295918
    26  C   -0.302380
    27  C   -0.475573
    28  H    0.150448
    29  H    0.150907
    30  H    0.145444
    31  H    0.150195
    32  H    0.158026
    33  H    0.155638
    34  H    0.157608
 Sum of Mulliken charges =  -0.00000

 Dipole moment (field-independent basis, Debye):
    X=              2.9816    Y=             -4.0630    Z=              0.6712  Tot=              5.0841
 Quadrupole moment (field-independent basis, Debye-Ang):
   XX=           -108.8745   YY=            -90.1778   ZZ=            -91.9097
   XY=              9.3670   XZ=              1.0974   YZ=              1.3861

 Normal termination of Gaussian 16 at Thu May  6 09:22:59 2021.
