 Gaussian 16, Revision A.03,
 Gaussian 16:  EM64L-G16RevA.03 25-Dec-2016

 -------------
 #p 6-31g* mp2
 -------------

 ------------------------------------------------------
 Input file generated by CHIRIPA (05-May-2021 14:51:13)
 ------------------------------------------------------
 Symbolic Z-matrix:
 Charge =  0 Multiplicity = 1

                         Standard orientation:
 ---------------------------------------------------------------------
 Center     Atomic      Atomic             Coordinates (Angstroms)
 Number     Number       Type             X           Y           Z
 ---------------------------------------------------------------------
      1          6           0       -2.554072   -0.367646    0.357544
      2          6           0       -2.334279   -1.808603    0.819408
      3          6           0       -0.874607   -2.101614    1.167685
      4          1           0       -1.919891   -0.168953   -0.517259
      5          1           0       -2.219939    0.318439    1.148137
      6          1           0       -2.670010   -2.491784    0.028734
      7          1           0       -2.969199   -2.003949    1.693097
      8          1           0       -0.531020   -1.443665    1.972454
      9          1           0       -0.230131   -1.934272    0.298635
     10          1           0       -0.740144   -3.137177    1.495387
     11          6           0       -4.008359   -0.059380    0.005763
     12          6           0       -4.228153    1.381577   -0.456101
     13          6           0       -5.687825    1.674587   -0.804378
     14          1           0       -4.342492   -0.745466   -0.784829
     15          1           0       -4.642540   -0.258074    0.880566
     16          1           0       -3.593232    1.576922   -1.329789
     17          1           0       -3.892422    2.064757    0.334573
     18          1           0       -6.332301    1.507245    0.064672
     19          1           0       -6.031411    1.016638   -1.609147
     20          1           0       -5.822288    2.710150   -1.132079
     21          6           0        3.675972    0.861732   -0.267750
     22          6           0        3.151111    2.010371    0.594304
     23          6           0        3.951121    3.300405    0.411030
     24          1           0        4.730796    0.678906   -0.021041
     25          1           0        3.649782    1.163596   -1.323963
     26          1           0        3.176986    1.705919    1.648464
     27          1           0        2.097359    2.190357    0.345649
     28          1           0        3.915461    3.630919   -0.632085
     29          1           0        5.001221    3.143729    0.678132
     30          1           0        3.558868    4.108348    1.036510
     31          6           0        2.886460   -0.434705   -0.095558
     32          6           0        3.411321   -1.583344   -0.957611
     33          6           0        2.611310   -2.873378   -0.774338
     34          1           0        2.912649   -0.736570    0.960656
     35          1           0        1.831636   -0.251879   -0.342266
     36          1           0        4.465072   -1.763330   -0.708957
     37          1           0        3.385445   -1.278893   -2.011772
     38          1           0        1.561211   -2.716703   -1.041440
     39          1           0        2.646971   -3.203892    0.268778
     40          1           0        3.003564   -3.681322   -1.399817
 ---------------------------------------------------------------------

 SCF Done:  E(RHF) =  -470.732856706     A.U. after   11 cycles
 E2 =    -0.1583073634D+01 EUMP2 =    -0.47231593034075D+03

 The electronic state is 1-A.
 Alpha  occ. eigenvalues --  -11.21609 -11.21577 -11.21575 -11.21565 -11.21407
 Alpha  occ. eigenvalues --  -11.21372 -11.21348 -11.21310 -11.21077 -11.21054
 Alpha  occ. eigenvalues --  -11.21021 -11.20959  -1.08429  -1.08398  -1.03538
 Alpha  occ. eigenvalues --   -1.03479  -0.95987  -0.95925  -0.87016  -0.86931
 Alpha  occ. eigenvalues --   -0.79666  -0.79485  -0.78287  -0.78158  -0.65096
 Alpha  occ. eigenvalues --   -0.65002  -0.61021  -0.60816  -0.59340  -0.59316
 Alpha  occ. eigenvalues --   -0.57604  -0.57539  -0.55359  -0.55142  -0.52676
 Alpha  occ. eigenvalues --   -0.52653  -0.52423  -0.52320  -0.50031  -0.49792
 Alpha  occ. eigenvalues --   -0.48074  -0.47726  -0.46739  -0.46475  -0.45930
 Alpha  occ. eigenvalues --   -0.45727  -0.45683  -0.45427  -0.43767  -0.43756
 Alpha virt. eigenvalues --    0.21464   0.23153   0.23517   0.24768   0.25884
 Alpha virt. eigenvalues --    0.26787   0.27016   0.27406   0.28114   0.29379
 Alpha virt. eigenvalues --    0.30263   0.31466   0.31713   0.32013   0.32134

 Mulliken charges:
               1
     1  C   -0.298151
     2  C   -0.299906
     3  C   -0.481456
     4  H    0.148357
     5  H    0.149766
     6  H    0.151511
     7  H    0.151708
     8  H    0.155090
     9  H    0.162791
    10  H    0.159932
    11  C   -0.298215
    12  C   -0.299634
    13  C   -0.475701
    14  H    0.149494
    15  H    0.149821
    16  H    0.151665
    17  H    0.151961
    18  H    0.155244
    19  H    0.155183
    20  H    0.160235
    21  C   -0.298264
    22  C   -0.299663
    23  C   -0.475669
    24  H    0.149578
    25  H    0.149216
    26  H    0.151831
    27  H    0.152257
    28  H    0.155106
    29  H    0.155113
    30  H    0.160149
    31  C   -0.299871
    32  C   -0.300186
    33  C   -0.477705
    34  H    0.150315
    35  H    0.151309
    36  H    0.151839
    37  H    0.151340
    38  H    0.157328
    39  H    0.156456
    40  H    0.159825
 Sum of Mulliken charges =  -0.00000

 Dipole moment (field-independent basis, Debye):
    X=              0.0110    Y=             -0.0122    Z=              0.0122  Tot=              0.0205
 Quadrupole moment (field-independent basis, Debye-Ang):
   XX=            -85.7022   YY=            -85.7951   ZZ=            -83.3611
   XY=             -0.3893   XZ=              0.0778   YZ=              0.1797

 Normal termination of Gaussian 16 at Wed May  5 23:11:11 2021.
