 Gaussian 16, Revision A.03,
 Gaussian 16:  EM64L-G16RevA.03 25-Dec-2016

 -------------
 #p 6-31g* mp2
 -------------

 ------------------------------------------------------
 Input file generated by CHIRIPA (05-May-2021 14:51:12)
 ------------------------------------------------------
 Symbolic Z-matrix:
 Charge =  0 Multiplicity = 1

                         Standard orientation:
 ---------------------------------------------------------------------
 Center     Atomic      Atomic             Coordinates (Angstroms)
 Number     Number       Type             X           Y           Z
 ---------------------------------------------------------------------
      1          6           0       -4.290359   -0.205289    0.345393
      2          6           0       -5.633829   -0.545102   -0.300827
      3          6           0       -6.247611   -1.831382    0.252844
      4          1           0       -3.594535   -1.041316    0.191010
      5          1           0       -4.427589   -0.109303    1.431371
      6          1           0       -5.494374   -0.639056   -1.385419
      7          1           0       -6.326476    0.291911   -0.145054
      8          1           0       -6.415364   -1.745056    1.331273
      9          1           0       -5.578535   -2.681313    0.083859
     10          1           0       -7.207458   -2.055383   -0.222945
     11          6           0       -3.664211    1.077954   -0.197703
     12          6           0       -2.320740    1.417768    0.448516
     13          6           0       -1.706959    2.704047   -0.105155
     14          1           0       -3.526980    0.981968   -1.283682
     15          1           0       -4.360034    1.913981   -0.043321
     16          1           0       -1.628094    0.580755    0.292743
     17          1           0       -2.460195    1.511721    1.533109
     18          1           0       -2.376035    3.553978    0.063830
     19          1           0       -1.539205    2.617721   -1.183584
     20          1           0       -0.747111    2.928048    0.370634
     21          6           0        3.383345   -0.909046    0.011069
     22          6           0        2.068871   -0.331788   -0.515160
     23          6           0        0.889939   -1.289182   -0.338214
     24          1           0        3.595338   -1.853859   -0.507904
     25          1           0        3.267132   -1.156285    1.075382
     26          1           0        2.187957   -0.084426   -1.577820
     27          1           0        1.860080    0.611856    0.004989
     28          1           0        0.742647   -1.527432    0.720154
     29          1           0        1.072388   -2.227671   -0.871649
     30          1           0       -0.039589   -0.856483   -0.721111
     31          6           0        4.571225    0.036380   -0.158758
     32          6           0        5.885699   -0.540877    0.367471
     33          6           0        7.064631    0.416517    0.190525
     34          1           0        4.687439    0.283620   -1.223071
     35          1           0        4.359233    0.981192    0.360215
     36          1           0        6.094490   -1.484522   -0.152679
     37          1           0        5.766612   -0.788239    1.430131
     38          1           0        6.882182    1.355005    0.723959
     39          1           0        7.211923    0.654766   -0.867843
     40          1           0        7.994159   -0.016182    0.573422
 ---------------------------------------------------------------------

 SCF Done:  E(RHF) =  -470.733252390     A.U. after   11 cycles
 E2 =    -0.1582608591D+01 EUMP2 =    -0.47231586098126D+03

 The electronic state is 1-A.
 Alpha  occ. eigenvalues --  -11.21633 -11.21612 -11.21581 -11.21536 -11.21423
 Alpha  occ. eigenvalues --  -11.21380 -11.21363 -11.21320 -11.21116 -11.21078
 Alpha  occ. eigenvalues --  -11.21056 -11.21051  -1.08452  -1.08403  -1.03566
 Alpha  occ. eigenvalues --   -1.03494  -0.96014  -0.95950  -0.87037  -0.86962
 Alpha  occ. eigenvalues --   -0.79644  -0.79540  -0.78260  -0.78217  -0.65099
 Alpha  occ. eigenvalues --   -0.65033  -0.61019  -0.60884  -0.59445  -0.59245
 Alpha  occ. eigenvalues --   -0.57662  -0.57514  -0.55306  -0.55226  -0.52749
 Alpha  occ. eigenvalues --   -0.52636  -0.52444  -0.52367  -0.49968  -0.49874
 Alpha  occ. eigenvalues --   -0.48002  -0.47824  -0.46664  -0.46562  -0.45803
 Alpha  occ. eigenvalues --   -0.45754  -0.45723  -0.45676  -0.43794  -0.43734
 Alpha virt. eigenvalues --    0.20945   0.23022   0.23643   0.25080   0.26178
 Alpha virt. eigenvalues --    0.26494   0.27142   0.27277   0.28174   0.28894
 Alpha virt. eigenvalues --    0.30638   0.31185   0.31623   0.31780   0.32293

 Mulliken charges:
               1
     1  C   -0.298532
     2  C   -0.299608
     3  C   -0.475722
     4  H    0.149969
     5  H    0.149503
     6  H    0.151858
     7  H    0.151875
     8  H    0.155123
     9  H    0.155336
    10  H    0.160154
    11  C   -0.297904
    12  C   -0.308281
    13  C   -0.475354
    14  H    0.148995
    15  H    0.149579
    16  H    0.160682
    17  H    0.151655
    18  H    0.155139
    19  H    0.154973
    20  H    0.159939
    21  C   -0.298462
    22  C   -0.300328
    23  C   -0.479817
    24  H    0.149731
    25  H    0.149667
    26  H    0.152011
    27  H    0.153003
    28  H    0.155667
    29  H    0.155385
    30  H    0.163520
    31  C   -0.298302
    32  C   -0.299683
    33  C   -0.475721
    34  H    0.149594
    35  H    0.149723
    36  H    0.151946
    37  H    0.151964
    38  H    0.155225
    39  H    0.155210
    40  H    0.160288
 Sum of Mulliken charges =  -0.00000

 Dipole moment (field-independent basis, Debye):
    X=              0.0254    Y=             -0.0143    Z=              0.0018  Tot=              0.0292
 Quadrupole moment (field-independent basis, Debye-Ang):
   XX=            -85.8020   YY=            -85.5345   ZZ=            -83.4974
   XY=             -1.3815   XZ=             -0.3159   YZ=              1.0866

 Normal termination of Gaussian 16 at Wed May  5 15:16:31 2021.
