 Gaussian 16, Revision A.03,
 Gaussian 16:  EM64L-G16RevA.03 25-Dec-2016

 -------------
 #p 6-31g* mp2
 -------------

 ------------------------------------------------------
 Input file generated by CHIRIPA (05-May-2021 14:53:13)
 ------------------------------------------------------
 Symbolic Z-matrix:
 Charge =  0 Multiplicity = 1

                         Standard orientation:
 ---------------------------------------------------------------------
 Center     Atomic      Atomic             Coordinates (Angstroms)
 Number     Number       Type             X           Y           Z
 ---------------------------------------------------------------------
      1          6           0       -2.644712    0.272969   -0.581164
      2          6           0       -2.188247    1.618192   -1.146850
      3          6           0       -0.673746    1.693864   -1.342695
      4          1           0       -2.140150    0.095744    0.378499
      5          1           0       -2.320940   -0.530200   -1.257543
      6          1           0       -2.513985    2.418694   -0.470310
      7          1           0       -2.694099    1.792323   -2.105186
      8          1           0       -0.335420    0.915781   -2.034593
      9          1           0       -0.154283    1.545711   -0.390429
     10          1           0       -0.369307    2.663912   -1.747890
     11          6           0       -4.156297    0.181976   -0.379771
     12          6           0       -4.612762   -1.163247    0.185914
     13          6           0       -6.127262   -1.238919    0.381759
     14          1           0       -4.480068    0.985145    0.296607
     15          1           0       -4.660858    0.359201   -1.339435
     16          1           0       -4.106909   -1.337378    1.144250
     17          1           0       -4.287023   -1.963749   -0.490626
     18          1           0       -6.646726   -1.090766   -0.570507
     19          1           0       -6.465588   -0.460836    1.073658
     20          1           0       -6.431701   -2.208967    0.786954
     21          6           0        1.230609    1.014012    2.081865
     22          6           0        1.162363   -0.377921    1.961927
     23          6           0        1.947911   -1.048755    1.019884
     24          6           0        2.794507   -0.292924    0.210388
     25          6           0        2.884871    1.094883    0.305855
     26          6           0        2.090130    1.744684    1.254904
     27          1           0        0.616805    1.526963    2.816387
     28          1           0        0.495751   -0.947945    2.602821
     29          1           0        1.914814   -2.125470    0.905829
     30          1           0        3.558901    1.635976   -0.347077
     31          1           0        2.145200    2.825769    1.345827
     32          7           0        3.630999   -0.991973   -0.790620
     33          8           0        4.368816   -0.303175   -1.491918
     34          8           0        3.532983   -2.215447   -0.854956
 ---------------------------------------------------------------------

 SCF Done:  E(RHF) =  -669.534528631     A.U. after   15 cycles
 E2 =    -0.2093542919D+01 EUMP2 =    -0.67162807154961D+03

 The electronic state is 1-A.
 Alpha  occ. eigenvalues --  -20.60814 -20.60809 -15.85868 -11.31274 -11.27845
 Alpha  occ. eigenvalues --  -11.27817 -11.27576 -11.26884 -11.26824 -11.21920
 Alpha  occ. eigenvalues --  -11.21795 -11.21684 -11.21623 -11.21346 -11.21008
 Alpha  occ. eigenvalues --   -1.59888  -1.39440  -1.19456  -1.08854  -1.08685
 Alpha  occ. eigenvalues --   -1.04855  -1.03748  -0.96189  -0.95667  -0.87209
 Alpha  occ. eigenvalues --   -0.86248  -0.82492  -0.79826  -0.78511  -0.77531
 Alpha  occ. eigenvalues --   -0.72086  -0.71209  -0.70553  -0.65336  -0.65100
 Alpha  occ. eigenvalues --   -0.64849  -0.62191  -0.61180  -0.59568  -0.57835
 Alpha  occ. eigenvalues --   -0.55585  -0.55356  -0.53478  -0.52940  -0.52871
 Alpha  occ. eigenvalues --   -0.52348  -0.50074  -0.48848  -0.48838  -0.48081
 Alpha  occ. eigenvalues --   -0.46848  -0.46020  -0.45979  -0.44837  -0.44022
 Alpha  occ. eigenvalues --   -0.37384  -0.36406
 Alpha virt. eigenvalues --    0.04984   0.11123   0.16447   0.21161   0.22683
 Alpha virt. eigenvalues --    0.24166   0.26206   0.26881   0.27468   0.28049
 Alpha virt. eigenvalues --    0.28309   0.30868   0.31320   0.31669   0.31883

 Mulliken charges:
               1
     1  C   -0.297644
     2  C   -0.298918
     3  C   -0.485205
     4  H    0.143633
     5  H    0.152155
     6  H    0.147374
     7  H    0.153002
     8  H    0.157220
     9  H    0.165506
    10  H    0.156041
    11  C   -0.298231
    12  C   -0.299114
    13  C   -0.475723
    14  H    0.147743
    15  H    0.151511
    16  H    0.147798
    17  H    0.153661
    18  H    0.156622
    19  H    0.154512
    20  H    0.160658
    21  C   -0.174575
    22  C   -0.215711
    23  C   -0.170744
    24  C    0.160268
    25  C   -0.167287
    26  C   -0.219761
    27  H    0.226203
    28  H    0.224202
    29  H    0.276227
    30  H    0.276279
    31  H    0.224503
    32  N    0.487934
    33  O   -0.459900
    34  O   -0.460237
 Sum of Mulliken charges =  -0.00000

 Dipole moment (field-independent basis, Debye):
    X=             -2.8290    Y=              2.4158    Z=              3.5346  Tot=              5.1315
 Quadrupole moment (field-independent basis, Debye-Ang):
   XX=           -112.2769   YY=            -92.5335   ZZ=            -92.6340
   XY=              9.7610   XZ=              9.0726   YZ=             -1.4252

 Normal termination of Gaussian 16 at Thu May  6 18:43:16 2021.
