 Gaussian 16, Revision A.03,
 Gaussian 16:  EM64L-G16RevA.03 25-Dec-2016

 -------------
 #p 6-31g* mp2
 -------------

 ------------------------------------------------------
 Input file generated by CHIRIPA (05-May-2021 14:53:13)
 ------------------------------------------------------
 Symbolic Z-matrix:
 Charge =  0 Multiplicity = 1

                         Standard orientation:
 ---------------------------------------------------------------------
 Center     Atomic      Atomic             Coordinates (Angstroms)
 Number     Number       Type             X           Y           Z
 ---------------------------------------------------------------------
      1          6           0       -2.468895    1.375211    0.214369
      2          6           0       -1.519737    2.370129   -0.454379
      3          6           0       -1.238786    3.595532    0.415820
      4          1           0       -3.413964    1.882597    0.451750
      5          1           0       -2.037086    1.054453    1.172519
      6          1           0       -1.952560    2.687859   -1.411629
      7          1           0       -0.576888    1.860265   -0.690369
      8          1           0       -0.784234    3.297188    1.366069
      9          1           0       -2.167722    4.129484    0.640711
     10          1           0       -0.558121    4.293556   -0.081492
     11          6           0       -2.759416    0.144850   -0.643266
     12          6           0       -3.708573   -0.850068    0.025482
     13          6           0       -3.989524   -2.075471   -0.844716
     14          1           0       -3.191225    0.465608   -1.601415
     15          1           0       -1.814347   -0.362536   -0.880647
     16          1           0       -4.651422   -0.340204    0.261472
     17          1           0       -3.275751   -1.167798    0.982733
     18          1           0       -3.060589   -2.609423   -1.069607
     19          1           0       -4.444077   -1.777127   -1.794966
     20          1           0       -4.670189   -2.773495   -0.347405
     21          6           0        0.150845   -1.634846    1.473086
     22          6           0        1.060761   -0.787687    2.114097
     23          6           0        2.112609   -0.205312    1.400654
     24          6           0        2.225169   -0.493127    0.041322
     25          6           0        1.334676   -1.333027   -0.625672
     26          6           0        0.290460   -1.904336    0.107654
     27          1           0       -0.663293   -2.082950    2.035028
     28          1           0        0.954789   -0.576610    3.174410
     29          1           0        2.831223    0.454187    1.871900
     30          1           0        1.466183   -1.524615   -1.683697
     31          1           0       -0.414706   -2.561868   -0.392785
     32          7           0        3.334673    0.117550   -0.724493
     33          8           0        3.411999   -0.151906   -1.921176
     34          8           0        4.105969    0.854092   -0.113555
 ---------------------------------------------------------------------

 SCF Done:  E(RHF) =  -669.534849290     A.U. after   15 cycles
 E2 =    -0.2094930773D+01 EUMP2 =    -0.67162978006276D+03

 The electronic state is 1-A.
 Alpha  occ. eigenvalues --  -20.60870 -20.60865 -15.85926 -11.31355 -11.27909
 Alpha  occ. eigenvalues --  -11.27904 -11.27653 -11.26941 -11.26924 -11.22335
 Alpha  occ. eigenvalues --  -11.21942 -11.21753 -11.21729 -11.21654 -11.21176
 Alpha  occ. eigenvalues --   -1.59945  -1.39496  -1.19528  -1.08959  -1.08793
 Alpha  occ. eigenvalues --   -1.04938  -1.03972  -0.96413  -0.95730  -0.87439
 Alpha  occ. eigenvalues --   -0.86328  -0.82565  -0.80050  -0.78623  -0.77599
 Alpha  occ. eigenvalues --   -0.72142  -0.71270  -0.70615  -0.65625  -0.65170
 Alpha  occ. eigenvalues --   -0.64849  -0.62294  -0.61346  -0.59804  -0.58011
 Alpha  occ. eigenvalues --   -0.55763  -0.55423  -0.53261  -0.53107  -0.53022
 Alpha  occ. eigenvalues --   -0.52823  -0.50395  -0.48909  -0.48893  -0.48361
 Alpha  occ. eigenvalues --   -0.47099  -0.46151  -0.46072  -0.44888  -0.44184
 Alpha  occ. eigenvalues --   -0.37459  -0.36449
 Alpha virt. eigenvalues --    0.04897   0.11031   0.16263   0.19089   0.22969
 Alpha virt. eigenvalues --    0.23716   0.25077   0.25854   0.27397   0.28421
 Alpha virt. eigenvalues --    0.28656   0.29573   0.31210   0.31610   0.32111

 Mulliken charges:
               1
     1  C   -0.297292
     2  C   -0.300872
     3  C   -0.475701
     4  H    0.149218
     5  H    0.146259
     6  H    0.152896
     7  H    0.154754
     8  H    0.152669
     9  H    0.154429
    10  H    0.164086
    11  C   -0.303374
    12  C   -0.300593
    13  C   -0.476114
    14  H    0.150948
    15  H    0.153709
    16  H    0.155989
    17  H    0.142666
    18  H    0.145500
    19  H    0.160716
    20  H    0.161975
    21  C   -0.170601
    22  C   -0.219065
    23  C   -0.170873
    24  C    0.159435
    25  C   -0.172242
    26  C   -0.221746
    27  H    0.227660
    28  H    0.224461
    29  H    0.276432
    30  H    0.276930
    31  H    0.229429
    32  N    0.487870
    33  O   -0.459748
    34  O   -0.459810
 Sum of Mulliken charges =  -0.00000

 Dipole moment (field-independent basis, Debye):
    X=             -3.8281    Y=             -2.1080    Z=              2.6689  Tot=              5.1207
 Quadrupole moment (field-independent basis, Debye-Ang):
   XX=           -111.6962   YY=            -92.8164   ZZ=            -91.3423
   XY=             -2.7706   XZ=              7.7650   YZ=             -0.0203

 Normal termination of Gaussian 16 at Thu May  6 21:54:08 2021.
