 Gaussian 16, Revision A.03,
 Gaussian 16:  EM64L-G16RevA.03 25-Dec-2016

 -------------
 #p 6-31g* mp2
 -------------

 ------------------------------------------------------
 Input file generated by CHIRIPA (05-May-2021 14:51:09)
 ------------------------------------------------------
 Symbolic Z-matrix:
 Charge =  0 Multiplicity = 1

                         Standard orientation:
 ---------------------------------------------------------------------
 Center     Atomic      Atomic             Coordinates (Angstroms)
 Number     Number       Type             X           Y           Z
 ---------------------------------------------------------------------
      1          6           0       -2.639526    1.486452   -0.091132
      2          6           0       -1.355703    1.754263    0.695037
      3          6           0       -0.853263    3.189484    0.535384
      4          1           0       -2.461713    1.698064   -1.154405
      5          1           0       -3.417700    2.187448    0.241200
      6          1           0       -0.580589    1.052055    0.362294
      7          1           0       -1.536538    1.541807    1.756534
      8          1           0       -1.606585    3.902564    0.885561
      9          1           0       -0.645205    3.410030   -0.516601
     10          1           0        0.065366    3.359024    1.105681
     11          6           0       -3.154243    0.055922    0.058455
     12          6           0       -4.438065   -0.211889   -0.727714
     13          6           0       -4.940506   -1.647110   -0.568062
     14          1           0       -2.376069   -0.645074   -0.273878
     15          1           0       -3.332056   -0.155690    1.121728
     16          1           0       -4.257230    0.000568   -1.789211
     17          1           0       -5.213180    0.490319   -0.394971
     18          1           0       -5.148564   -1.867656    0.483923
     19          1           0       -4.187183   -2.360190   -0.918238
     20          1           0       -5.859134   -1.816650   -1.138358
     21          6           0        2.151011   -0.907913   -0.075372
     22          6           0        1.634327   -2.057479    0.790376
     23          6           0        0.140481   -2.318912    0.595770
     24          1           0        1.584154    0.003289    0.159849
     25          1           0        1.952260   -1.135704   -1.131783
     26          1           0        1.835237   -1.828218    1.844744
     27          1           0        2.202608   -2.966006    0.553204
     28          1           0       -0.073489   -2.572731   -0.447491
     29          1           0       -0.442947   -1.428478    0.851387
     30          1           0       -0.207781   -3.144603    1.224106
     31          6           0        3.642757   -0.634461    0.108049
     32          6           0        4.159442    0.515105   -0.757699
     33          6           0        5.653288    0.776537   -0.563093
     34          1           0        3.841509   -0.406669    1.164459
     35          1           0        4.209615   -1.545664   -0.127172
     36          1           0        3.591160    1.423632   -0.520526
     37          1           0        3.958531    0.285844   -1.812066
     38          1           0        6.236716   -0.113896   -0.818710
     39          1           0        5.867257    1.030358    0.480168
     40          1           0        6.001550    1.602230   -1.191428
 ---------------------------------------------------------------------

 SCF Done:  E(RHF) =  -470.732195926     A.U. after   11 cycles
 E2 =    -0.1584496834D+01 EUMP2 =    -0.47231669276027D+03

 The electronic state is 1-A.
 Alpha  occ. eigenvalues --  -11.21616 -11.21611 -11.21595 -11.21556 -11.21418
 Alpha  occ. eigenvalues --  -11.21375 -11.21359 -11.21278 -11.21111 -11.21078
 Alpha  occ. eigenvalues --  -11.21023 -11.21006  -1.08466  -1.08394  -1.03544
 Alpha  occ. eigenvalues --   -1.03513  -0.96015  -0.95938  -0.87028  -0.86963
 Alpha  occ. eigenvalues --   -0.79649  -0.79583  -0.78400  -0.78087  -0.65208
 Alpha  occ. eigenvalues --   -0.64936  -0.61021  -0.60843  -0.59398  -0.59288
 Alpha  occ. eigenvalues --   -0.57722  -0.57488  -0.55352  -0.55182  -0.52697
 Alpha  occ. eigenvalues --   -0.52675  -0.52501  -0.52296  -0.49991  -0.49852
 Alpha  occ. eigenvalues --   -0.48079  -0.47911  -0.46908  -0.46557  -0.46089
 Alpha  occ. eigenvalues --   -0.45744  -0.45718  -0.44937  -0.43787  -0.43761
 Alpha virt. eigenvalues --    0.21369   0.23036   0.23756   0.24167   0.25887
 Alpha virt. eigenvalues --    0.26461   0.26728   0.27242   0.28387   0.29941
 Alpha virt. eigenvalues --    0.30348   0.31470   0.31844   0.31916   0.31951

 Mulliken charges:
               1
     1  C   -0.296981
     2  C   -0.311268
     3  C   -0.475222
     4  H    0.149425
     5  H    0.149336
     6  H    0.161686
     7  H    0.151413
     8  H    0.155654
     9  H    0.155517
    10  H    0.159476
    11  C   -0.305145
    12  C   -0.299203
    13  C   -0.475653
    14  H    0.158159
    15  H    0.148792
    16  H    0.151597
    17  H    0.151537
    18  H    0.155098
    19  H    0.155610
    20  H    0.159922
    21  C   -0.306015
    22  C   -0.299202
    23  C   -0.484021
    24  H    0.156623
    25  H    0.148860
    26  H    0.151846
    27  H    0.151754
    28  H    0.153300
    29  H    0.165805
    30  H    0.160406
    31  C   -0.297588
    32  C   -0.299797
    33  C   -0.475710
    34  H    0.149580
    35  H    0.149804
    36  H    0.152086
    37  H    0.151789
    38  H    0.155194
    39  H    0.155224
    40  H    0.160313
 Sum of Mulliken charges =  -0.00000

 Dipole moment (field-independent basis, Debye):
    X=              0.0034    Y=             -0.0024    Z=              0.0026  Tot=              0.0049
 Quadrupole moment (field-independent basis, Debye-Ang):
   XX=            -85.9431   YY=            -85.4410   ZZ=            -83.5584
   XY=             -1.0608   XZ=             -0.6352   YZ=              0.7146

 Normal termination of Gaussian 16 at Wed May  5 18:09:18 2021.
