 Gaussian 16, Revision A.03,
 Gaussian 16:  EM64L-G16RevA.03 25-Dec-2016

 -------------
 #p 6-31g* mp2
 -------------

 ------------------------------------------------------
 Input file generated by CHIRIPA (05-May-2021 14:57:24)
 ------------------------------------------------------
 Symbolic Z-matrix:
 Charge =  0 Multiplicity = 1

                         Standard orientation:
 ---------------------------------------------------------------------
 Center     Atomic      Atomic             Coordinates (Angstroms)
 Number     Number       Type             X           Y           Z
 ---------------------------------------------------------------------
      1          6           0        5.988488    0.361239    0.296336
      2          6           0        5.017728    0.925169    1.130679
      3          6           0        3.660304    0.670329    0.913875
      4          6           0        3.307535   -0.156786   -0.151360
      5          6           0        4.251158   -0.733406   -1.000109
      6          6           0        5.602785   -0.464792   -0.764525
      7          1           0        7.040716    0.564555    0.472049
      8          1           0        5.314355    1.567057    1.955323
      9          1           0        2.887977    1.093878    1.544379
     10          1           0        3.924750   -1.369258   -1.814092
     11          1           0        6.354510   -0.904113   -1.414103
     12          7           0        1.873560   -0.433865   -0.390821
     13          8           0        1.588703   -1.165943   -1.336102
     14          8           0        1.061620    0.086285    0.371303
     15          6           0       -3.772807   -2.341237    0.659120
     16          6           0       -2.787281   -1.572840    1.287472
     17          6           0       -2.651295   -0.213153    0.991992
     18          6           0       -3.521739    0.348205    0.058990
     19          6           0       -4.513589   -0.390933   -0.583816
     20          6           0       -4.631301   -1.748876   -0.272875
     21          1           0       -3.871347   -3.396797    0.894662
     22          1           0       -2.119165   -2.030210    2.011682
     23          1           0       -1.897109    0.405039    1.463649
     24          1           0       -5.164879    0.093088   -1.301424
     25          1           0       -5.397595   -2.343178   -0.762411
     26          7           0       -3.387450    1.786721   -0.262005
     27          8           0       -4.166740    2.257560   -1.087629
     28          8           0       -2.505446    2.416152    0.318101
 ---------------------------------------------------------------------

 SCF Done:  E(RHF) =  -868.338808950     A.U. after   16 cycles
 E2 =    -0.2598824255D+01 EUMP2 =    -0.87093763320449D+03

 The electronic state is 1-A.
 Alpha  occ. eigenvalues --  -20.61012 -20.61007 -20.59648 -20.59619 -15.86057
 Alpha  occ. eigenvalues --  -15.84686 -11.31313 -11.29899 -11.27875 -11.27861
 Alpha  occ. eigenvalues --  -11.27600 -11.26869 -11.26853 -11.26575 -11.26389
 Alpha  occ. eigenvalues --  -11.26317 -11.25580 -11.25456  -1.60076  -1.58711
 Alpha  occ. eigenvalues --   -1.39634  -1.38267  -1.19477  -1.18098  -1.08893
 Alpha  occ. eigenvalues --   -1.07544  -1.04865  -1.03484  -0.95746  -0.94390
 Alpha  occ. eigenvalues --   -0.86268  -0.84907  -0.82583  -0.81229  -0.77640
 Alpha  occ. eigenvalues --   -0.76269  -0.72291  -0.71387  -0.70923  -0.70587
 Alpha  occ. eigenvalues --   -0.70020  -0.69250  -0.65135  -0.64868  -0.63774
 Alpha  occ. eigenvalues --   -0.63525  -0.62212  -0.60833  -0.55373  -0.54067
 Alpha  occ. eigenvalues --   -0.53200  -0.52956  -0.51821  -0.51603  -0.49033
 Alpha  occ. eigenvalues --   -0.49019  -0.47679  -0.47658  -0.45060  -0.43706
 Alpha  occ. eigenvalues --   -0.37454  -0.36463  -0.36113  -0.35046
 Alpha virt. eigenvalues --    0.04892   0.06269   0.11193   0.12589   0.16402
 Alpha virt. eigenvalues --    0.17753   0.21329   0.22563   0.27255   0.28124
 Alpha virt. eigenvalues --    0.28519   0.29460   0.30907   0.32034   0.32451

 Mulliken charges:
               1
     1  C   -0.170416
     2  C   -0.218555
     3  C   -0.170349
     4  C    0.158033
     5  C   -0.170729
     6  C   -0.218608
     7  H    0.226202
     8  H    0.224427
     9  H    0.276356
    10  H    0.275475
    11  H    0.223772
    12  N    0.490599
    13  O   -0.459485
    14  O   -0.465373
    15  C   -0.170244
    16  C   -0.217309
    17  C   -0.157044
    18  C    0.155711
    19  C   -0.171227
    20  C   -0.219497
    21  H    0.220949
    22  H    0.221035
    23  H    0.283031
    24  H    0.271642
    25  H    0.218483
    26  N    0.488582
    27  O   -0.466149
    28  O   -0.459313
 Sum of Mulliken charges =  -0.00000

 Dipole moment (field-independent basis, Debye):
    X=              4.9701    Y=             -4.0435    Z=              2.0290  Tot=              6.7208
 Quadrupole moment (field-independent basis, Debye-Ang):
   XX=            -66.9037   YY=           -108.6102   ZZ=           -100.6440
   XY=             19.8196   XZ=             -0.3826   YZ=              2.8576

 Normal termination of Gaussian 16 at Thu May  6 11:20:11 2021.
