 Gaussian 16, Revision A.03,
 Gaussian 16:  EM64L-G16RevA.03 25-Dec-2016

 -------------
 #p 6-31g* mp2
 -------------

 ------------------------------------------------------
 Input file generated by CHIRIPA (05-May-2021 14:57:27)
 ------------------------------------------------------
 Symbolic Z-matrix:
 Charge =  0 Multiplicity = 1

                         Standard orientation:
 ---------------------------------------------------------------------
 Center     Atomic      Atomic             Coordinates (Angstroms)
 Number     Number       Type             X           Y           Z
 ---------------------------------------------------------------------
      1          6           0        2.057940    1.077699    0.875388
      2          6           0        2.091680   -0.299394    0.632493
      3          6           0        3.277305   -0.920223    0.228248
      4          6           0        4.415630   -0.130065    0.076080
      5          6           0        4.413880    1.244115    0.310423
      6          6           0        3.217104    1.843708    0.713863
      7          1           0        1.132587    1.551725    1.189103
      8          1           0        1.192992   -0.896781    0.757125
      9          1           0        3.331543   -1.984427    0.033448
     10          1           0        5.325894    1.813341    0.177642
     11          1           0        3.193847    2.913375    0.901790
     12          7           0        5.676700   -0.776068   -0.351450
     13          8           0        6.665926   -0.057751   -0.478298
     14          8           0        5.652023   -1.988489   -0.551604
     15          6           0       -2.188395    1.455866   -0.632923
     16          6           0       -3.463631    2.029939   -0.605832
     17          6           0       -4.589632    1.245966   -0.337405
     18          6           0       -4.403018   -0.114871   -0.099522
     19          6           0       -3.145509   -0.716168   -0.119567
     20          6           0       -2.033677    0.087058   -0.390132
     21          1           0       -1.319193    2.072353   -0.842274
     22          1           0       -3.586790    3.092701   -0.794016
     23          1           0       -5.588383    1.664511   -0.310304
     24          1           0       -3.054377   -1.778448    0.071937
     25          1           0       -1.044517   -0.361488   -0.410528
     26          7           0       -5.587566   -0.955020    0.185783
     27          8           0       -5.396446   -2.151499    0.392055
     28          8           0       -6.684703   -0.401140    0.197728
 ---------------------------------------------------------------------

 SCF Done:  E(RHF) =  -868.336737583     A.U. after   16 cycles
 E2 =    -0.2600076967D+01 EUMP2 =    -0.87093681455047D+03

 The electronic state is 1-A.
 Alpha  occ. eigenvalues --  -20.61364 -20.61359 -20.61343 -20.61336 -15.86425
 Alpha  occ. eigenvalues --  -15.86402 -11.31965 -11.31920 -11.28582 -11.28543
 Alpha  occ. eigenvalues --  -11.28543 -11.28486 -11.28408 -11.28339 -11.27707
 Alpha  occ. eigenvalues --  -11.27649 -11.27600 -11.27534  -1.60436  -1.60414
 Alpha  occ. eigenvalues --   -1.39984  -1.39964  -1.20173  -1.20121  -1.09557
 Alpha  occ. eigenvalues --   -1.09492  -1.05609  -1.05546  -0.96352  -0.96294
 Alpha  occ. eigenvalues --   -0.87050  -0.86908  -0.83187  -0.83119  -0.78212
 Alpha  occ. eigenvalues --   -0.78114  -0.72641  -0.72616  -0.71761  -0.71740
 Alpha  occ. eigenvalues --   -0.71367  -0.71180  -0.65895  -0.65801  -0.65777
 Alpha  occ. eigenvalues --   -0.65375  -0.63046  -0.62776  -0.56226  -0.55989
 Alpha  occ. eigenvalues --   -0.53949  -0.53866  -0.53814  -0.53508  -0.49421
 Alpha  occ. eigenvalues --   -0.49385  -0.49379  -0.49362  -0.45350  -0.45335
 Alpha  occ. eigenvalues --   -0.38202  -0.38116  -0.37201  -0.37151
 Alpha virt. eigenvalues --    0.04343   0.04402   0.10290   0.10444   0.15727
 Alpha virt. eigenvalues --    0.15829   0.18332   0.22022   0.24391   0.25874
 Alpha virt. eigenvalues --    0.27757   0.28973   0.29606   0.31252   0.31985

 Mulliken charges:
               1
     1  C   -0.175580
     2  C   -0.223325
     3  C   -0.169309
     4  C    0.159319
     5  C   -0.169397
     6  C   -0.218208
     7  H    0.224335
     8  H    0.220363
     9  H    0.278289
    10  H    0.278274
    11  H    0.225008
    12  N    0.487945
    13  O   -0.458290
    14  O   -0.458280
    15  C   -0.174692
    16  C   -0.217888
    17  C   -0.169710
    18  C    0.159451
    19  C   -0.170422
    20  C   -0.224295
    21  H    0.224277
    22  H    0.225450
    23  H    0.278135
    24  H    0.276767
    25  H    0.220973
    26  N    0.488001
    27  O   -0.458927
    28  O   -0.458266
 Sum of Mulliken charges =  -0.00000

 Dipole moment (field-independent basis, Debye):
    X=             -0.2330    Y=              5.2504    Z=              0.4808  Tot=              5.2775
 Quadrupole moment (field-independent basis, Debye-Ang):
   XX=           -176.6621   YY=            -99.0295   ZZ=           -106.0640
   XY=             -3.3277   XZ=             10.8334   YZ=             -0.4599

 Normal termination of Gaussian 16 at Thu May  6 13:10:52 2021.
