 Gaussian 16, Revision A.03,
 Gaussian 16:  EM64L-G16RevA.03 25-Dec-2016

 -------------
 #p 6-31g* mp2
 -------------

 ------------------------------------------------------
 Input file generated by CHIRIPA (05-May-2021 14:51:14)
 ------------------------------------------------------
 Symbolic Z-matrix:
 Charge =  0 Multiplicity = 1

                         Standard orientation:
 ---------------------------------------------------------------------
 Center     Atomic      Atomic             Coordinates (Angstroms)
 Number     Number       Type             X           Y           Z
 ---------------------------------------------------------------------
      1          6           0        3.119517    1.188417   -0.245530
      2          6           0        2.291979    2.168801    0.586343
      3          6           0        2.741034    3.619652    0.409774
      4          1           0        4.177833    1.282759    0.033774
      5          1           0        3.049921    1.468307   -1.305819
      6          1           0        2.361995    1.886321    1.644604
      7          1           0        1.235485    2.071979    0.305162
      8          1           0        2.654558    3.924878   -0.638062
      9          1           0        3.787469    3.738165    0.708991
     10          1           0        2.136063    4.303439    1.013351
     11          6           0        2.682587   -0.265992   -0.079653
     12          6           0        3.510124   -1.246377   -0.911526
     13          6           0        3.061069   -2.697228   -0.734957
     14          1           0        2.752182   -0.545882    0.980636
     15          1           0        1.624270   -0.360334   -0.358957
     16          1           0        4.566618   -1.149554   -0.630345
     17          1           0        3.440108   -0.963896   -1.969787
     18          1           0        2.014635   -2.815741   -1.034174
     19          1           0        3.147545   -3.002454    0.312879
     20          1           0        3.666040   -3.381014   -1.338534
     21          6           0       -3.295309   -0.130129   -0.401657
     22          6           0       -4.471200    0.712500    0.093560
     23          6           0       -5.250209    1.368385   -1.046945
     24          1           0       -2.619967    0.504930   -0.991198
     25          1           0       -3.670465   -0.905375   -1.084042
     26          1           0       -4.094105    1.485056    0.775889
     27          1           0       -5.143722    0.075405    0.682151
     28          1           0       -5.653779    0.608981   -1.724468
     29          1           0       -4.598198    2.026642   -1.630197
     30          1           0       -6.086315    1.965907   -0.670441
     31          6           0       -2.506794   -0.792295    0.726841
     32          6           0       -1.330903   -1.634924    0.231622
     33          6           0       -0.551895   -2.290810    1.372129
     34          1           0       -2.131640   -0.017050    1.409225
     35          1           0       -3.182136   -1.427354    1.316381
     36          1           0       -0.658381   -0.997829   -0.356968
     37          1           0       -1.707998   -2.407480   -0.450706
     38          1           0       -1.203905   -2.949066    1.955380
     39          1           0       -0.148325   -1.531405    2.049650
     40          1           0        0.284211   -2.888332    0.995624
 ---------------------------------------------------------------------

 SCF Done:  E(RHF) =  -470.732882068     A.U. after   11 cycles
 E2 =    -0.1584020390D+01 EUMP2 =    -0.47231690245784D+03

 The electronic state is 1-A.
 Alpha  occ. eigenvalues --  -11.21649 -11.21616 -11.21606 -11.21581 -11.21411
 Alpha  occ. eigenvalues --  -11.21406 -11.21343 -11.21338 -11.21107 -11.21090
 Alpha  occ. eigenvalues --  -11.21078 -11.20960  -1.08472  -1.08406  -1.03580
 Alpha  occ. eigenvalues --   -1.03492  -0.96007  -0.95955  -0.87034  -0.86961
 Alpha  occ. eigenvalues --   -0.79624  -0.79584  -0.78325  -0.78192  -0.65199
 Alpha  occ. eigenvalues --   -0.64959  -0.61012  -0.60876  -0.59505  -0.59211
 Alpha  occ. eigenvalues --   -0.57700  -0.57485  -0.55325  -0.55217  -0.52736
 Alpha  occ. eigenvalues --   -0.52691  -0.52481  -0.52253  -0.49985  -0.49873
 Alpha  occ. eigenvalues --   -0.47964  -0.47856  -0.46809  -0.46572  -0.46011
 Alpha  occ. eigenvalues --   -0.45774  -0.45719  -0.45335  -0.43808  -0.43753
 Alpha virt. eigenvalues --    0.20596   0.23032   0.23497   0.24668   0.25574
 Alpha virt. eigenvalues --    0.26319   0.26747   0.27600   0.28302   0.29642
 Alpha virt. eigenvalues --    0.30882   0.31402   0.31759   0.32005   0.32062

 Mulliken charges:
               1
     1  C   -0.297806
     2  C   -0.299610
     3  C   -0.475666
     4  H    0.149782
     5  H    0.149264
     6  H    0.151930
     7  H    0.150765
     8  H    0.155250
     9  H    0.155456
    10  H    0.160220
    11  C   -0.306983
    12  C   -0.299171
    13  C   -0.478810
    14  H    0.150424
    15  H    0.158522
    16  H    0.151969
    17  H    0.151678
    18  H    0.157790
    19  H    0.155954
    20  H    0.160366
    21  C   -0.298233
    22  C   -0.299659
    23  C   -0.475702
    24  H    0.148921
    25  H    0.149538
    26  H    0.151997
    27  H    0.152053
    28  H    0.155179
    29  H    0.155059
    30  H    0.160311
    31  C   -0.297939
    32  C   -0.305487
    33  C   -0.479629
    34  H    0.149844
    35  H    0.149840
    36  H    0.155274
    37  H    0.151595
    38  H    0.154204
    39  H    0.155718
    40  H    0.165792
 Sum of Mulliken charges =  -0.00000

 Dipole moment (field-independent basis, Debye):
    X=              0.0264    Y=             -0.0119    Z=              0.0037  Tot=              0.0292
 Quadrupole moment (field-independent basis, Debye-Ang):
   XX=            -84.4538   YY=            -85.5878   ZZ=            -84.6977
   XY=              0.5289   XZ=              0.0955   YZ=              0.3791

 Normal termination of Gaussian 16 at Thu May  6 04:01:17 2021.
