 Gaussian 16, Revision A.03,
 Gaussian 16:  EM64L-G16RevA.03 25-Dec-2016

 -------------
 #p 6-31g* mp2
 -------------

 ------------------------------------------------------
 Input file generated by CHIRIPA (05-May-2021 14:55:20)
 ------------------------------------------------------
 Symbolic Z-matrix:
 Charge =  0 Multiplicity = 1

                         Standard orientation:
 ---------------------------------------------------------------------
 Center     Atomic      Atomic             Coordinates (Angstroms)
 Number     Number       Type             X           Y           Z
 ---------------------------------------------------------------------
      1          6           0       -4.259792    1.664377   -0.642799
      2          6           0       -3.258607    2.051019    0.254228
      3          6           0       -2.322740    1.121457    0.717496
      4          6           0       -2.417969   -0.192258    0.261017
      5          6           0       -3.403823   -0.608187   -0.632507
      6          6           0       -4.329082    0.338346   -1.082529
      7          1           0       -4.982676    2.393074   -0.997532
      8          1           0       -3.202373    3.080143    0.597427
      9          1           0       -1.537376    1.393687    1.412126
     10          1           0       -3.434353   -1.641322   -0.956726
     11          1           0       -5.105538    0.035235   -1.779153
     12          7           0       -1.432824   -1.185327    0.744447
     13          8           0       -1.538272   -2.336589    0.327178
     14          8           0       -0.573872   -0.793628    1.531473
     15          6           0        3.834512    0.582493   -0.179808
     16          6           0        3.249472    1.992709   -0.096110
     17          6           0        4.325549    3.073908    0.008101
     18          1           0        4.457452    0.397657    0.706040
     19          1           0        4.502606    0.521271   -1.050036
     20          1           0        2.581604    2.050852    0.772905
     21          1           0        2.627698    2.174140   -0.982166
     22          1           0        4.986664    3.044773   -0.864069
     23          1           0        4.940309    2.920785    0.900975
     24          1           0        3.885260    4.074189    0.066803
     25          6           0        2.771142   -0.509306   -0.284430
     26          6           0        3.356181   -1.919522   -0.368126
     27          6           0        2.280104   -3.000721   -0.472338
     28          1           0        2.103047   -0.448084    0.585799
     29          1           0        2.148201   -0.324470   -1.170277
     30          1           0        3.977955   -2.100952    0.517930
     31          1           0        4.024049   -1.977665   -1.237142
     32          1           0        1.665344   -2.847599   -1.365213
     33          1           0        1.618988   -2.971586    0.399831
     34          1           0        2.720393   -4.001001   -0.531041
 ---------------------------------------------------------------------

 SCF Done:  E(RHF) =  -669.536758191     A.U. after   15 cycles
 E2 =    -0.2092114127D+01 EUMP2 =    -0.67162887231742D+03

 The electronic state is 1-A.
 Alpha  occ. eigenvalues --  -20.61039 -20.61033 -15.86030 -11.31320 -11.27875
 Alpha  occ. eigenvalues --  -11.27872 -11.27608 -11.26875 -11.26865 -11.21074
 Alpha  occ. eigenvalues --  -11.20690 -11.20579 -11.20378 -11.20133 -11.19463
 Alpha  occ. eigenvalues --   -1.60067  -1.39628  -1.19481  -1.08894  -1.07493
 Alpha  occ. eigenvalues --   -1.04872  -1.02585  -0.95742  -0.95007  -0.86274
 Alpha  occ. eigenvalues --   -0.86021  -0.82581  -0.78707  -0.77642  -0.77231
 Alpha  occ. eigenvalues --   -0.72257  -0.71362  -0.70592  -0.65140  -0.64876
 Alpha  occ. eigenvalues --   -0.64126  -0.62219  -0.59983  -0.58465  -0.56612
 Alpha  occ. eigenvalues --   -0.55381  -0.54280  -0.53205  -0.52964  -0.51752
 Alpha  occ. eigenvalues --   -0.51420  -0.49097  -0.49022  -0.48892  -0.46971
 Alpha  occ. eigenvalues --   -0.45750  -0.45245  -0.44799  -0.44345  -0.42827
 Alpha  occ. eigenvalues --   -0.37455  -0.36470
 Alpha virt. eigenvalues --    0.04852   0.11186   0.16327   0.21276   0.23711
 Alpha virt. eigenvalues --    0.25318   0.27077   0.27527   0.27877   0.28853
 Alpha virt. eigenvalues --    0.28980   0.31001   0.32339   0.32433   0.32484

 Mulliken charges:
               1
     1  C   -0.170473
     2  C   -0.218594
     3  C   -0.170117
     4  C    0.158968
     5  C   -0.170722
     6  C   -0.218640
     7  H    0.226109
     8  H    0.224016
     9  H    0.275716
    10  H    0.275965
    11  H    0.223909
    12  N    0.489660
    13  O   -0.457864
    14  O   -0.460879
    15  C   -0.296981
    16  C   -0.298697
    17  C   -0.474827
    18  H    0.148807
    19  H    0.145957
    20  H    0.151351
    21  H    0.148075
    22  H    0.154373
    23  H    0.155290
    24  H    0.155971
    25  C   -0.308072
    26  C   -0.298413
    27  C   -0.480050
    28  H    0.173233
    29  H    0.141440
    30  H    0.149122
    31  H    0.144759
    32  H    0.150426
    33  H    0.178520
    34  H    0.152663
 Sum of Mulliken charges =  -0.00000

 Dipole moment (field-independent basis, Debye):
    X=             -3.8235    Y=              3.4047    Z=             -1.5326  Tot=              5.3441
 Quadrupole moment (field-independent basis, Debye-Ang):
   XX=            -78.9298   YY=            -95.0704   ZZ=            -93.8187
   XY=             -6.8166   XZ=              5.2167   YZ=              3.1110

 Normal termination of Gaussian 16 at Thu May  6 01:24:13 2021.
