 Gaussian 16, Revision A.03,
 Gaussian 16:  EM64L-G16RevA.03 25-Dec-2016

 -------------
 #p 6-31g* mp2
 -------------

 ------------------------------------------------------
 Input file generated by CHIRIPA (05-May-2021 14:55:24)
 ------------------------------------------------------
 Symbolic Z-matrix:
 Charge =  0 Multiplicity = 1

                         Standard orientation:
 ---------------------------------------------------------------------
 Center     Atomic      Atomic             Coordinates (Angstroms)
 Number     Number       Type             X           Y           Z
 ---------------------------------------------------------------------
      1          6           0       -5.792622    1.584735    0.270790
      2          6           0       -4.626596    2.010676   -0.373785
      3          6           0       -3.540115    1.143447   -0.522184
      4          6           0       -3.654459   -0.148687   -0.011691
      5          6           0       -4.802726   -0.602615    0.635398
      6          6           0       -5.876818    0.281746    0.772440
      7          1           0       -6.631815    2.265073    0.381659
      8          1           0       -4.558391    3.022033   -0.764361
      9          1           0       -2.625526    1.447121   -1.016884
     10          1           0       -4.841031   -1.616697    1.014328
     11          1           0       -6.781123   -0.051778    1.273477
     12          7           0       -2.510809   -1.075852   -0.162783
     13          8           0       -2.636607   -2.209233    0.295756
     14          8           0       -1.510272   -0.651626   -0.736887
     15          6           0        4.211465    0.099835   -0.284897
     16          6           0        3.312042   -1.125558   -0.119260
     17          6           0        1.899850   -0.899777   -0.660120
     18          1           0        3.752841    0.955572    0.229228
     19          1           0        4.263861    0.366320   -1.349621
     20          1           0        3.262469   -1.390487    0.944682
     21          1           0        3.772954   -1.978524   -0.633677
     22          1           0        1.930223   -0.657595   -1.727371
     23          1           0        1.416838   -0.066216   -0.140044
     24          1           0        1.273880   -1.788308   -0.531541
     25          6           0        5.626479   -0.110384    0.251078
     26          6           0        6.525901    1.115009    0.085439
     27          6           0        7.938094    0.889227    0.626299
     28          1           0        5.574083   -0.376870    1.315800
     29          1           0        6.085102   -0.966121   -0.263049
     30          1           0        6.064990    1.967975    0.599857
     31          1           0        6.575475    1.379937   -0.978502
     32          1           0        8.421105    0.055667    0.106224
     33          1           0        7.907720    0.647046    1.693551
     34          1           0        8.564064    1.777759    0.497721
 ---------------------------------------------------------------------

 SCF Done:  E(RHF) =  -669.535624469     A.U. after   15 cycles
 E2 =    -0.2090947570D+01 EUMP2 =    -0.67162657203861D+03

 The electronic state is 1-A.
 Alpha  occ. eigenvalues --  -20.60879 -20.60857 -15.85901 -11.31256 -11.27822
 Alpha  occ. eigenvalues --  -11.27819 -11.27565 -11.26837 -11.26827 -11.21073
 Alpha  occ. eigenvalues --  -11.20695 -11.20637 -11.20499 -11.20358 -11.19283
 Alpha  occ. eigenvalues --   -1.59935  -1.39489  -1.19427  -1.08826  -1.07606
 Alpha  occ. eigenvalues --   -1.04828  -1.02588  -0.95668  -0.94992  -0.86229
 Alpha  occ. eigenvalues --   -0.85999  -0.82493  -0.78686  -0.77549  -0.77372
 Alpha  occ. eigenvalues --   -0.72113  -0.71252  -0.70535  -0.65081  -0.64831
 Alpha  occ. eigenvalues --   -0.64253  -0.62174  -0.60002  -0.58442  -0.56598
 Alpha  occ. eigenvalues --   -0.55331  -0.54308  -0.53159  -0.52921  -0.51646
 Alpha  occ. eigenvalues --   -0.51428  -0.49016  -0.48881  -0.48799  -0.46977
 Alpha  occ. eigenvalues --   -0.45776  -0.44985  -0.44880  -0.44751  -0.42786
 Alpha  occ. eigenvalues --   -0.37408  -0.36431
 Alpha virt. eigenvalues --    0.04980   0.11224   0.16466   0.21354   0.23607
 Alpha virt. eigenvalues --    0.25286   0.27264   0.27410   0.28140   0.28278
 Alpha virt. eigenvalues --    0.29083   0.30922   0.32232   0.32423   0.32641

 Mulliken charges:
               1
     1  C   -0.170712
     2  C   -0.218549
     3  C   -0.171025
     4  C    0.157785
     5  C   -0.170711
     6  C   -0.218581
     7  H    0.225826
     8  H    0.223706
     9  H    0.275929
    10  H    0.275755
    11  H    0.223653
    12  N    0.490377
    13  O   -0.460332
    14  O   -0.459380
    15  C   -0.296813
    16  C   -0.302528
    17  C   -0.467625
    18  H    0.146762
    19  H    0.147322
    20  H    0.148758
    21  H    0.148009
    22  H    0.148491
    23  H    0.153865
    24  H    0.175544
    25  C   -0.297254
    26  C   -0.298816
    27  C   -0.475191
    28  H    0.148338
    29  H    0.148718
    30  H    0.150381
    31  H    0.150842
    32  H    0.154728
    33  H    0.154489
    34  H    0.158240
 Sum of Mulliken charges =  -0.00000

 Dipole moment (field-independent basis, Debye):
    X=             -4.3853    Y=              3.2070    Z=              0.5088  Tot=              5.4567
 Quadrupole moment (field-independent basis, Debye-Ang):
   XX=            -67.0002   YY=            -93.3803   ZZ=            -93.7221
   XY=             -9.6797   XZ=             -4.0785   YZ=             -1.7561

 Normal termination of Gaussian 16 at Thu May  6 12:40:53 2021.
