 Gaussian 16, Revision A.03,
 Gaussian 16:  EM64L-G16RevA.03 25-Dec-2016

 -------------
 #p 6-31g* mp2
 -------------

 ------------------------------------------------------
 Input file generated by CHIRIPA (05-May-2021 14:53:18)
 ------------------------------------------------------
 Symbolic Z-matrix:
 Charge =  0 Multiplicity = 1

                         Standard orientation:
 ---------------------------------------------------------------------
 Center     Atomic      Atomic             Coordinates (Angstroms)
 Number     Number       Type             X           Y           Z
 ---------------------------------------------------------------------
      1          6           0       -3.044905    0.456302   -0.653975
      2          6           0       -2.722347    1.903654   -0.280994
      3          6           0       -1.482061    2.436748   -0.998834
      4          1           0       -2.180433   -0.178419   -0.415727
      5          1           0       -3.191919    0.389122   -1.740837
      6          1           0       -2.577348    1.968343    0.805011
      7          1           0       -3.587759    2.534973   -0.519980
      8          1           0       -1.620116    2.401188   -2.084319
      9          1           0       -0.603964    1.831339   -0.751800
     10          1           0       -1.269755    3.472942   -0.717608
     11          6           0       -4.282204   -0.090814    0.055590
     12          6           0       -4.604762   -1.538166   -0.317390
     13          6           0       -5.845049   -2.071260    0.400450
     14          1           0       -4.135190   -0.023633    1.142452
     15          1           0       -5.146677    0.543907   -0.182657
     16          1           0       -3.739350   -2.169485   -0.078404
     17          1           0       -4.749761   -1.602855   -1.403395
     18          1           0       -6.723146   -1.465851    0.153415
     19          1           0       -5.706994   -2.035700    1.485935
     20          1           0       -6.057355   -3.107454    0.119224
     21          6           0        4.383502   -1.909545   -0.730577
     22          6           0        3.278827   -2.282805    0.042009
     23          6           0        2.429104   -1.312416    0.581329
     24          6           0        2.715073    0.028036    0.326971
     25          6           0        3.807822    0.431559   -0.438771
     26          6           0        4.644015   -0.555942   -0.968083
     27          1           0        5.038332   -2.670014   -1.145646
     28          1           0        3.074066   -3.333276    0.228099
     29          1           0        1.566958   -1.573466    1.182973
     30          1           0        3.986196    1.486689   -0.607000
     31          1           0        5.501193   -0.263138   -1.567713
     32          7           0        1.822672    1.064402    0.892628
     33          8           0        2.096344    2.238614    0.653952
     34          8           0        0.866434    0.682869    1.563952
 ---------------------------------------------------------------------

 SCF Done:  E(RHF) =  -669.535960678     A.U. after   15 cycles
 E2 =    -0.2091537578D+01 EUMP2 =    -0.67162749825605D+03

 The electronic state is 1-A.
 Alpha  occ. eigenvalues --  -20.60951 -20.60938 -15.85965 -11.31294 -11.27861
 Alpha  occ. eigenvalues --  -11.27852 -11.27594 -11.26863 -11.26852 -11.21147
 Alpha  occ. eigenvalues --  -11.20717 -11.20702 -11.20542 -11.20453 -11.19803
 Alpha  occ. eigenvalues --   -1.60010  -1.39561  -1.19463  -1.08867  -1.07663
 Alpha  occ. eigenvalues --   -1.04858  -1.02718  -0.95709  -0.95173  -0.86258
 Alpha  occ. eigenvalues --   -0.86198  -0.82543  -0.78829  -0.77597  -0.77451
 Alpha  occ. eigenvalues --   -0.72188  -0.71351  -0.70571  -0.65117  -0.64861
 Alpha  occ. eigenvalues --   -0.64283  -0.62205  -0.60095  -0.58589  -0.56779
 Alpha  occ. eigenvalues --   -0.55365  -0.54457  -0.53187  -0.52949  -0.51865
 Alpha  occ. eigenvalues --   -0.51617  -0.49226  -0.48952  -0.48842  -0.47135
 Alpha  occ. eigenvalues --   -0.45858  -0.45049  -0.44939  -0.44853  -0.42977
 Alpha  occ. eigenvalues --   -0.37440  -0.36458
 Alpha virt. eigenvalues --    0.04901   0.11196   0.16382   0.21312   0.23582
 Alpha virt. eigenvalues --    0.25120   0.27124   0.27356   0.28088   0.28409
 Alpha virt. eigenvalues --    0.28746   0.30854   0.32102   0.32430   0.32447

 Mulliken charges:
               1
     1  C   -0.297858
     2  C   -0.299064
     3  C   -0.472517
     4  H    0.150493
     5  H    0.144599
     6  H    0.161667
     7  H    0.146118
     8  H    0.145151
     9  H    0.159443
    10  H    0.164008
    11  C   -0.298192
    12  C   -0.298507
    13  C   -0.475280
    14  H    0.151840
    15  H    0.148011
    16  H    0.149222
    17  H    0.150023
    18  H    0.154878
    19  H    0.155312
    20  H    0.157560
    21  C   -0.170489
    22  C   -0.218503
    23  C   -0.170900
    24  C    0.158240
    25  C   -0.170614
    26  C   -0.218577
    27  H    0.226059
    28  H    0.223859
    29  H    0.275439
    30  H    0.276103
    31  H    0.223913
    32  N    0.486216
    33  O   -0.457226
    34  O   -0.460427
 Sum of Mulliken charges =  -0.00000

 Dipole moment (field-independent basis, Debye):
    X=              3.3911    Y=             -3.5802    Z=             -1.8656  Tot=              5.2724
 Quadrupole moment (field-independent basis, Debye-Ang):
   XX=            -77.5523   YY=            -92.8642   ZZ=            -95.7350
   XY=             -8.5276   XZ=             -5.4834   YZ=             -2.7468

 Normal termination of Gaussian 16 at Wed May  5 22:04:43 2021.
