 Gaussian 16, Revision A.03,
 Gaussian 16:  EM64L-G16RevA.03 25-Dec-2016

 -------------
 #p 6-31g* mp2
 -------------

 ------------------------------------------------------
 Input file generated by CHIRIPA (05-May-2021 14:51:13)
 ------------------------------------------------------
 Symbolic Z-matrix:
 Charge =  0 Multiplicity = 1

                         Standard orientation:
 ---------------------------------------------------------------------
 Center     Atomic      Atomic             Coordinates (Angstroms)
 Number     Number       Type             X           Y           Z
 ---------------------------------------------------------------------
      1          6           0       -4.530205   -0.452272    0.326468
      2          6           0       -5.734214   -0.475957   -0.615757
      3          6           0       -6.887096   -1.325771   -0.080524
      4          1           0       -4.182698   -1.481080    0.493017
      5          1           0       -4.847133   -0.067051    1.305527
      6          1           0       -5.414808   -0.859719   -1.593163
      7          1           0       -6.078776    0.553042   -0.780234
      8          1           0       -7.233610   -0.941208    0.884173
      9          1           0       -6.565869   -2.361996    0.066625
     10          1           0       -7.737296   -1.328763   -0.769734
     11          6           0       -3.369526    0.393187   -0.194829
     12          6           0       -2.165517    0.416873    0.747396
     13          6           0       -1.012635    1.266687    0.212163
     14          1           0       -3.052597    0.007967   -1.173888
     15          1           0       -3.717032    1.421995   -0.361378
     16          1           0       -1.820954   -0.612127    0.911873
     17          1           0       -2.484923    0.800634    1.724802
     18          1           0       -1.333862    2.302911    0.065014
     19          1           0       -0.666121    0.882124   -0.752534
     20          1           0       -0.162435    1.269678    0.901373
     21          6           0        3.714648    0.645957   -0.450705
     22          6           0        3.060705    1.703471    0.439243
     23          6           0        2.595383    2.930623   -0.345211
     24          1           0        4.570168    1.094429   -0.974065
     25          1           0        3.000484    0.337169   -1.226601
     26          1           0        3.775412    2.009167    1.214073
     27          1           0        2.206759    1.252379    0.960692
     28          1           0        1.863049    2.645634   -1.107490
     29          1           0        3.440614    3.406722   -0.852670
     30          1           0        2.130936    3.673813    0.310392
     31          6           0        4.185083   -0.586873    0.319066
     32          6           0        4.839026   -1.644387   -0.570882
     33          6           0        5.304347   -2.871538    0.213572
     34          1           0        4.899246   -0.278084    1.094962
     35          1           0        3.329563   -1.035345    0.842427
     36          1           0        5.692971   -1.193294   -1.092331
     37          1           0        4.124319   -1.950083   -1.345711
     38          1           0        4.459116   -3.347637    0.721031
     39          1           0        6.036681   -2.586549    0.975851
     40          1           0        5.768795   -3.614729   -0.442031
 ---------------------------------------------------------------------

 SCF Done:  E(RHF) =  -470.733109585     A.U. after   11 cycles
 E2 =    -0.1582804569D+01 EUMP2 =    -0.47231591415343D+03

 The electronic state is 1-A.
 Alpha  occ. eigenvalues --  -11.21633 -11.21618 -11.21585 -11.21523 -11.21428
 Alpha  occ. eigenvalues --  -11.21371 -11.21369 -11.21308 -11.21093 -11.21084
 Alpha  occ. eigenvalues --  -11.21061 -11.20971  -1.08456  -1.08389  -1.03571
 Alpha  occ. eigenvalues --   -1.03470  -0.96030  -0.95908  -0.87030  -0.86942
 Alpha  occ. eigenvalues --   -0.79625  -0.79547  -0.78267  -0.78208  -0.65094
 Alpha  occ. eigenvalues --   -0.65026  -0.60998  -0.60901  -0.59420  -0.59230
 Alpha  occ. eigenvalues --   -0.57665  -0.57495  -0.55299  -0.55221  -0.52698
 Alpha  occ. eigenvalues --   -0.52603  -0.52445  -0.52352  -0.49947  -0.49870
 Alpha  occ. eigenvalues --   -0.47971  -0.47851  -0.46651  -0.46564  -0.45812
 Alpha  occ. eigenvalues --   -0.45756  -0.45727  -0.45659  -0.43784  -0.43719
 Alpha virt. eigenvalues --    0.21328   0.23025   0.23667   0.24860   0.26340
 Alpha virt. eigenvalues --    0.26416   0.26770   0.27636   0.27859   0.29024
 Alpha virt. eigenvalues --    0.30105   0.30876   0.31585   0.31935   0.32316

 Mulliken charges:
               1
     1  C   -0.298231
     2  C   -0.299644
     3  C   -0.475714
     4  H    0.149597
     5  H    0.149596
     6  H    0.151917
     7  H    0.152008
     8  H    0.155220
     9  H    0.155176
    10  H    0.160314
    11  C   -0.298606
    12  C   -0.299995
    13  C   -0.480265
    14  H    0.149400
    15  H    0.149821
    16  H    0.151569
    17  H    0.152074
    18  H    0.156063
    19  H    0.154198
    20  H    0.166087
    21  C   -0.297985
    22  C   -0.304242
    23  C   -0.476126
    24  H    0.149506
    25  H    0.149446
    26  H    0.151447
    27  H    0.155774
    28  H    0.158036
    29  H    0.154294
    30  H    0.159844
    31  C   -0.298312
    32  C   -0.299595
    33  C   -0.475679
    34  H    0.149459
    35  H    0.149433
    36  H    0.151942
    37  H    0.151763
    38  H    0.155065
    39  H    0.155182
    40  H    0.160163
 Sum of Mulliken charges =  -0.00000

 Dipole moment (field-independent basis, Debye):
    X=             -0.0262    Y=              0.0135    Z=             -0.0001  Tot=              0.0295
 Quadrupole moment (field-independent basis, Debye-Ang):
   XX=            -84.9028   YY=            -85.1605   ZZ=            -84.8028
   XY=             -0.1101   XZ=             -0.0058   YZ=              1.0127

 Normal termination of Gaussian 16 at Wed May  5 16:50:56 2021.
