 Gaussian 16, Revision A.03,
 Gaussian 16:  EM64L-G16RevA.03 25-Dec-2016

 -------------
 #p 6-31g* mp2
 -------------

 ------------------------------------------------------
 Input file generated by CHIRIPA (05-May-2021 14:51:12)
 ------------------------------------------------------
 Symbolic Z-matrix:
 Charge =  0 Multiplicity = 1

                         Standard orientation:
 ---------------------------------------------------------------------
 Center     Atomic      Atomic             Coordinates (Angstroms)
 Number     Number       Type             X           Y           Z
 ---------------------------------------------------------------------
      1          6           0        4.357469   -0.194634   -0.266949
      2          6           0        5.834350   -0.312044    0.111234
      3          6           0        6.462416   -1.624437   -0.358822
      4          1           0        3.806607   -1.041614    0.164467
      5          1           0        4.257614   -0.279939   -1.357888
      6          1           0        5.931529   -0.225158    1.201015
      7          1           0        6.381728    0.535417   -0.320973
      8          1           0        6.394872   -1.715561   -1.447737
      9          1           0        5.942116   -2.480458    0.082898
     10          1           0        7.518354   -1.687421   -0.077954
     11          6           0        3.715554    1.111979    0.196122
     12          6           0        2.238673    1.229389   -0.182061
     13          6           0        1.610607    2.541782    0.287995
     14          1           0        3.815409    1.197284    1.287061
     15          1           0        4.266417    1.958959   -0.235294
     16          1           0        1.691295    0.381928    0.250145
     17          1           0        2.141494    1.142503   -1.271842
     18          1           0        2.130907    3.397803   -0.153725
     19          1           0        1.678151    2.632906    1.376910
     20          1           0        0.554669    2.604766    0.007127
     21          6           0       -4.556103    0.036355   -0.226129
     22          6           0       -5.994590   -0.363703    0.103558
     23          6           0       -7.022551    0.636482   -0.426272
     24          1           0       -4.353137    1.030629    0.194785
     25          1           0       -4.449644    0.130518   -1.315715
     26          1           0       -6.097945   -0.458432    1.192117
     27          1           0       -6.194094   -1.357223   -0.318027
     28          1           0       -6.948454    0.724818   -1.514989
     29          1           0       -6.851761    1.628715    0.003733
     30          1           0       -8.044127    0.331017   -0.179427
     31          6           0       -3.516921   -0.953700    0.296957
     32          6           0       -2.078433   -0.553642   -0.032731
     33          6           0       -1.050472   -1.553827    0.497099
     34          1           0       -3.623378   -1.047863    1.386542
     35          1           0       -3.719887   -1.947974   -0.123958
     36          1           0       -1.878930    0.439877    0.388854
     37          1           0       -1.975078   -0.458913   -1.121289
     38          1           0       -1.221263   -2.546061    0.067094
     39          1           0       -1.124569   -1.642163    1.585817
     40          1           0       -0.028896   -1.248362    0.250254
 ---------------------------------------------------------------------

 SCF Done:  E(RHF) =  -470.733342092     A.U. after   11 cycles
 E2 =    -0.1582612457D+01 EUMP2 =    -0.47231595454952D+03

 The electronic state is 1-A.
 Alpha  occ. eigenvalues --  -11.21602 -11.21601 -11.21599 -11.21596 -11.21405
 Alpha  occ. eigenvalues --  -11.21405 -11.21346 -11.21346 -11.21074 -11.21070
 Alpha  occ. eigenvalues --  -11.21065 -11.21054  -1.08440  -1.08421  -1.03553
 Alpha  occ. eigenvalues --   -1.03505  -0.95996  -0.95960  -0.87019  -0.86973
 Alpha  occ. eigenvalues --   -0.79630  -0.79558  -0.78250  -0.78239  -0.65080
 Alpha  occ. eigenvalues --   -0.65048  -0.60980  -0.60901  -0.59493  -0.59215
 Alpha  occ. eigenvalues --   -0.57697  -0.57468  -0.55281  -0.55244  -0.52735
 Alpha  occ. eigenvalues --   -0.52641  -0.52440  -0.52367  -0.49931  -0.49903
 Alpha  occ. eigenvalues --   -0.48042  -0.47789  -0.46626  -0.46605  -0.45801
 Alpha  occ. eigenvalues --   -0.45764  -0.45710  -0.45699  -0.43807  -0.43723
 Alpha virt. eigenvalues --    0.21211   0.23071   0.23484   0.24880   0.25999
 Alpha virt. eigenvalues --    0.26439   0.26976   0.27145   0.28164   0.28843
 Alpha virt. eigenvalues --    0.30640   0.30643   0.31548   0.31695   0.32537

 Mulliken charges:
               1
     1  C   -0.298498
     2  C   -0.299632
     3  C   -0.475745
     4  H    0.149525
     5  H    0.149510
     6  H    0.151976
     7  H    0.151958
     8  H    0.155158
     9  H    0.155327
    10  H    0.160239
    11  C   -0.297555
    12  C   -0.307586
    13  C   -0.476283
    14  H    0.149488
    15  H    0.149694
    16  H    0.159401
    17  H    0.151857
    18  H    0.155244
    19  H    0.154980
    20  H    0.161275
    21  C   -0.298298
    22  C   -0.299652
    23  C   -0.475716
    24  H    0.149636
    25  H    0.149522
    26  H    0.151934
    27  H    0.151944
    28  H    0.155179
    29  H    0.155206
    30  H    0.160254
    31  C   -0.298313
    32  C   -0.300069
    33  C   -0.482537
    34  H    0.149504
    35  H    0.149738
    36  H    0.152661
    37  H    0.152103
    38  H    0.155282
    39  H    0.154707
    40  H    0.166582
 Sum of Mulliken charges =  -0.00000

 Dipole moment (field-independent basis, Debye):
    X=              0.0044    Y=              0.0018    Z=             -0.0033  Tot=              0.0058
 Quadrupole moment (field-independent basis, Debye-Ang):
   XX=            -85.8433   YY=            -85.5402   ZZ=            -83.3895
   XY=              1.2141   XZ=             -0.2863   YZ=              0.0325

 Normal termination of Gaussian 16 at Wed May  5 23:08:32 2021.
