 Gaussian 16, Revision A.03,
 Gaussian 16:  EM64L-G16RevA.03 25-Dec-2016

 -------------
 #p 6-31g* mp2
 -------------

 ------------------------------------------------------
 Input file generated by CHIRIPA (05-May-2021 14:57:23)
 ------------------------------------------------------
 Symbolic Z-matrix:
 Charge =  0 Multiplicity = 1

                         Standard orientation:
 ---------------------------------------------------------------------
 Center     Atomic      Atomic             Coordinates (Angstroms)
 Number     Number       Type             X           Y           Z
 ---------------------------------------------------------------------
      1          6           0        2.258151    1.965518    1.224524
      2          6           0        3.460544    2.357162    0.626707
      3          6           0        4.283869    1.414460    0.003814
      4          6           0        3.872147    0.082644   -0.002706
      5          6           0        2.679967   -0.338696    0.584209
      6          6           0        1.872380    0.621208    1.201408
      7          1           0        1.624685    2.704513    1.706190
      8          1           0        3.762671    3.400472    0.643132
      9          1           0        5.219835    1.690185   -0.466677
     10          1           0        2.405466   -1.386080    0.551744
     11          1           0        0.939121    0.314172    1.664875
     12          7           0        4.735434   -0.924458   -0.659120
     13          8           0        4.350188   -2.091575   -0.651278
     14          8           0        5.780979   -0.527639   -1.169031
     15          6           0       -5.611185    1.305899   -0.745803
     16          6           0       -4.311612    1.555992   -1.198667
     17          6           0       -3.261496    0.701404   -0.850121
     18          6           0       -3.547989   -0.398913   -0.043575
     19          6           0       -4.832152   -0.674857    0.423403
     20          6           0       -5.866856    0.193235    0.062362
     21          1           0       -6.420954    1.975009   -1.021415
     22          1           0       -4.110117    2.419338   -1.826423
     23          1           0       -2.246028    0.871395   -1.186789
     24          1           0       -5.002059   -1.543531    1.047866
     25          1           0       -6.875138   -0.003466    0.415521
     26          7           0       -2.444435   -1.310774    0.332029
     27          8           0       -2.722967   -2.273360    1.043708
     28          8           0       -1.321834   -1.045641   -0.092363
 ---------------------------------------------------------------------

 SCF Done:  E(RHF) =  -868.339246428     A.U. after   16 cycles
 E2 =    -0.2598685762D+01 EUMP2 =    -0.87093793218905D+03

 The electronic state is 1-A.
 Alpha  occ. eigenvalues --  -20.61558 -20.61519 -20.60046 -20.60022 -15.86569
 Alpha  occ. eigenvalues --  -15.85083 -11.31773 -11.30358 -11.28325 -11.28308
 Alpha  occ. eigenvalues --  -11.28026 -11.27298 -11.27281 -11.26986 -11.26776
 Alpha  occ. eigenvalues --  -11.26702 -11.26037 -11.25778  -1.60609  -1.59115
 Alpha  occ. eigenvalues --   -1.40165  -1.38668  -1.19930  -1.18528  -1.09354
 Alpha  occ. eigenvalues --   -1.07963  -1.05305  -1.03884  -0.96215  -0.94805
 Alpha  occ. eigenvalues --   -0.86710  -0.85309  -0.83050  -0.81612  -0.78118
 Alpha  occ. eigenvalues --   -0.76656  -0.72791  -0.71923  -0.71306  -0.71028
 Alpha  occ. eigenvalues --   -0.70436  -0.69670  -0.65582  -0.65301  -0.64175
 Alpha  occ. eigenvalues --   -0.63880  -0.62650  -0.61208  -0.55806  -0.54470
 Alpha  occ. eigenvalues --   -0.53648  -0.53390  -0.52266  -0.51963  -0.49562
 Alpha  occ. eigenvalues --   -0.49534  -0.48068  -0.48052  -0.45596  -0.44092
 Alpha  occ. eigenvalues --   -0.37901  -0.36904  -0.36565  -0.35473
 Alpha virt. eigenvalues --    0.04375   0.05836   0.10753   0.12150   0.15889
 Alpha virt. eigenvalues --    0.17335   0.20924   0.22280   0.26852   0.27720
 Alpha virt. eigenvalues --    0.28368   0.29082   0.30515   0.31742   0.32112

 Mulliken charges:
               1
     1  C   -0.174215
     2  C   -0.219287
     3  C   -0.173058
     4  C    0.156991
     5  C   -0.169417
     6  C   -0.216932
     7  H    0.220298
     8  H    0.218814
     9  H    0.272379
    10  H    0.284014
    11  H    0.233201
    12  N    0.487910
    13  O   -0.458366
    14  O   -0.464365
    15  C   -0.170174
    16  C   -0.218689
    17  C   -0.172311
    18  C    0.157271
    19  C   -0.170645
    20  C   -0.218547
    21  H    0.227452
    22  H    0.224770
    23  H    0.275933
    24  H    0.276754
    25  H    0.225339
    26  N    0.488092
    27  O   -0.456719
    28  O   -0.466491
 Sum of Mulliken charges =  -0.00000

 Dipole moment (field-independent basis, Debye):
    X=             -7.3671    Y=              6.5656    Z=              1.0028  Tot=              9.9190
 Quadrupole moment (field-independent basis, Debye-Ang):
   XX=            -97.5372   YY=           -103.6637   ZZ=           -104.4741
   XY=              7.6749   XZ=             11.2138   YZ=             -2.3800

 Normal termination of Gaussian 16 at Fri May  7 09:30:14 2021.
