 Gaussian 16, Revision A.03,
 Gaussian 16:  EM64L-G16RevA.03 25-Dec-2016

 -------------
 #p 6-31g* mp2
 -------------

 ------------------------------------------------------
 Input file generated by CHIRIPA (05-May-2021 14:57:25)
 ------------------------------------------------------
 Symbolic Z-matrix:
 Charge =  0 Multiplicity = 1

                         Standard orientation:
 ---------------------------------------------------------------------
 Center     Atomic      Atomic             Coordinates (Angstroms)
 Number     Number       Type             X           Y           Z
 ---------------------------------------------------------------------
      1          6           0        2.109397    2.408244   -0.657919
      2          6           0        1.045431    1.515475   -0.823634
      3          6           0        1.216504    0.151706   -0.567869
      4          6           0        2.470652   -0.286867   -0.145903
      5          6           0        3.550114    0.577798    0.028475
      6          6           0        3.356144    1.937387   -0.233142
      7          1           0        1.967610    3.466029   -0.858876
      8          1           0        0.076083    1.878323   -1.153406
      9          1           0        0.409941   -0.561350   -0.687980
     10          1           0        4.504730    0.186316    0.358425
     11          1           0        4.184228    2.628427   -0.103588
     12          7           0        2.663879   -1.728415    0.127962
     13          8           0        3.778645   -2.089658    0.498686
     14          8           0        1.696905   -2.469762   -0.033293
     15          6           0       -1.922944    2.418822    0.887523
     16          6           0       -2.572347    2.171667   -0.326442
     17          6           0       -2.863195    0.862805   -0.722468
     18          6           0       -2.488678   -0.179796    0.123706
     19          6           0       -1.840597    0.034181    1.339228
     20          6           0       -1.559783    1.351173    1.715025
     21          1           0       -1.700904    3.438736    1.187309
     22          1           0       -2.855557    2.998864   -0.971099
     23          1           0       -3.365000    0.642991   -1.656968
     24          1           0       -1.570646   -0.810997    1.960693
     25          1           0       -1.055349    1.540132    2.658363
     26          7           0       -2.791275   -1.569733   -0.284842
     27          8           0       -2.450883   -2.470885    0.478504
     28          8           0       -3.363111   -1.731695   -1.360671
 ---------------------------------------------------------------------

 SCF Done:  E(RHF) =  -868.333638471     A.U. after   16 cycles
 E2 =    -0.2606579295D+01 EUMP2 =    -0.87094021776625D+03

 The electronic state is 1-A.
 Alpha  occ. eigenvalues --  -20.61148 -20.61070 -20.60646 -20.60607 -15.86176
 Alpha  occ. eigenvalues --  -15.85676 -11.31928 -11.31170 -11.28599 -11.28427
 Alpha  occ. eigenvalues --  -11.28284 -11.27733 -11.27652 -11.27620 -11.27518
 Alpha  occ. eigenvalues --  -11.27473 -11.26834 -11.26624  -1.60187  -1.59708
 Alpha  occ. eigenvalues --   -1.39721  -1.39254  -1.20183  -1.19340  -1.09478
 Alpha  occ. eigenvalues --   -1.08731  -1.05577  -1.04751  -0.96226  -0.95545
 Alpha  occ. eigenvalues --   -0.86936  -0.86161  -0.83021  -0.82364  -0.78007
 Alpha  occ. eigenvalues --   -0.77402  -0.72367  -0.71894  -0.71556  -0.71187
 Alpha  occ. eigenvalues --   -0.71044  -0.70477  -0.65750  -0.65514  -0.64988
 Alpha  occ. eigenvalues --   -0.64807  -0.62859  -0.62199  -0.56028  -0.55396
 Alpha  occ. eigenvalues --   -0.54068  -0.53602  -0.52999  -0.52637  -0.49168
 Alpha  occ. eigenvalues --   -0.49107  -0.48662  -0.48640  -0.45019  -0.44625
 Alpha  occ. eigenvalues --   -0.38328  -0.37525  -0.37219  -0.35921
 Alpha virt. eigenvalues --    0.04365   0.05176   0.10144   0.11488   0.15900
 Alpha virt. eigenvalues --    0.16585   0.20663   0.21563   0.26622   0.27307
 Alpha virt. eigenvalues --    0.27498   0.28245   0.30198   0.31313   0.32011

 Mulliken charges:
               1
     1  C   -0.177994
     2  C   -0.217905
     3  C   -0.175019
     4  C    0.157253
     5  C   -0.172996
     6  C   -0.218455
     7  H    0.220518
     8  H    0.228249
     9  H    0.276392
    10  H    0.275186
    11  H    0.221873
    12  N    0.486706
    13  O   -0.461871
    14  O   -0.454153
    15  C   -0.171929
    16  C   -0.232886
    17  C   -0.174108
    18  C    0.150070
    19  C   -0.172077
    20  C   -0.210618
    21  H    0.226366
    22  H    0.224925
    23  H    0.279316
    24  H    0.284856
    25  H    0.228252
    26  N    0.488285
    27  O   -0.448277
    28  O   -0.459957
 Sum of Mulliken charges =  -0.00000

 Dipole moment (field-independent basis, Debye):
    X=              0.0956    Y=              9.6672    Z=              0.6951  Tot=              9.6926
 Quadrupole moment (field-independent basis, Debye-Ang):
   XX=           -108.9992   YY=           -109.9221   ZZ=           -101.0961
   XY=              0.5757   XZ=             -2.6643   YZ=             -1.3826

 Normal termination of Gaussian 16 at Fri May  7 01:55:51 2021.
