 Gaussian 16, Revision A.03,
 Gaussian 16:  EM64L-G16RevA.03 25-Dec-2016

 -------------
 #p 6-31g* mp2
 -------------

 ------------------------------------------------------
 Input file generated by CHIRIPA (05-May-2021 14:57:26)
 ------------------------------------------------------
 Symbolic Z-matrix:
 Charge =  0 Multiplicity = 1

                         Standard orientation:
 ---------------------------------------------------------------------
 Center     Atomic      Atomic             Coordinates (Angstroms)
 Number     Number       Type             X           Y           Z
 ---------------------------------------------------------------------
      1          6           0        2.159018    2.402767    0.303604
      2          6           0        2.658375    2.008314   -0.942016
      3          6           0        3.164221    0.718326   -1.128024
      4          6           0        3.155367   -0.155406   -0.041836
      5          6           0        2.664722    0.207882    1.211392
      6          6           0        2.163776    1.502878    1.374445
      7          1           0        1.767968    3.406806    0.439184
      8          1           0        2.655937    2.705066   -1.775428
      9          1           0        3.556875    0.386734   -2.081590
     10          1           0        2.680402   -0.508943    2.023386
     11          1           0        1.776605    1.806467    2.342937
     12          7           0        3.688289   -1.523710   -0.226603
     13          8           0        3.669302   -2.274669    0.746195
     14          8           0        4.114890   -1.819318   -1.340724
     15          6           0       -2.396295    2.361949   -0.010231
     16          6           0       -1.542594    1.405097    0.548473
     17          6           0       -1.904213    0.054736    0.565927
     18          6           0       -3.132427   -0.305229    0.013474
     19          6           0       -4.004681    0.624536   -0.550442
     20          6           0       -3.622452    1.969307   -0.556943
     21          1           0       -2.107376    3.408770   -0.019535
     22          1           0       -0.589737    1.707139    0.973772
     23          1           0       -1.262445   -0.706823    0.992047
     24          1           0       -4.948139    0.293006   -0.966847
     25          1           0       -4.287453    2.710231   -0.991511
     26          7           0       -3.526168   -1.731836    0.026153
     27          8           0       -4.613626   -2.023267   -0.466936
     28          8           0       -2.739865   -2.531568    0.528941
 ---------------------------------------------------------------------

 SCF Done:  E(RHF) =  -868.335694907     A.U. after   16 cycles
 E2 =    -0.2602144805D+01 EUMP2 =    -0.87093783971239D+03

 The electronic state is 1-A.
 Alpha  occ. eigenvalues --  -20.61231 -20.61224 -20.60846 -20.60834 -15.86295
 Alpha  occ. eigenvalues --  -15.85897 -11.31963 -11.31381 -11.28598 -11.28535
 Alpha  occ. eigenvalues --  -11.28439 -11.27948 -11.27933 -11.27772 -11.27714
 Alpha  occ. eigenvalues --  -11.27614 -11.27024 -11.26923  -1.60298  -1.59916
 Alpha  occ. eigenvalues --   -1.39843  -1.39465  -1.20190  -1.19561  -1.09552
 Alpha  occ. eigenvalues --   -1.08951  -1.05632  -1.04971  -0.96318  -0.95766
 Alpha  occ. eigenvalues --   -0.87037  -0.86374  -0.83132  -0.82589  -0.78113
 Alpha  occ. eigenvalues --   -0.77609  -0.72509  -0.72113  -0.71625  -0.71315
 Alpha  occ. eigenvalues --   -0.71241  -0.70713  -0.65856  -0.65670  -0.65216
 Alpha  occ. eigenvalues --   -0.64979  -0.62952  -0.62336  -0.56163  -0.55557
 Alpha  occ. eigenvalues --   -0.54078  -0.53711  -0.53298  -0.52910  -0.49290
 Alpha  occ. eigenvalues --   -0.49243  -0.48883  -0.48862  -0.45181  -0.44844
 Alpha  occ. eigenvalues --   -0.38222  -0.37552  -0.37229  -0.36548
 Alpha virt. eigenvalues --    0.04393   0.04919   0.10231   0.11055   0.15779
 Alpha virt. eigenvalues --    0.16383   0.19738   0.21863   0.25939   0.26637
 Alpha virt. eigenvalues --    0.28038   0.28700   0.29960   0.31112   0.31843

 Mulliken charges:
               1
     1  C   -0.173754
     2  C   -0.215911
     3  C   -0.168271
     4  C    0.160390
     5  C   -0.171898
     6  C   -0.231345
     7  H    0.223536
     8  H    0.226076
     9  H    0.279667
    10  H    0.279933
    11  H    0.224558
    12  N    0.488171
    13  O   -0.456573
    14  O   -0.457140
    15  C   -0.174658
    16  C   -0.218490
    17  C   -0.174725
    18  C    0.159537
    19  C   -0.171322
    20  C   -0.217939
    21  H    0.219806
    22  H    0.224770
    23  H    0.276204
    24  H    0.276365
    25  H    0.223064
    26  N    0.487883
    27  O   -0.460111
    28  O   -0.457823
 Sum of Mulliken charges =  -0.00000

 Dipole moment (field-independent basis, Debye):
    X=             -0.2095    Y=              9.5967    Z=              0.4670  Tot=              9.6103
 Quadrupole moment (field-independent basis, Debye-Ang):
   XX=           -121.5276   YY=           -110.3729   ZZ=            -99.8814
   XY=             -1.5811   XZ=              3.2476   YZ=             -2.2529

 Normal termination of Gaussian 16 at Fri May  7 05:05:38 2021.
