 Gaussian 16, Revision A.03,
 Gaussian 16:  EM64L-G16RevA.03 25-Dec-2016

 -------------
 #p 6-31g* mp2
 -------------

 ------------------------------------------------------
 Input file generated by CHIRIPA (05-May-2021 14:51:10)
 ------------------------------------------------------
 Symbolic Z-matrix:
 Charge =  0 Multiplicity = 1

                         Standard orientation:
 ---------------------------------------------------------------------
 Center     Atomic      Atomic             Coordinates (Angstroms)
 Number     Number       Type             X           Y           Z
 ---------------------------------------------------------------------
      1          6           0        2.558165   -0.270051    0.909743
      2          6           0        1.528249   -1.349852    1.243341
      3          6           0        0.640313   -0.973482    2.429810
      4          1           0        3.183921   -0.083692    1.793284
      5          1           0        2.034849    0.671548    0.693117
      6          1           0        2.053283   -2.289484    1.457923
      7          1           0        0.904996   -1.533799    0.358844
      8          1           0        0.090764   -0.049692    2.221941
      9          1           0        1.245576   -0.809672    3.327264
     10          1           0       -0.088584   -1.759390    2.650981
     11          6           0        3.453307   -0.631741   -0.274161
     12          6           0        4.483223    0.448060   -0.607759
     13          6           0        5.371159    0.071690   -1.794229
     14          1           0        3.976623   -1.573340   -0.057535
     15          1           0        2.827551   -0.818100   -1.157702
     16          1           0        5.106476    0.632006    0.276738
     17          1           0        3.958189    1.387692   -0.822341
     18          1           0        4.765896   -0.092120   -2.691683
     19          1           0        5.920708   -0.852100   -1.586359
     20          1           0        6.100056    0.857598   -2.015399
     21          6           0       -3.266348   -0.232591   -0.097884
     22          6           0       -3.805879   -1.076270   -1.253348
     23          6           0       -4.323613   -2.440814   -0.797537
     24          1           0       -2.459351   -0.783462    0.404353
     25          1           0       -4.061250   -0.093746    0.647935
     26          1           0       -3.010606   -1.212319   -1.997422
     27          1           0       -4.611557   -0.523246   -1.753012
     28          1           0       -5.134741   -2.322309   -0.071844
     29          1           0       -3.524694   -3.015297   -0.317643
     30          1           0       -4.704581   -3.027328   -1.639396
     31          6           0       -2.745124    1.134383   -0.537698
     32          6           0       -2.205593    1.978063    0.617766
     33          6           0       -1.687859    3.342607    0.161955
     34          1           0       -1.950222    0.995538   -1.283517
     35          1           0       -3.552122    1.685254   -1.039936
     36          1           0       -1.399915    1.425039    1.117431
     37          1           0       -3.000866    2.114112    1.361841
     38          1           0       -2.486778    3.917089   -0.317940
     39          1           0       -0.876732    3.224100   -0.563738
     40          1           0       -1.306891    3.929119    1.003814
 ---------------------------------------------------------------------

 SCF Done:  E(RHF) =  -470.733350533     A.U. after   11 cycles
 E2 =    -0.1583118288D+01 EUMP2 =    -0.47231646882077D+03

 The electronic state is 1-A.
 Alpha  occ. eigenvalues --  -11.21667 -11.21631 -11.21628 -11.21612 -11.21452
 Alpha  occ. eigenvalues --  -11.21423 -11.21392 -11.21358 -11.21113 -11.21110
 Alpha  occ. eigenvalues --  -11.21095 -11.21077  -1.08483  -1.08445  -1.03583
 Alpha  occ. eigenvalues --   -1.03546  -0.96024  -0.95998  -0.87046  -0.87009
 Alpha  occ. eigenvalues --   -0.79673  -0.79583  -0.78302  -0.78248  -0.65221
 Alpha  occ. eigenvalues --   -0.64986  -0.61086  -0.60853  -0.59403  -0.59355
 Alpha  occ. eigenvalues --   -0.57660  -0.57583  -0.55325  -0.55285  -0.52719
 Alpha  occ. eigenvalues --   -0.52692  -0.52478  -0.52397  -0.50059  -0.49885
 Alpha  occ. eigenvalues --   -0.48053  -0.47857  -0.46835  -0.46503  -0.45904
 Alpha  occ. eigenvalues --   -0.45784  -0.45760  -0.45548  -0.43829  -0.43803
 Alpha virt. eigenvalues --    0.19885   0.23336   0.23709   0.24291   0.26070
 Alpha virt. eigenvalues --    0.26784   0.27134   0.27493   0.28093   0.29588
 Alpha virt. eigenvalues --    0.29806   0.31620   0.31715   0.31893   0.31993

 Mulliken charges:
               1
     1  C   -0.298645
     2  C   -0.300063
     3  C   -0.483422
     4  H    0.150064
     5  H    0.149360
     6  H    0.152428
     7  H    0.151398
     8  H    0.162215
     9  H    0.155735
    10  H    0.160616
    11  C   -0.298306
    12  C   -0.299712
    13  C   -0.475734
    14  H    0.149727
    15  H    0.149422
    16  H    0.152090
    17  H    0.152009
    18  H    0.155155
    19  H    0.155242
    20  H    0.160416
    21  C   -0.300744
    22  C   -0.299580
    23  C   -0.475697
    24  H    0.152291
    25  H    0.149693
    26  H    0.151602
    27  H    0.151990
    28  H    0.155267
    29  H    0.155207
    30  H    0.160263
    31  C   -0.297479
    32  C   -0.308627
    33  C   -0.475197
    34  H    0.148756
    35  H    0.149856
    36  H    0.159434
    37  H    0.152467
    38  H    0.155521
    39  H    0.154519
    40  H    0.160465
 Sum of Mulliken charges =  -0.00000

 Dipole moment (field-independent basis, Debye):
    X=              0.0047    Y=              0.0006    Z=              0.0184  Tot=              0.0190
 Quadrupole moment (field-independent basis, Debye-Ang):
   XX=            -84.0501   YY=            -85.5024   ZZ=            -85.0755
   XY=             -1.0202   XZ=              0.9700   YZ=             -0.1554

 Normal termination of Gaussian 16 at Wed May  5 15:11:01 2021.
