 Gaussian 16, Revision A.03,
 Gaussian 16:  EM64L-G16RevA.03 25-Dec-2016

 -------------
 #p 6-31g* mp2
 -------------

 ------------------------------------------------------
 Input file generated by CHIRIPA (05-May-2021 14:53:11)
 ------------------------------------------------------
 Symbolic Z-matrix:
 Charge =  0 Multiplicity = 1

                         Standard orientation:
 ---------------------------------------------------------------------
 Center     Atomic      Atomic             Coordinates (Angstroms)
 Number     Number       Type             X           Y           Z
 ---------------------------------------------------------------------
      1          6           0       -5.009267    0.105789    0.265554
      2          6           0       -5.293904    1.431666   -0.440858
      3          6           0       -6.707558    1.950781   -0.176476
      4          1           0       -5.743578   -0.642420   -0.062952
      5          1           0       -5.157138    0.235198    1.346656
      6          1           0       -5.144198    1.300155   -1.520168
      7          1           0       -4.558713    2.176753   -0.110777
      8          1           0       -6.865309    2.110093    0.895128
      9          1           0       -7.454121    1.228514   -0.522271
     10          1           0       -6.889605    2.899498   -0.690923
     11          6           0       -3.599990   -0.426004    0.010874
     12          6           0       -3.315352   -1.751880    0.717286
     13          6           0       -1.901699   -2.270996    0.452904
     14          1           0       -3.452119   -0.555413   -1.070228
     15          1           0       -2.865679    0.322205    0.339380
     16          1           0       -4.050544   -2.496968    0.387204
     17          1           0       -3.465059   -1.620370    1.796595
     18          1           0       -1.155136   -1.548729    0.798698
     19          1           0       -1.743948   -2.430308   -0.618700
     20          1           0       -1.719652   -3.219712    0.967351
     21          6           0        4.772543    2.151709    0.413441
     22          6           0        3.416848    2.302772    0.103936
     23          6           0        2.626277    1.186918   -0.186608
     24          6           0        3.226721   -0.070843   -0.158389
     25          6           0        4.574656   -0.253875    0.146343
     26          6           0        5.346109    0.876117    0.433621
     27          1           0        5.379251    3.024022    0.637874
     28          1           0        2.968728    3.292199    0.087514
     29          1           0        1.574294    1.275167   -0.429424
     30          1           0        4.993116   -1.252993    0.154806
     31          1           0        6.398701    0.755791    0.673649
     32          7           0        2.399899   -1.259631   -0.464246
     33          8           0        2.952738   -2.356905   -0.432708
     34          8           0        1.214652   -1.071619   -0.729724
 ---------------------------------------------------------------------

 SCF Done:  E(RHF) =  -669.535572025     A.U. after   15 cycles
 E2 =    -0.2090975597D+01 EUMP2 =    -0.67162654762228D+03

 The electronic state is 1-A.
 Alpha  occ. eigenvalues --  -20.60863 -20.60853 -15.85893 -11.31255 -11.27824
 Alpha  occ. eigenvalues --  -11.27819 -11.27565 -11.26838 -11.26828 -11.21222
 Alpha  occ. eigenvalues --  -11.20838 -11.20777 -11.20632 -11.20561 -11.19484
 Alpha  occ. eigenvalues --   -1.59924  -1.39480  -1.19427  -1.08824  -1.07753
 Alpha  occ. eigenvalues --   -1.04829  -1.02753  -0.95664  -0.95161  -0.86232
 Alpha  occ. eigenvalues --   -0.86164  -0.82493  -0.78850  -0.77572  -0.77484
 Alpha  occ. eigenvalues --   -0.72114  -0.71243  -0.70535  -0.65082  -0.64832
 Alpha  occ. eigenvalues --   -0.64398  -0.62176  -0.60160  -0.58624  -0.56768
 Alpha  occ. eigenvalues --   -0.55331  -0.54451  -0.53160  -0.52922  -0.51858
 Alpha  occ. eigenvalues --   -0.51570  -0.49114  -0.48878  -0.48868  -0.47114
 Alpha  occ. eigenvalues --   -0.45928  -0.45145  -0.44983  -0.44703  -0.43024
 Alpha  occ. eigenvalues --   -0.37407  -0.36433
 Alpha virt. eigenvalues --    0.04968   0.11221   0.16441   0.21332   0.23458
 Alpha virt. eigenvalues --    0.25091   0.27107   0.27381   0.27943   0.28321
 Alpha virt. eigenvalues --    0.29007   0.30888   0.32076   0.32322   0.32658

 Mulliken charges:
               1
     1  C   -0.297555
     2  C   -0.298680
     3  C   -0.475207
     4  H    0.149099
     5  H    0.147574
     6  H    0.151806
     7  H    0.148990
     8  H    0.154227
     9  H    0.155236
    10  H    0.158254
    11  C   -0.295814
    12  C   -0.301665
    13  C   -0.471308
    14  H    0.150800
    15  H    0.146010
    16  H    0.148118
    17  H    0.146373
    18  H    0.162428
    19  H    0.162791
    20  H    0.155186
    21  C   -0.170740
    22  C   -0.218513
    23  C   -0.171163
    24  C    0.158106
    25  C   -0.170812
    26  C   -0.218541
    27  H    0.225834
    28  H    0.223683
    29  H    0.275622
    30  H    0.275822
    31  H    0.223683
    32  N    0.489298
    33  O   -0.459387
    34  O   -0.459557
 Sum of Mulliken charges =  -0.00000

 Dipole moment (field-independent basis, Debye):
    X=              3.1955    Y=              4.1328    Z=              1.0014  Tot=              5.3192
 Quadrupole moment (field-independent basis, Debye-Ang):
   XX=            -74.8915   YY=            -94.1045   ZZ=            -95.3485
   XY=             11.5656   XZ=              4.3672   YZ=             -0.6174

 Normal termination of Gaussian 16 at Wed May  5 23:18:55 2021.
