 Gaussian 16, Revision A.03,
 Gaussian 16:  EM64L-G16RevA.03 25-Dec-2016

 -------------
 #p 6-31g* mp2
 -------------

 ------------------------------------------------------
 Input file generated by CHIRIPA (05-May-2021 14:51:11)
 ------------------------------------------------------
 Symbolic Z-matrix:
 Charge =  0 Multiplicity = 1

                         Standard orientation:
 ---------------------------------------------------------------------
 Center     Atomic      Atomic             Coordinates (Angstroms)
 Number     Number       Type             X           Y           Z
 ---------------------------------------------------------------------
      1          6           0       -2.935165   -0.496176    0.513784
      2          6           0       -1.563218    0.139562    0.286660
      3          6           0       -0.437552   -0.614851    0.994848
      4          1           0       -3.140039   -0.535347    1.592411
      5          1           0       -2.912056   -1.536907    0.162018
      6          1           0       -1.589315    1.179206    0.637480
      7          1           0       -1.361670    0.177400   -0.791562
      8          1           0       -0.382686   -1.648499    0.638249
      9          1           0       -0.611625   -0.641001    2.075410
     10          1           0        0.534357   -0.143297    0.819097
     11          6           0       -4.070742    0.246691   -0.187888
     12          6           0       -5.442688   -0.389046    0.039236
     13          6           0       -6.568355    0.365367   -0.668952
     14          1           0       -4.093851    1.287423    0.163877
     15          1           0       -3.865868    0.285863   -1.266515
     16          1           0       -5.644237   -0.426884    1.117458
     17          1           0       -5.416591   -1.428691   -0.311584
     18          1           0       -6.394282    0.391516   -1.749515
     19          1           0       -6.623220    1.399015   -0.312353
     20          1           0       -7.540264   -0.106187   -0.493201
     21          6           0        3.271837    0.788892   -0.461147
     22          6           0        3.606709    1.996283    0.415238
     23          6           0        3.138007    3.317664   -0.194733
     24          1           0        3.732769    0.922090   -1.449451
     25          1           0        2.185879    0.753425   -0.624948
     26          1           0        4.691568    2.028673    0.578482
     27          1           0        3.145086    1.860106    1.401634
     28          1           0        2.053178    3.310632   -0.342036
     29          1           0        3.608447    3.480156   -1.169866
     30          1           0        3.387579    4.167509    0.448180
     31          6           0        3.734069   -0.539408    0.135251
     32          6           0        3.399198   -1.746799   -0.741134
     33          6           0        3.867900   -3.068180   -0.131163
     34          1           0        4.820027   -0.503940    0.299053
     35          1           0        3.273137   -0.672606    1.123555
     36          1           0        3.860821   -1.610622   -1.727530
     37          1           0        2.314339   -1.779188   -0.904378
     38          1           0        3.397460   -3.230671    0.843969
     39          1           0        4.952729   -3.061148    0.016141
     40          1           0        3.618327   -3.918025   -0.774076
 ---------------------------------------------------------------------

 SCF Done:  E(RHF) =  -470.733125325     A.U. after   11 cycles
 E2 =    -0.1583312017D+01 EUMP2 =    -0.47231643734130D+03

 The electronic state is 1-A.
 Alpha  occ. eigenvalues --  -11.21679 -11.21628 -11.21602 -11.21548 -11.21450
 Alpha  occ. eigenvalues --  -11.21388 -11.21383 -11.21321 -11.21137 -11.21090
 Alpha  occ. eigenvalues --  -11.21068 -11.21029  -1.08484  -1.08411  -1.03582
 Alpha  occ. eigenvalues --   -1.03506  -0.96050  -0.95945  -0.87052  -0.86974
 Alpha  occ. eigenvalues --   -0.79646  -0.79570  -0.78288  -0.78229  -0.65150
 Alpha  occ. eigenvalues --   -0.65075  -0.61009  -0.60873  -0.59400  -0.59324
 Alpha  occ. eigenvalues --   -0.57681  -0.57543  -0.55314  -0.55259  -0.52726
 Alpha  occ. eigenvalues --   -0.52642  -0.52478  -0.52341  -0.49992  -0.49882
 Alpha  occ. eigenvalues --   -0.47978  -0.47876  -0.46701  -0.46574  -0.45831
 Alpha  occ. eigenvalues --   -0.45761  -0.45752  -0.45679  -0.43822  -0.43743
 Alpha virt. eigenvalues --    0.20247   0.23038   0.23965   0.24585   0.26309
 Alpha virt. eigenvalues --    0.26577   0.27158   0.27467   0.27685   0.29501
 Alpha virt. eigenvalues --    0.30613   0.31492   0.31758   0.31915   0.32144

 Mulliken charges:
               1
     1  C   -0.298365
     2  C   -0.300025
     3  C   -0.484869
     4  H    0.149872
     5  H    0.149735
     6  H    0.151937
     7  H    0.152165
     8  H    0.155871
     9  H    0.155386
    10  H    0.168810
    11  C   -0.298347
    12  C   -0.299703
    13  C   -0.475743
    14  H    0.149616
    15  H    0.149793
    16  H    0.151990
    17  H    0.152003
    18  H    0.155254
    19  H    0.155239
    20  H    0.160353
    21  C   -0.303129
    22  C   -0.300224
    23  C   -0.475701
    24  H    0.150416
    25  H    0.152306
    26  H    0.152248
    27  H    0.152028
    28  H    0.155294
    29  H    0.155223
    30  H    0.160231
    31  C   -0.299676
    32  C   -0.301314
    33  C   -0.475846
    34  H    0.149840
    35  H    0.150956
    36  H    0.151461
    37  H    0.154387
    38  H    0.155734
    39  H    0.154935
    40  H    0.159859
 Sum of Mulliken charges =  -0.00000

 Dipole moment (field-independent basis, Debye):
    X=             -0.0206    Y=              0.0010    Z=              0.0046  Tot=              0.0211
 Quadrupole moment (field-independent basis, Debye-Ang):
   XX=            -84.8790   YY=            -85.7240   ZZ=            -84.1574
   XY=              0.7161   XZ=             -1.0279   YZ=              0.9595

 Normal termination of Gaussian 16 at Wed May  5 21:29:05 2021.
