 Gaussian 16, Revision A.03,
 Gaussian 16:  EM64L-G16RevA.03 25-Dec-2016

 -------------
 #p 6-31g* mp2
 -------------

 ------------------------------------------------------
 Input file generated by CHIRIPA (05-May-2021 14:53:15)
 ------------------------------------------------------
 Symbolic Z-matrix:
 Charge =  0 Multiplicity = 1

                         Standard orientation:
 ---------------------------------------------------------------------
 Center     Atomic      Atomic             Coordinates (Angstroms)
 Number     Number       Type             X           Y           Z
 ---------------------------------------------------------------------
      1          6           0        3.444544    1.040271    0.522174
      2          6           0        2.158732    1.815585    0.233110
      3          6           0        2.009800    3.060635    1.108019
      4          1           0        3.459658    0.749679    1.581548
      5          1           0        4.306934    1.703443    0.367638
      6          1           0        1.299087    1.150751    0.386807
      7          1           0        2.146588    2.104199   -0.825743
      8          1           0        2.848469    3.746069    0.948602
      9          1           0        1.996154    2.787203    2.168042
     10          1           0        1.083864    3.599769    0.884776
     11          6           0        3.607703   -0.207061   -0.344585
     12          6           0        4.893516   -0.982375   -0.055521
     13          6           0        5.042448   -2.227425   -0.930429
     14          1           0        2.745313   -0.870233   -0.190048
     15          1           0        3.592589    0.083531   -1.403959
     16          1           0        4.905660   -1.270989    1.003332
     17          1           0        5.753160   -0.317541   -0.209218
     18          1           0        5.056094   -1.953993   -1.990453
     19          1           0        4.203778   -2.912859   -0.771013
     20          1           0        5.968383   -2.766559   -0.707186
     21          6           0       -3.237095    2.028740   -0.838125
     22          6           0       -1.917257    1.570114   -0.773242
     23          6           0       -1.638263    0.267607   -0.348758
     24          6           0       -2.708156   -0.553070    0.004949
     25          6           0       -4.033821   -0.125296   -0.049016
     26          6           0       -4.289310    1.181066   -0.476442
     27          1           0       -3.444694    3.042056   -1.169016
     28          1           0       -1.098100    2.226220   -1.053515
     29          1           0       -0.625910   -0.113182   -0.289108
     30          1           0       -4.829399   -0.802610    0.236850
     31          1           0       -5.315301    1.534544   -0.525842
     32          7           0       -2.425240   -1.934016    0.455889
     33          8           0       -3.385544   -2.637382    0.762038
     34          8           0       -1.248541   -2.286885    0.494647
 ---------------------------------------------------------------------

 SCF Done:  E(RHF) =  -669.535625672     A.U. after   15 cycles
 E2 =    -0.2091822733D+01 EUMP2 =    -0.67162744840501D+03

 The electronic state is 1-A.
 Alpha  occ. eigenvalues --  -20.60773 -20.60768 -15.85824 -11.31162 -11.27736
 Alpha  occ. eigenvalues --  -11.27703 -11.27473 -11.26752 -11.26719 -11.22305
 Alpha  occ. eigenvalues --  -11.21710 -11.21684 -11.21593 -11.21486 -11.20930
 Alpha  occ. eigenvalues --   -1.59847  -1.39402  -1.19335  -1.08738  -1.08709
 Alpha  occ. eigenvalues --   -1.04736  -1.03810  -0.96225  -0.95576  -0.87247
 Alpha  occ. eigenvalues --   -0.86134  -0.82411  -0.79943  -0.78491  -0.77444
 Alpha  occ. eigenvalues --   -0.72045  -0.71169  -0.70456  -0.65351  -0.64985
 Alpha  occ. eigenvalues --   -0.64728  -0.62136  -0.61168  -0.59636  -0.57841
 Alpha  occ. eigenvalues --   -0.55481  -0.55241  -0.53068  -0.52954  -0.52861
 Alpha  occ. eigenvalues --   -0.52617  -0.50156  -0.48803  -0.48799  -0.48219
 Alpha  occ. eigenvalues --   -0.46956  -0.46021  -0.45895  -0.44812  -0.44049
 Alpha  occ. eigenvalues --   -0.37319  -0.36328
 Alpha virt. eigenvalues --    0.05053   0.11291   0.16511   0.19751   0.22894
 Alpha virt. eigenvalues --    0.23696   0.24574   0.26100   0.26918   0.28410
 Alpha virt. eigenvalues --    0.29679   0.30477   0.31358   0.31574   0.32662

 Mulliken charges:
               1
     1  C   -0.297649
     2  C   -0.307975
     3  C   -0.474940
     4  H    0.153829
     5  H    0.150650
     6  H    0.150230
     7  H    0.148479
     8  H    0.158046
     9  H    0.160347
    10  H    0.154290
    11  C   -0.302166
    12  C   -0.299810
    13  C   -0.476965
    14  H    0.156148
    15  H    0.147734
    16  H    0.154231
    17  H    0.150796
    18  H    0.153916
    19  H    0.160631
    20  H    0.160570
    21  C   -0.170951
    22  C   -0.221689
    23  C   -0.177682
    24  C    0.160122
    25  C   -0.170820
    26  C   -0.218546
    27  H    0.225550
    28  H    0.227442
    29  H    0.280853
    30  H    0.275450
    31  H    0.223351
    32  N    0.488094
    33  O   -0.460295
    34  O   -0.461272
 Sum of Mulliken charges =  -0.00000

 Dipole moment (field-independent basis, Debye):
    X=             -0.8737    Y=              4.8044    Z=             -1.5247  Tot=              5.1157
 Quadrupole moment (field-independent basis, Debye-Ang):
   XX=            -83.8729   YY=           -101.1861   ZZ=            -95.3121
   XY=            -11.5363   XZ=              3.7176   YZ=             -0.0804

 Normal termination of Gaussian 16 at Wed May  5 20:19:28 2021.
