 Gaussian 16, Revision A.03,
 Gaussian 16:  EM64L-G16RevA.03 25-Dec-2016

 -------------
 #p 6-31g* mp2
 -------------

 ------------------------------------------------------
 Input file generated by CHIRIPA (05-May-2021 14:51:13)
 ------------------------------------------------------
 Symbolic Z-matrix:
 Charge =  0 Multiplicity = 1

                         Standard orientation:
 ---------------------------------------------------------------------
 Center     Atomic      Atomic             Coordinates (Angstroms)
 Number     Number       Type             X           Y           Z
 ---------------------------------------------------------------------
      1          6           0       -4.784871    0.085849   -0.219826
      2          6           0       -5.702338    1.258386    0.128598
      3          6           0       -6.850877    1.426320   -0.866615
      4          1           0       -4.378246    0.234183   -1.229578
      5          1           0       -5.379048   -0.837802   -0.254711
      6          1           0       -5.106358    2.179341    0.164174
      7          1           0       -6.106675    1.107339    1.137712
      8          1           0       -7.469804    0.523747   -0.896489
      9          1           0       -6.463803    1.601840   -1.875559
     10          1           0       -7.494254    2.270150   -0.598514
     11          6           0       -3.631862   -0.094883    0.765888
     12          6           0       -2.714395   -1.267419    0.417464
     13          6           0       -1.565856   -1.435353    1.412677
     14          1           0       -3.037685    0.828769    0.800772
     15          1           0       -4.038487   -0.243216    1.775639
     16          1           0       -2.310058   -1.116372   -0.591651
     17          1           0       -3.310375   -2.188374    0.381888
     18          1           0       -1.952930   -1.610873    2.421620
     19          1           0       -0.946929   -0.532780    1.442551
     20          1           0       -0.922479   -2.279183    1.144576
     21          6           0        4.970308    0.036748   -0.230149
     22          6           0        5.488917    1.341683    0.374974
     23          6           0        7.015052    1.391153    0.454091
     24          1           0        5.335411   -0.808492    0.369197
     25          1           0        5.394746   -0.086956   -1.236103
     26          1           0        5.062537    1.463572    1.378945
     27          1           0        5.122378    2.183925   -0.225771
     28          1           0        7.455846    1.294705   -0.543404
     29          1           0        7.395665    0.570260    1.070428
     30          1           0        7.364169    2.332547    0.889700
     31          6           0        3.446426   -0.027714   -0.315913
     32          6           0        2.927816   -1.332650   -0.921035
     33          6           0        1.401681   -1.382119   -1.000153
     34          1           0        3.021988    0.095989    0.690042
     35          1           0        3.081321    0.817525   -0.915258
     36          1           0        3.294354   -2.174892   -0.320291
     37          1           0        3.354196   -1.454539   -1.925007
     38          1           0        1.021069   -0.561226   -1.616489
     39          1           0        0.960886   -1.285672   -0.002657
     40          1           0        1.052564   -2.323513   -1.435762
 ---------------------------------------------------------------------

 SCF Done:  E(RHF) =  -470.732596172     A.U. after   11 cycles
 E2 =    -0.1582777271D+01 EUMP2 =    -0.47231537344220D+03

 The electronic state is 1-A.
 Alpha  occ. eigenvalues --  -11.21591 -11.21585 -11.21558 -11.21553 -11.21386
 Alpha  occ. eigenvalues --  -11.21379 -11.21327 -11.21319 -11.21063 -11.21058
 Alpha  occ. eigenvalues --  -11.21024 -11.20939  -1.08415  -1.08394  -1.03543
 Alpha  occ. eigenvalues --   -1.03461  -0.96038  -0.95875  -0.87082  -0.86870
 Alpha  occ. eigenvalues --   -0.79630  -0.79507  -0.78224  -0.78212  -0.65072
 Alpha  occ. eigenvalues --   -0.65006  -0.61042  -0.60802  -0.59364  -0.59295
 Alpha  occ. eigenvalues --   -0.57608  -0.57531  -0.55463  -0.55055  -0.52783
 Alpha  occ. eigenvalues --   -0.52605  -0.52375  -0.52274  -0.50096  -0.49664
 Alpha  occ. eigenvalues --   -0.47889  -0.47851  -0.46709  -0.46458  -0.45783
 Alpha  occ. eigenvalues --   -0.45730  -0.45707  -0.45641  -0.43773  -0.43718
 Alpha virt. eigenvalues --    0.22132   0.22990   0.23602   0.24858   0.26457
 Alpha virt. eigenvalues --    0.26533   0.27287   0.27380   0.27749   0.29253
 Alpha virt. eigenvalues --    0.30998   0.31277   0.31512   0.32014   0.32234

 Mulliken charges:
               1
     1  C   -0.298304
     2  C   -0.299633
     3  C   -0.475687
     4  H    0.149704
     5  H    0.149469
     6  H    0.151891
     7  H    0.151884
     8  H    0.155157
     9  H    0.155157
    10  H    0.160182
    11  C   -0.298580
    12  C   -0.300704
    13  C   -0.478541
    14  H    0.149690
    15  H    0.149487
    16  H    0.154388
    17  H    0.151717
    18  H    0.154924
    19  H    0.155403
    20  H    0.162978
    21  C   -0.298217
    22  C   -0.299645
    23  C   -0.475691
    24  H    0.149673
    25  H    0.149515
    26  H    0.151919
    27  H    0.151811
    28  H    0.155157
    29  H    0.155197
    30  H    0.160197
    31  C   -0.298369
    32  C   -0.299399
    33  C   -0.482653
    34  H    0.149389
    35  H    0.149292
    36  H    0.151574
    37  H    0.151374
    38  H    0.153536
    39  H    0.165772
    40  H    0.158983
 Sum of Mulliken charges =  -0.00000

 Dipole moment (field-independent basis, Debye):
    X=             -0.0198    Y=             -0.0090    Z=              0.0174  Tot=              0.0279
 Quadrupole moment (field-independent basis, Debye-Ang):
   XX=            -86.5817   YY=            -84.3304   ZZ=            -84.0748
   XY=              0.4287   XZ=             -0.9753   YZ=             -0.6612

 Normal termination of Gaussian 16 at Wed May  5 21:36:28 2021.
