 Gaussian 16, Revision A.03,
 Gaussian 16:  EM64L-G16RevA.03 25-Dec-2016

 -------------
 #p 6-31g* mp2
 -------------

 ------------------------------------------------------
 Input file generated by CHIRIPA (05-May-2021 14:51:10)
 ------------------------------------------------------
 Symbolic Z-matrix:
 Charge =  0 Multiplicity = 1

                         Standard orientation:
 ---------------------------------------------------------------------
 Center     Atomic      Atomic             Coordinates (Angstroms)
 Number     Number       Type             X           Y           Z
 ---------------------------------------------------------------------
      1          6           0       -2.594061   -0.744301   -0.445481
      2          6           0       -3.755334    0.105943    0.070770
      3          6           0       -4.636043    0.649523   -1.054693
      4          1           0       -1.983759   -0.141823   -1.132137
      5          1           0       -2.994749   -1.580439   -1.035156
      6          1           0       -3.352633    0.939445    0.660451
      7          1           0       -4.362832   -0.498570    0.756426
      8          1           0       -5.065180   -0.171141   -1.638604
      9          1           0       -4.049242    1.275045   -1.735125
     10          1           0       -5.459905    1.254408   -0.663252
     11          6           0       -1.704570   -1.294862    0.667810
     12          6           0       -0.543297   -2.145106    0.151560
     13          6           0        0.337413   -2.688686    1.277022
     14          1           0       -1.303881   -0.458724    1.257486
     15          1           0       -2.314871   -1.897340    1.354467
     16          1           0        0.064202   -1.540592   -0.534097
     17          1           0       -0.945997   -2.978607   -0.438122
     18          1           0       -0.249389   -3.314207    1.957454
     19          1           0        0.766550   -1.868022    1.860934
     20          1           0        1.161275   -3.293570    0.885581
     21          6           0        2.441031    0.555792   -0.643363
     22          6           0        3.310664   -0.560542   -0.064121
     23          6           0        3.887067   -1.480075   -1.141160
     24          1           0        1.621692    0.109925   -1.223732
     25          1           0        3.038952    1.147453   -1.350345
     26          1           0        2.711672   -1.149075    0.642600
     27          1           0        4.127918   -0.111967    0.515097
     28          1           0        4.507458   -0.911490   -1.841465
     29          1           0        3.083165   -1.954489   -1.713239
     30          1           0        4.505405   -2.270845   -0.705041
     31          6           0        1.857600    1.483370    0.421033
     32          6           0        0.987966    2.599704   -0.158209
     33          6           0        0.411564    3.519237    0.918831
     34          1           0        1.259678    0.891709    1.128015
     35          1           0        2.676938    1.929239    1.001403
     36          1           0        0.170713    2.151129   -0.737426
     37          1           0        1.586959    3.188237   -0.864930
     38          1           0        1.215465    3.993652    1.490909
     39          1           0       -0.208828    2.950653    1.619136
     40          1           0       -0.206775    4.310007    0.482712
 ---------------------------------------------------------------------

 SCF Done:  E(RHF) =  -470.732135532     A.U. after   11 cycles
 E2 =    -0.1585893704D+01 EUMP2 =    -0.47231802923649D+03

 The electronic state is 1-A.
 Alpha  occ. eigenvalues --  -11.21673 -11.21672 -11.21651 -11.21497 -11.21488
 Alpha  occ. eigenvalues --  -11.21448 -11.21428 -11.21366 -11.21156 -11.21139
 Alpha  occ. eigenvalues --  -11.21104 -11.21050  -1.08565  -1.08409  -1.03648
 Alpha  occ. eigenvalues --   -1.03505  -0.96063  -0.96002  -0.87086  -0.87013
 Alpha  occ. eigenvalues --   -0.79737  -0.79558  -0.78413  -0.78182  -0.65680
 Alpha  occ. eigenvalues --   -0.64656  -0.61310  -0.60660  -0.59416  -0.59351
 Alpha  occ. eigenvalues --   -0.57681  -0.57585  -0.55353  -0.55303  -0.52746
 Alpha  occ. eigenvalues --   -0.52690  -0.52477  -0.52431  -0.50078  -0.49930
 Alpha  occ. eigenvalues --   -0.48018  -0.47884  -0.46993  -0.46519  -0.46119
 Alpha  occ. eigenvalues --   -0.45979  -0.45573  -0.45223  -0.43854  -0.43798
 Alpha virt. eigenvalues --    0.18279   0.21818   0.23473   0.24567   0.25186
 Alpha virt. eigenvalues --    0.26117   0.27049   0.27967   0.29479   0.29886
 Alpha virt. eigenvalues --    0.30771   0.31316   0.31689   0.31970   0.32463

 Mulliken charges:
               1
     1  C   -0.299533
     2  C   -0.299916
     3  C   -0.475745
     4  H    0.149952
     5  H    0.149987
     6  H    0.152287
     7  H    0.152173
     8  H    0.155247
     9  H    0.155278
    10  H    0.160546
    11  C   -0.300137
    12  C   -0.307060
    13  C   -0.480748
    14  H    0.150629
    15  H    0.150300
    16  H    0.158969
    17  H    0.152780
    18  H    0.156854
    19  H    0.156770
    20  H    0.161846
    21  C   -0.301729
    22  C   -0.308579
    23  C   -0.476171
    24  H    0.151633
    25  H    0.150147
    26  H    0.163770
    27  H    0.151503
    28  H    0.155084
    29  H    0.155022
    30  H    0.160000
    31  C   -0.302251
    32  C   -0.300854
    33  C   -0.475951
    34  H    0.151826
    35  H    0.150377
    36  H    0.152176
    37  H    0.152602
    38  H    0.155675
    39  H    0.154659
    40  H    0.160583
 Sum of Mulliken charges =  -0.00000

 Dipole moment (field-independent basis, Debye):
    X=             -0.0163    Y=             -0.0218    Z=              0.0185  Tot=              0.0329
 Quadrupole moment (field-independent basis, Debye-Ang):
   XX=            -84.5382   YY=            -84.4072   ZZ=            -85.7174
   XY=              1.7048   XZ=             -0.2129   YZ=             -0.2901

 Normal termination of Gaussian 16 at Wed May  5 19:48:53 2021.
