 Gaussian 16, Revision A.03,
 Gaussian 16:  EM64L-G16RevA.03 25-Dec-2016

 -------------
 #p 6-31g* mp2
 -------------

 ------------------------------------------------------
 Input file generated by CHIRIPA (05-May-2021 14:51:08)
 ------------------------------------------------------
 Symbolic Z-matrix:
 Charge =  0 Multiplicity = 1

                         Standard orientation:
 ---------------------------------------------------------------------
 Center     Atomic      Atomic             Coordinates (Angstroms)
 Number     Number       Type             X           Y           Z
 ---------------------------------------------------------------------
      1          6           0        2.147889   -0.734679    0.792576
      2          6           0        1.399537   -0.060069    1.942730
      3          6           0        0.415772   -1.000211    2.639963
      4          1           0        1.419974   -1.113396    0.062056
      5          1           0        2.687408   -1.610435    1.179055
      6          1           0        0.862706    0.814955    1.554451
      7          1           0        2.129325    0.317255    2.670502
      8          1           0        0.939648   -1.867725    3.054179
      9          1           0       -0.334168   -1.367196    1.931787
     10          1           0       -0.108233   -0.497506    3.458844
     11          6           0        3.135045    0.192449    0.085692
     12          6           0        3.883397   -0.482161   -1.064463
     13          6           0        4.867162    0.457981   -1.761696
     14          1           0        2.595525    1.068205   -0.300787
     15          1           0        3.862959    0.571166    0.816211
     16          1           0        3.153608   -0.859484   -1.792235
     17          1           0        4.420228   -1.357185   -0.676184
     18          1           0        5.617102    0.824966   -1.053520
     19          1           0        4.343286    1.325495   -2.175912
     20          1           0        5.391167   -0.044724   -2.580577
     21          6           0       -2.155524    0.851730   -0.338247
     22          6           0       -2.852410    2.198092   -0.139142
     23          6           0       -1.867004    3.349853    0.061397
     24          1           0       -1.518287    0.643631    0.532138
     25          1           0       -1.486048    0.918200   -1.207027
     26          1           0       -3.521414    2.128684    0.728170
     27          1           0       -3.488210    2.402920   -1.010015
     28          1           0       -1.207078    3.447791   -0.806652
     29          1           0       -1.240471    3.171998    0.941411
     30          1           0       -2.386546    4.302856    0.201828
     31          6           0       -3.127410   -0.309500   -0.540020
     32          6           0       -2.430523   -1.655863   -0.739125
     33          6           0       -3.415929   -2.807623   -0.939664
     34          1           0       -3.796885   -0.375970    0.328760
     35          1           0       -3.764646   -0.101401   -1.410405
     36          1           0       -1.794724   -1.860690    0.131748
     37          1           0       -1.761519   -1.586455   -1.606439
     38          1           0       -4.042462   -2.629768   -1.819678
     39          1           0       -4.075855   -2.905562   -0.071615
     40          1           0       -2.896388   -3.760626   -1.080096
 ---------------------------------------------------------------------

 SCF Done:  E(RHF) =  -470.732983980     A.U. after   11 cycles
 E2 =    -0.1584352664D+01 EUMP2 =    -0.47231733664371D+03

 The electronic state is 1-A.
 Alpha  occ. eigenvalues --  -11.21663 -11.21643 -11.21593 -11.21582 -11.21446
 Alpha  occ. eigenvalues --  -11.21385 -11.21373 -11.21314 -11.21123 -11.21109
 Alpha  occ. eigenvalues --  -11.21094 -11.21057  -1.08498  -1.08398  -1.03581
 Alpha  occ. eigenvalues --   -1.03529  -0.96029  -0.95976  -0.87046  -0.86993
 Alpha  occ. eigenvalues --   -0.79696  -0.79545  -0.78313  -0.78218  -0.65285
 Alpha  occ. eigenvalues --   -0.64905  -0.60998  -0.60924  -0.59428  -0.59314
 Alpha  occ. eigenvalues --   -0.57641  -0.57581  -0.55371  -0.55222  -0.52722
 Alpha  occ. eigenvalues --   -0.52675  -0.52463  -0.52398  -0.50027  -0.49895
 Alpha  occ. eigenvalues --   -0.48028  -0.47928  -0.46865  -0.46415  -0.46033
 Alpha  occ. eigenvalues --   -0.45771  -0.45639  -0.45430  -0.43830  -0.43772
 Alpha virt. eigenvalues --    0.20013   0.22886   0.23466   0.23967   0.25868
 Alpha virt. eigenvalues --    0.26245   0.26807   0.28232   0.28379   0.29632
 Alpha virt. eigenvalues --    0.29876   0.31306   0.31723   0.31773   0.32306

 Mulliken charges:
               1
     1  C   -0.299457
     2  C   -0.302976
     3  C   -0.484373
     4  H    0.151586
     5  H    0.149263
     6  H    0.154704
     7  H    0.152236
     8  H    0.155845
     9  H    0.161990
    10  H    0.159764
    11  C   -0.298513
    12  C   -0.299639
    13  C   -0.475679
    14  H    0.150105
    15  H    0.149479
    16  H    0.151869
    17  H    0.151837
    18  H    0.155181
    19  H    0.155125
    20  H    0.160134
    21  C   -0.306789
    22  C   -0.299353
    23  C   -0.476993
    24  H    0.159035
    25  H    0.148677
    26  H    0.152197
    27  H    0.152150
    28  H    0.154943
    29  H    0.155922
    30  H    0.160747
    31  C   -0.297434
    32  C   -0.308484
    33  C   -0.475175
    34  H    0.149761
    35  H    0.149953
    36  H    0.159196
    37  H    0.151744
    38  H    0.155384
    39  H    0.155509
    40  H    0.160528
 Sum of Mulliken charges =  -0.00000

 Dipole moment (field-independent basis, Debye):
    X=             -0.0258    Y=             -0.0028    Z=             -0.0024  Tot=              0.0261
 Quadrupole moment (field-independent basis, Debye-Ang):
   XX=            -85.1109   YY=            -85.8320   ZZ=            -83.7828
   XY=             -1.1693   XZ=              0.8067   YZ=             -0.1539

 Normal termination of Gaussian 16 at Wed May  5 21:17:33 2021.
