 Gaussian 16, Revision A.03,
 Gaussian 16:  EM64L-G16RevA.03 25-Dec-2016

 -------------
 #p 6-31g* mp2
 -------------

 ------------------------------------------------------
 Input file generated by CHIRIPA (05-May-2021 14:57:25)
 ------------------------------------------------------
 Symbolic Z-matrix:
 Charge =  0 Multiplicity = 1

                         Standard orientation:
 ---------------------------------------------------------------------
 Center     Atomic      Atomic             Coordinates (Angstroms)
 Number     Number       Type             X           Y           Z
 ---------------------------------------------------------------------
      1          6           0       -5.341050    0.828134   -0.290826
      2          6           0       -4.175575    1.359033   -0.853263
      3          6           0       -2.946299    0.716557   -0.678187
      4          6           0       -2.918837   -0.460295    0.068510
      5          6           0       -4.062651   -1.014119    0.641447
      6          6           0       -5.280975   -0.354662    0.453423
      7          1           0       -6.291727    1.333821   -0.431859
      8          1           0       -4.219235    2.277460   -1.431736
      9          1           0       -2.028694    1.105610   -1.102519
     10          1           0       -3.987560   -1.931209    1.213045
     11          1           0       -6.184490   -0.769265    0.891381
     12          7           0       -1.623255   -1.149444    0.260709
     13          8           0       -1.625714   -2.184938    0.922815
     14          8           0       -0.629851   -0.641056   -0.254390
     15          6           0        2.085719    2.562213    0.564852
     16          6           0        1.823238    1.978851   -0.679059
     17          6           0        2.397690    0.751587   -1.023116
     18          6           0        3.233550    0.132529   -0.095001
     19          6           0        3.514369    0.688359    1.152189
     20          6           0        2.928959    1.916244    1.474902
     21          1           0        1.635214    3.515822    0.823834
     22          1           0        1.168762    2.478249   -1.387795
     23          1           0        2.211519    0.277567   -1.979182
     24          1           0        4.170956    0.166621    1.837828
     25          1           0        3.134591    2.366942    2.441666
     26          7           0        3.847498   -1.167049   -0.447941
     27          8           0        4.580368   -1.692252    0.387344
     28          8           0        3.584214   -1.635848   -1.553177
 ---------------------------------------------------------------------

 SCF Done:  E(RHF) =  -868.336964469     A.U. after   16 cycles
 E2 =    -0.2600587383D+01 EUMP2 =    -0.87093755185214D+03

 The electronic state is 1-A.
 Alpha  occ. eigenvalues --  -20.61024 -20.61008 -20.59691 -20.59673 -15.86067
 Alpha  occ. eigenvalues --  -15.84743 -11.31518 -11.30081 -11.28146 -11.28055
 Alpha  occ. eigenvalues --  -11.27829 -11.27147 -11.27085 -11.26749 -11.26709
 Alpha  occ. eigenvalues --  -11.26597 -11.25815 -11.25796  -1.60085  -1.58749
 Alpha  occ. eigenvalues --   -1.39641  -1.38308  -1.19691  -1.18302  -1.09066
 Alpha  occ. eigenvalues --   -1.07732  -1.05111  -1.03742  -0.95893  -0.94562
 Alpha  occ. eigenvalues --   -0.86503  -0.85169  -0.82731  -0.81416  -0.77772
 Alpha  occ. eigenvalues --   -0.76429  -0.72303  -0.71407  -0.70985  -0.70799
 Alpha  occ. eigenvalues --   -0.70041  -0.69512  -0.65346  -0.65115  -0.64008
 Alpha  occ. eigenvalues --   -0.63831  -0.62466  -0.61125  -0.55596  -0.54345
 Alpha  occ. eigenvalues --   -0.53428  -0.53208  -0.52008  -0.51903  -0.49056
 Alpha  occ. eigenvalues --   -0.49026  -0.47740  -0.47720  -0.45023  -0.43722
 Alpha  occ. eigenvalues --   -0.37665  -0.36719  -0.36309  -0.35256
 Alpha virt. eigenvalues --    0.04776   0.06157   0.10936   0.12320   0.16260
 Alpha virt. eigenvalues --    0.17560   0.20764   0.22126   0.26233   0.27408
 Alpha virt. eigenvalues --    0.28720   0.29114   0.30526   0.31403   0.32804

 Mulliken charges:
               1
     1  C   -0.170846
     2  C   -0.218292
     3  C   -0.170551
     4  C    0.159074
     5  C   -0.170470
     6  C   -0.218286
     7  H    0.226319
     8  H    0.221999
     9  H    0.268945
    10  H    0.277384
    11  H    0.224822
    12  N    0.491763
    13  O   -0.456405
    14  O   -0.465468
    15  C   -0.171174
    16  C   -0.214758
    17  C   -0.149786
    18  C    0.161927
    19  C   -0.169322
    20  C   -0.219125
    21  H    0.218408
    22  H    0.212141
    23  H    0.274502
    24  H    0.273240
    25  H    0.218712
    26  N    0.489480
    27  O   -0.463955
    28  O   -0.460276
 Sum of Mulliken charges =  -0.00000

 Dipole moment (field-independent basis, Debye):
    X=             -6.9030    Y=              6.7256    Z=              0.5534  Tot=              9.6536
 Quadrupole moment (field-independent basis, Debye-Ang):
   XX=            -91.3179   YY=           -104.9964   ZZ=           -100.6656
   XY=             11.0682   XZ=              6.5150   YZ=             -2.2461

 Normal termination of Gaussian 16 at Wed May  5 19:31:13 2021.
