 Gaussian 16, Revision A.03,
 Gaussian 16:  EM64L-G16RevA.03 25-Dec-2016

 -------------
 #p 6-31g* mp2
 -------------

 ------------------------------------------------------
 Input file generated by CHIRIPA (05-May-2021 14:53:17)
 ------------------------------------------------------
 Symbolic Z-matrix:
 Charge =  0 Multiplicity = 1

                         Standard orientation:
 ---------------------------------------------------------------------
 Center     Atomic      Atomic             Coordinates (Angstroms)
 Number     Number       Type             X           Y           Z
 ---------------------------------------------------------------------
      1          6           0        2.583982    0.731504    0.638204
      2          6           0        2.461874    2.239277    0.415278
      3          6           0        1.384663    2.880909    1.290330
      4          1           0        1.613987    0.257471    0.434865
      5          1           0        2.808962    0.541443    1.696815
      6          1           0        2.238559    2.426505   -0.642877
      7          1           0        3.432324    2.709752    0.618986
      8          1           0        1.605659    2.723436    2.350974
      9          1           0        0.405112    2.438581    1.081941
     10          1           0        1.314382    3.958927    1.114839
     11          6           0        3.656751    0.075735   -0.229472
     12          6           0        3.778858   -1.432038   -0.006545
     13          6           0        4.856070   -2.073670   -0.881598
     14          1           0        3.431771    0.265796   -1.288083
     15          1           0        4.626746    0.549767   -0.026133
     16          1           0        2.808409   -1.902513   -0.210253
     17          1           0        4.002173   -1.619267    1.051610
     18          1           0        5.835621   -1.631342   -0.673209
     19          1           0        4.635074   -1.916198   -1.942242
     20          1           0        4.926350   -3.151689   -0.706107
     21          6           0       -2.536423    2.061644   -1.000019
     22          6           0       -1.339788    1.341369   -1.076116
     23          6           0       -1.273548    0.023723   -0.613550
     24          6           0       -2.428250   -0.545124   -0.078418
     25          6           0       -3.635260    0.146548    0.011069
     26          6           0       -3.678326    1.462990   -0.457626
     27          1           0       -2.578878    3.084756   -1.361730
     28          1           0       -0.451398    1.803739   -1.496858
     29          1           0       -0.360188   -0.556792   -0.660401
     30          1           0       -4.504288   -0.341270    0.435618
     31          1           0       -4.609015    2.019964   -0.397263
     32          7           0       -2.370392   -1.939421    0.414523
     33          8           0       -3.401669   -2.417861    0.881641
     34          8           0       -1.294860   -2.527429    0.324438
 ---------------------------------------------------------------------

 SCF Done:  E(RHF) =  -669.534889431     A.U. after   15 cycles
 E2 =    -0.2093528347D+01 EUMP2 =    -0.67162841777724D+03

 The electronic state is 1-A.
 Alpha  occ. eigenvalues --  -20.60824 -20.60818 -15.85877 -11.31264 -11.27833
 Alpha  occ. eigenvalues --  -11.27829 -11.27575 -11.26853 -11.26843 -11.22174
 Alpha  occ. eigenvalues --  -11.21809 -11.21671 -11.21597 -11.21474 -11.21055
 Alpha  occ. eigenvalues --   -1.59897  -1.39450  -1.19447  -1.08836  -1.08767
 Alpha  occ. eigenvalues --   -1.04861  -1.03803  -0.96257  -0.95661  -0.87272
 Alpha  occ. eigenvalues --   -0.86243  -0.82498  -0.79884  -0.78559  -0.77538
 Alpha  occ. eigenvalues --   -0.72096  -0.71219  -0.70553  -0.65489  -0.65080
 Alpha  occ. eigenvalues --   -0.64866  -0.62226  -0.61160  -0.59632  -0.57850
 Alpha  occ. eigenvalues --   -0.55594  -0.55336  -0.53195  -0.52981  -0.52918
 Alpha  occ. eigenvalues --   -0.52601  -0.50200  -0.48855  -0.48850  -0.48174
 Alpha  occ. eigenvalues --   -0.46943  -0.46073  -0.46009  -0.44848  -0.44074
 Alpha  occ. eigenvalues --   -0.37409  -0.36398
 Alpha virt. eigenvalues --    0.04959   0.11115   0.16359   0.19115   0.23106
 Alpha virt. eigenvalues --    0.23507   0.25165   0.26077   0.27649   0.28298
 Alpha virt. eigenvalues --    0.29673   0.30941   0.31328   0.31672   0.32228

 Mulliken charges:
               1
     1  C   -0.303044
     2  C   -0.300413
     3  C   -0.482883
     4  H    0.147084
     5  H    0.155531
     6  H    0.142200
     7  H    0.155783
     8  H    0.159224
     9  H    0.159639
    10  H    0.157656
    11  C   -0.298494
    12  C   -0.301938
    13  C   -0.475912
    14  H    0.144911
    15  H    0.151058
    16  H    0.157892
    17  H    0.154719
    18  H    0.154332
    19  H    0.153887
    20  H    0.163719
    21  C   -0.171728
    22  C   -0.220416
    23  C   -0.174776
    24  C    0.159267
    25  C   -0.170567
    26  C   -0.218188
    27  H    0.226643
    28  H    0.228333
    29  H    0.279013
    30  H    0.275992
    31  H    0.223984
    32  N    0.488026
    33  O   -0.460004
    34  O   -0.460531
 Sum of Mulliken charges =  -0.00000

 Dipole moment (field-independent basis, Debye):
    X=             -0.2141    Y=              4.8119    Z=             -1.6571  Tot=              5.0937
 Quadrupole moment (field-independent basis, Debye-Ang):
   XX=            -88.7063   YY=           -101.1612   ZZ=            -94.6435
   XY=            -12.0551   XZ=              4.1175   YZ=              0.3850

 Normal termination of Gaussian 16 at Thu May  6 01:11:41 2021.
