 Gaussian 16, Revision A.03,
 Gaussian 16:  EM64L-G16RevA.03 25-Dec-2016

 -------------
 #p 6-31g* mp2
 -------------

 ------------------------------------------------------
 Input file generated by CHIRIPA (05-May-2021 14:51:09)
 ------------------------------------------------------
 Symbolic Z-matrix:
 Charge =  0 Multiplicity = 1

                         Standard orientation:
 ---------------------------------------------------------------------
 Center     Atomic      Atomic             Coordinates (Angstroms)
 Number     Number       Type             X           Y           Z
 ---------------------------------------------------------------------
      1          6           0       -2.325223   -1.107472    0.344831
      2          6           0       -1.265379   -0.741240    1.384346
      3          6           0       -0.217730   -1.838892    1.572461
      4          1           0       -2.819910   -2.040424    0.647865
      5          1           0       -1.831638   -1.312931   -0.615145
      6          1           0       -1.760939   -0.535185    2.341726
      7          1           0       -0.773289    0.191051    1.078901
      8          1           0        0.302945   -2.039967    0.630619
      9          1           0       -0.690316   -2.770329    1.900620
     10          1           0        0.530125   -1.556233    2.319909
     11          6           0       -3.379557   -0.020086    0.145584
     12          6           0       -4.439401   -0.386317   -0.893930
     13          6           0       -5.487050    0.711335   -1.082046
     14          1           0       -3.873141    0.185374    1.105561
     15          1           0       -2.884869    0.912867   -0.157450
     16          1           0       -4.931491   -1.318608   -0.588485
     17          1           0       -3.943841   -0.592372   -1.851311
     18          1           0       -5.014463    1.642772   -1.410204
     19          1           0       -6.007725    0.912410   -0.140203
     20          1           0       -6.234904    0.428676   -1.829493
     21          6           0        2.904061    1.319143   -0.144275
     22          6           0        1.574117    1.972972    0.232209
     23          6           0        1.693665    3.484290    0.430754
     24          1           0        3.643987    1.529981    0.639945
     25          1           0        3.284402    1.781958   -1.065436
     26          1           0        1.195715    1.508106    1.151627
     27          1           0        0.837219    1.760391   -0.552906
     28          1           0        2.047762    3.966474   -0.486152
     29          1           0        2.408296    3.712756    1.228066
     30          1           0        0.731407    3.931286    0.699294
     31          6           0        2.800719   -0.191585   -0.346140
     32          6           0        4.130663   -0.845414   -0.722625
     33          6           0        4.011114   -2.356733   -0.921169
     34          1           0        2.420378   -0.654401    0.575021
     35          1           0        2.060793   -0.402425   -1.130361
     36          1           0        4.867561   -0.632833    0.062491
     37          1           0        4.509065   -0.380550   -1.642043
     38          1           0        3.296484   -2.585199   -1.718481
     39          1           0        3.657018   -2.838917   -0.004264
     40          1           0        4.973372   -2.803729   -1.189709
 ---------------------------------------------------------------------

 SCF Done:  E(RHF) =  -470.732228848     A.U. after   11 cycles
 E2 =    -0.1584509717D+01 EUMP2 =    -0.47231673856548D+03

 The electronic state is 1-A.
 Alpha  occ. eigenvalues --  -11.21650 -11.21599 -11.21581 -11.21461 -11.21413
 Alpha  occ. eigenvalues --  -11.21362 -11.21324 -11.21298 -11.21114 -11.21073
 Alpha  occ. eigenvalues --  -11.21058 -11.20987  -1.08475  -1.08362  -1.03564
 Alpha  occ. eigenvalues --   -1.03477  -0.96016  -0.95926  -0.87052  -0.86928
 Alpha  occ. eigenvalues --   -0.79757  -0.79438  -0.78318  -0.78163  -0.65141
 Alpha  occ. eigenvalues --   -0.64971  -0.60968  -0.60881  -0.59414  -0.59281
 Alpha  occ. eigenvalues --   -0.57629  -0.57547  -0.55340  -0.55194  -0.52705
 Alpha  occ. eigenvalues --   -0.52649  -0.52434  -0.52360  -0.50031  -0.49824
 Alpha  occ. eigenvalues --   -0.48136  -0.47811  -0.46757  -0.46375  -0.45987
 Alpha  occ. eigenvalues --   -0.45734  -0.45642  -0.45353  -0.43800  -0.43729
 Alpha virt. eigenvalues --    0.21180   0.23045   0.23746   0.24030   0.25424
 Alpha virt. eigenvalues --    0.26180   0.27451   0.27874   0.28077   0.29994
 Alpha virt. eigenvalues --    0.30666   0.31057   0.31502   0.31820   0.32167

 Mulliken charges:
               1
     1  C   -0.297731
     2  C   -0.308449
     3  C   -0.478745
     4  H    0.149300
     5  H    0.149006
     6  H    0.150783
     7  H    0.162114
     8  H    0.160005
     9  H    0.154769
    10  H    0.157647
    11  C   -0.298377
    12  C   -0.299569
    13  C   -0.475670
    14  H    0.149458
    15  H    0.149429
    16  H    0.151967
    17  H    0.151676
    18  H    0.155048
    19  H    0.155169
    20  H    0.160160
    21  C   -0.297557
    22  C   -0.305043
    23  C   -0.475207
    24  H    0.149522
    25  H    0.149339
    26  H    0.157184
    27  H    0.151341
    28  H    0.155307
    29  H    0.155394
    30  H    0.160350
    31  C   -0.304645
    32  C   -0.299134
    33  C   -0.476544
    34  H    0.159014
    35  H    0.147946
    36  H    0.151789
    37  H    0.151616
    38  H    0.154724
    39  H    0.156176
    40  H    0.160438
 Sum of Mulliken charges =  -0.00000

 Dipole moment (field-independent basis, Debye):
    X=              0.0420    Y=              0.0176    Z=              0.0080  Tot=              0.0463
 Quadrupole moment (field-independent basis, Debye-Ang):
   XX=            -85.1906   YY=            -86.3149   ZZ=            -83.4273
   XY=              0.8334   XZ=             -0.3188   YZ=             -0.4235

 Normal termination of Gaussian 16 at Wed May  5 19:42:23 2021.
