 Gaussian 16, Revision A.03,
 Gaussian 16:  EM64L-G16RevA.03 25-Dec-2016

 -------------
 #p 6-31g* mp2
 -------------

 ------------------------------------------------------
 Input file generated by CHIRIPA (05-May-2021 14:53:12)
 ------------------------------------------------------
 Symbolic Z-matrix:
 Charge =  0 Multiplicity = 1

                         Standard orientation:
 ---------------------------------------------------------------------
 Center     Atomic      Atomic             Coordinates (Angstroms)
 Number     Number       Type             X           Y           Z
 ---------------------------------------------------------------------
      1          6           0       -4.010146    0.968161   -0.166675
      2          6           0       -2.797637    1.764273    0.317074
      3          6           0       -2.955208    3.269928    0.102676
      4          1           0       -4.173327    1.172948   -1.233624
      5          1           0       -4.906795    1.322655    0.360344
      6          1           0       -1.903323    1.407436   -0.209696
      7          1           0       -2.637208    1.557418    1.382949
      8          1           0       -3.830536    3.646308    0.641880
      9          1           0       -3.092481    3.495474   -0.959815
     10          1           0       -2.077112    3.819752    0.455522
     11          6           0       -3.867615   -0.538599    0.040896
     12          6           0       -5.080124   -1.334711   -0.442853
     13          6           0       -4.922553   -2.840367   -0.228455
     14          1           0       -2.970966   -0.893093   -0.486123
     15          1           0       -3.704434   -0.743387    1.107845
     16          1           0       -5.240552   -1.127856   -1.508728
     17          1           0       -5.974438   -0.977875    0.083917
     18          1           0       -4.785280   -3.065912    0.834035
     19          1           0       -4.047225   -3.216746   -0.767659
     20          1           0       -5.800649   -3.390191   -0.581301
     21          6           0        0.627123   -0.133604    0.650490
     22          6           0        1.583227   -0.434457    1.626130
     23          6           0        2.943544   -0.456291    1.304247
     24          6           0        3.314119   -0.171103   -0.009004
     25          6           0        2.385381    0.132217   -1.003355
     26          6           0        1.030540    0.148276   -0.658830
     27          1           0       -0.427476   -0.118885    0.909330
     28          1           0        1.272828   -0.653770    2.643774
     29          1           0        3.704773   -0.686049    2.039883
     30          1           0        2.725364    0.346607   -2.009271
     31          1           0        0.290223    0.382254   -1.418587
     32          7           0        4.751327   -0.191161   -0.361752
     33          8           0        5.052002    0.063664   -1.525923
     34          8           0        5.549923   -0.461326    0.532616
 ---------------------------------------------------------------------

 SCF Done:  E(RHF) =  -669.535126418     A.U. after   15 cycles
 E2 =    -0.2092226852D+01 EUMP2 =    -0.67162735327012D+03

 The electronic state is 1-A.
 Alpha  occ. eigenvalues --  -20.60706 -20.60701 -15.85761 -11.31105 -11.27692
 Alpha  occ. eigenvalues --  -11.27682 -11.27328 -11.26683 -11.26660 -11.22882
 Alpha  occ. eigenvalues --  -11.22532 -11.22448 -11.22423 -11.22014 -11.21793
 Alpha  occ. eigenvalues --   -1.59783  -1.39337  -1.19278  -1.09508  -1.08665
 Alpha  occ. eigenvalues --   -1.04687  -1.04511  -0.96922  -0.95508  -0.87941
 Alpha  occ. eigenvalues --   -0.86084  -0.82353  -0.80622  -0.79355  -0.77402
 Alpha  occ. eigenvalues --   -0.71979  -0.71107  -0.70369  -0.66146  -0.64926
 Alpha  occ. eigenvalues --   -0.64696  -0.62082  -0.61860  -0.60305  -0.58550
 Alpha  occ. eigenvalues --   -0.56197  -0.55189  -0.53584  -0.53341  -0.53006
 Alpha  occ. eigenvalues --   -0.52779  -0.50866  -0.48891  -0.48737  -0.48732
 Alpha  occ. eigenvalues --   -0.47653  -0.46823  -0.46784  -0.44778  -0.44747
 Alpha  occ. eigenvalues --   -0.37230  -0.36297
 Alpha virt. eigenvalues --    0.05133   0.11302   0.16613   0.19419   0.22510
 Alpha virt. eigenvalues --    0.23531   0.24489   0.25170   0.26980   0.27649
 Alpha virt. eigenvalues --    0.29657   0.30290   0.30894   0.31240   0.31522

 Mulliken charges:
               1
     1  C   -0.297799
     2  C   -0.306656
     3  C   -0.475773
     4  H    0.152411
     5  H    0.154165
     6  H    0.146029
     7  H    0.150525
     8  H    0.159001
     9  H    0.157541
    10  H    0.163911
    11  C   -0.301334
    12  C   -0.300081
    13  C   -0.476577
    14  H    0.144411
    15  H    0.148280
    16  H    0.154201
    17  H    0.154785
    18  H    0.155473
    19  H    0.155811
    20  H    0.163607
    21  C   -0.174201
    22  C   -0.220506
    23  C   -0.170562
    24  C    0.157858
    25  C   -0.170815
    26  C   -0.222537
    27  H    0.235757
    28  H    0.223179
    29  H    0.275231
    30  H    0.275203
    31  H    0.222786
    32  N    0.488119
    33  O   -0.460772
    34  O   -0.460669
 Sum of Mulliken charges =  -0.00000

 Dipole moment (field-independent basis, Debye):
    X=             -5.3586    Y=              0.1302    Z=              1.2421  Tot=              5.5022
 Quadrupole moment (field-independent basis, Debye-Ang):
   XX=           -127.4776   YY=            -96.0089   ZZ=            -89.5320
   XY=              0.5893   XZ=              5.1271   YZ=             -1.3246

 Normal termination of Gaussian 16 at Thu May  6 12:01:18 2021.
