 Gaussian 16, Revision A.03,
 Gaussian 16:  EM64L-G16RevA.03 25-Dec-2016

 -------------
 #p 6-31g* mp2
 -------------

 ------------------------------------------------------
 Input file generated by CHIRIPA (05-May-2021 14:53:12)
 ------------------------------------------------------
 Symbolic Z-matrix:
 Charge =  0 Multiplicity = 1

                         Standard orientation:
 ---------------------------------------------------------------------
 Center     Atomic      Atomic             Coordinates (Angstroms)
 Number     Number       Type             X           Y           Z
 ---------------------------------------------------------------------
      1          6           0        4.634596   -0.372906    0.144647
      2          6           0        5.290502    0.928746   -0.317386
      3          6           0        6.805876    0.802807   -0.477299
      4          1           0        5.081062   -0.682185    1.099613
      5          1           0        4.863076   -1.167503   -0.579099
      6          1           0        5.059699    1.720977    0.406298
      7          1           0        4.842287    1.235065   -1.271267
      8          1           0        7.052714    0.031958   -1.214499
      9          1           0        7.271361    0.520631    0.472597
     10          1           0        7.254305    1.744743   -0.808249
     11          6           0        3.119809   -0.262876    0.309092
     12          6           0        2.463903   -1.564528    0.771125
     13          6           0        0.948528   -1.438589    0.931038
     14          1           0        2.891329    0.531720    1.032838
     15          1           0        2.673343    0.046403   -0.645873
     16          1           0        2.912118   -1.870847    1.725006
     17          1           0        2.694706   -2.356759    0.047442
     18          1           0        0.483044   -1.156413   -0.018858
     19          1           0        0.701690   -0.667740    1.668238
     20          1           0        0.500100   -2.380525    1.261989
     21          6           0       -3.332557   -2.227608   -0.555971
     22          6           0       -4.306702   -1.500777    0.136328
     23          6           0       -4.149028   -0.128488    0.351995
     24          6           0       -2.999724    0.487719   -0.140628
     25          6           0       -2.011363   -0.209086   -0.834093
     26          6           0       -2.190010   -1.580584   -1.038123
     27          1           0       -3.463187   -3.293328   -0.718987
     28          1           0       -5.195031   -2.000634    0.511905
     29          1           0       -4.887475    0.458337    0.884677
     30          1           0       -1.136511    0.316911   -1.196554
     31          1           0       -1.431831   -2.142521   -1.576114
     32          7           0       -2.821700    1.940081    0.081529
     33          8           0       -1.800146    2.459561   -0.362547
     34          8           0       -3.707090    2.531460    0.695525
 ---------------------------------------------------------------------

 SCF Done:  E(RHF) =  -669.533811499     A.U. after   15 cycles
 E2 =    -0.2092647954D+01 EUMP2 =    -0.67162645945295D+03

 The electronic state is 1-A.
 Alpha  occ. eigenvalues --  -20.60737 -20.60732 -15.85791 -11.31144 -11.27717
 Alpha  occ. eigenvalues --  -11.27708 -11.27457 -11.26730 -11.26718 -11.21833
 Alpha  occ. eigenvalues --  -11.21579 -11.21505 -11.21429 -11.21383 -11.21052
 Alpha  occ. eigenvalues --   -1.59813  -1.39367  -1.19327  -1.08720  -1.08541
 Alpha  occ. eigenvalues --   -1.04752  -1.03658  -0.96125  -0.95556  -0.87146
 Alpha  occ. eigenvalues --   -0.86130  -0.82405  -0.79732  -0.78337  -0.77439
 Alpha  occ. eigenvalues --   -0.72011  -0.71136  -0.70447  -0.65197  -0.64977
 Alpha  occ. eigenvalues --   -0.64746  -0.62159  -0.61033  -0.59487  -0.57723
 Alpha  occ. eigenvalues --   -0.55463  -0.55213  -0.53267  -0.52870  -0.52712
 Alpha  occ. eigenvalues --   -0.52400  -0.50056  -0.48768  -0.48765  -0.48034
 Alpha  occ. eigenvalues --   -0.46761  -0.45883  -0.45796  -0.44772  -0.43906
 Alpha  occ. eigenvalues --   -0.37306  -0.36222
 Alpha virt. eigenvalues --    0.05086   0.11305   0.16506   0.20582   0.22891
 Alpha virt. eigenvalues --    0.24108   0.25997   0.26965   0.27463   0.28166
 Alpha virt. eigenvalues --    0.29104   0.30562   0.31504   0.31823   0.31880

 Mulliken charges:
               1
     1  C   -0.298354
     2  C   -0.299986
     3  C   -0.475846
     4  H    0.150020
     5  H    0.147898
     6  H    0.154413
     7  H    0.152547
     8  H    0.154235
     9  H    0.155116
    10  H    0.161275
    11  C   -0.298231
    12  C   -0.300529
    13  C   -0.473299
    14  H    0.154617
    15  H    0.147187
    16  H    0.153334
    17  H    0.148422
    18  H    0.146060
    19  H    0.161260
    20  H    0.157701
    21  C   -0.172056
    22  C   -0.218609
    23  C   -0.171596
    24  C    0.156627
    25  C   -0.167628
    26  C   -0.213868
    27  H    0.225327
    28  H    0.223174
    29  H    0.275353
    30  H    0.275254
    31  H    0.223263
    32  N    0.488115
    33  O   -0.460549
    34  O   -0.460649
 Sum of Mulliken charges =  -0.00000

 Dipole moment (field-independent basis, Debye):
    X=             -0.6025    Y=             -5.0653    Z=             -0.7210  Tot=              5.1517
 Quadrupole moment (field-independent basis, Debye-Ang):
   XX=            -88.4995   YY=           -100.4755   ZZ=            -93.0497
   XY=             15.3114   XZ=              0.4042   YZ=              0.7610

 Normal termination of Gaussian 16 at Wed May  5 23:22:54 2021.
