 Gaussian 16, Revision A.03,
 Gaussian 16:  EM64L-G16RevA.03 25-Dec-2016

 -------------
 #p 6-31g* mp2
 -------------

 ------------------------------------------------------
 Input file generated by CHIRIPA (05-May-2021 14:51:12)
 ------------------------------------------------------
 Symbolic Z-matrix:
 Charge =  0 Multiplicity = 1

                         Standard orientation:
 ---------------------------------------------------------------------
 Center     Atomic      Atomic             Coordinates (Angstroms)
 Number     Number       Type             X           Y           Z
 ---------------------------------------------------------------------
      1          6           0        4.384728   -0.687758   -0.053339
      2          6           0        5.893506   -0.822354    0.155122
      3          6           0        6.321452   -2.256531    0.467841
      4          1           0        3.863708   -1.039163    0.847771
      5          1           0        4.074202   -1.350941   -0.872581
      6          1           0        6.201312   -0.158082    0.972810
      7          1           0        6.411001   -0.470409   -0.746516
      8          1           0        6.042510   -2.928794   -0.349994
      9          1           0        5.831630   -2.614693    1.379101
     10          1           0        7.403745   -2.329901    0.613165
     11          6           0        3.941469    0.740176   -0.366792
     12          6           0        2.432690    0.874772   -0.575252
     13          6           0        2.004745    2.308949   -0.887972
     14          1           0        4.251995    1.403359    0.452450
     15          1           0        4.462488    1.091581   -1.267901
     16          1           0        1.915196    0.522827    0.326385
     17          1           0        2.124885    0.210500   -1.392941
     18          1           0        2.494566    2.667111   -1.799232
     19          1           0        2.283686    2.981212   -0.070137
     20          1           0        0.922452    2.382319   -1.033296
     21          6           0       -4.919878   -0.094427    0.132197
     22          6           0       -5.354371   -1.462578   -0.394455
     23          6           0       -6.871115   -1.583674   -0.544852
     24          1           0       -5.401702    0.087767    1.102555
     25          1           0       -5.285142    0.686045   -0.549594
     26          1           0       -4.987212   -2.240330    0.287389
     27          1           0       -4.871305   -1.641618   -1.363583
     28          1           0       -7.250660   -0.828978   -1.241258
     29          1           0       -7.367225   -1.431092    0.419095
     30          1           0       -7.159651   -2.569523   -0.922619
     31          6           0       -3.406319    0.042010    0.287934
     32          6           0       -2.971826    1.410160    0.814586
     33          6           0       -1.455082    1.531256    0.964983
     34          1           0       -3.041054   -0.738463    0.969724
     35          1           0       -2.924494   -0.140184   -0.682426
     36          1           0       -3.454891    1.589201    1.783713
     37          1           0       -3.338985    2.187912    0.132741
     38          1           0       -0.958972    1.378674    0.001035
     39          1           0       -1.075537    0.776560    1.661388
     40          1           0       -1.166545    2.517105    1.342750
 ---------------------------------------------------------------------

 SCF Done:  E(RHF) =  -470.733028506     A.U. after   11 cycles
 E2 =    -0.1582568955D+01 EUMP2 =    -0.47231559746105D+03

 The electronic state is 1-A.
 Alpha  occ. eigenvalues --  -11.21604 -11.21602 -11.21574 -11.21524 -11.21408
 Alpha  occ. eigenvalues --  -11.21363 -11.21349 -11.21302 -11.21073 -11.21057
 Alpha  occ. eigenvalues --  -11.21051 -11.20965  -1.08435  -1.08382  -1.03550
 Alpha  occ. eigenvalues --   -1.03464  -0.96025  -0.95891  -0.87045  -0.86905
 Alpha  occ. eigenvalues --   -0.79599  -0.79541  -0.78251  -0.78191  -0.65069
 Alpha  occ. eigenvalues --   -0.65012  -0.60974  -0.60867  -0.59364  -0.59310
 Alpha  occ. eigenvalues --   -0.57709  -0.57457  -0.55290  -0.55194  -0.52795
 Alpha  occ. eigenvalues --   -0.52582  -0.52450  -0.52228  -0.49915  -0.49846
 Alpha  occ. eigenvalues --   -0.47912  -0.47855  -0.46614  -0.46569  -0.45805
 Alpha  occ. eigenvalues --   -0.45727  -0.45709  -0.45648  -0.43809  -0.43699
 Alpha virt. eigenvalues --    0.21988   0.22976   0.23454   0.24861   0.26350
 Alpha virt. eigenvalues --    0.26496   0.26989   0.27571   0.27692   0.29122
 Alpha virt. eigenvalues --    0.30244   0.31124   0.31588   0.31967   0.32192

 Mulliken charges:
               1
     1  C   -0.298213
     2  C   -0.299616
     3  C   -0.475672
     4  H    0.149578
     5  H    0.149384
     6  H    0.151884
     7  H    0.151874
     8  H    0.155122
     9  H    0.155115
    10  H    0.160155
    11  C   -0.298231
    12  C   -0.301331
    13  C   -0.478353
    14  H    0.149478
    15  H    0.149431
    16  H    0.154827
    17  H    0.150886
    18  H    0.154126
    19  H    0.154946
    20  H    0.163734
    21  C   -0.298281
    22  C   -0.299651
    23  C   -0.475709
    24  H    0.149663
    25  H    0.149524
    26  H    0.151943
    27  H    0.151945
    28  H    0.155187
    29  H    0.155179
    30  H    0.160264
    31  C   -0.298397
    32  C   -0.300091
    33  C   -0.479603
    34  H    0.149552
    35  H    0.149703
    36  H    0.151860
    37  H    0.151855
    38  H    0.160359
    39  H    0.154840
    40  H    0.160733
 Sum of Mulliken charges =  -0.00000

 Dipole moment (field-independent basis, Debye):
    X=             -0.0229    Y=              0.0026    Z=              0.0125  Tot=              0.0262
 Quadrupole moment (field-independent basis, Debye-Ang):
   XX=            -86.3020   YY=            -85.6994   ZZ=            -82.9350
   XY=              0.1839   XZ=             -0.4262   YZ=              0.0601

 Normal termination of Gaussian 16 at Thu May  6 02:18:18 2021.
