 Gaussian 16, Revision A.03,
 Gaussian 16:  EM64L-G16RevA.03 25-Dec-2016

 -------------
 #p 6-31g* mp2
 -------------

 ------------------------------------------------------
 Input file generated by CHIRIPA (05-May-2021 14:51:08)
 ------------------------------------------------------
 Symbolic Z-matrix:
 Charge =  0 Multiplicity = 1

                         Standard orientation:
 ---------------------------------------------------------------------
 Center     Atomic      Atomic             Coordinates (Angstroms)
 Number     Number       Type             X           Y           Z
 ---------------------------------------------------------------------
      1          6           0        2.418368    1.183202    0.413819
      2          6           0        1.418291    2.241830   -0.052161
      3          6           0        0.899861    3.110551    1.094289
      4          1           0        1.942046    0.546438    1.171839
      5          1           0        3.263625    1.680356    0.909574
      6          1           0        0.575837    1.742915   -0.548116
      7          1           0        1.896988    2.876028   -0.809300
      8          1           0        1.726561    3.634385    1.584969
      9          1           0        0.397904    2.494834    1.847637
     10          1           0        0.186374    3.860498    0.738797
     11          6           0        2.945669    0.306835   -0.720934
     12          6           0        3.945745   -0.751794   -0.254954
     13          6           0        4.464176   -1.620514   -1.401404
     14          1           0        2.100412   -0.190319   -1.216689
     15          1           0        3.421990    0.943598   -1.478954
     16          1           0        3.467049   -1.385991    0.502185
     17          1           0        4.788199   -0.252878    0.241001
     18          1           0        4.966133   -1.004797   -2.154752
     19          1           0        3.637476   -2.144348   -1.892084
     20          1           0        5.177663   -2.370462   -1.045912
     21          6           0       -3.279856   -0.741033   -0.321843
     22          6           0       -3.977375    0.616947   -0.407545
     23          6           0       -5.171400    0.608993   -1.362550
     24          1           0       -2.946553   -1.038889   -1.325405
     25          1           0       -4.006101   -1.498541    0.003955
     26          1           0       -3.249695    1.371923   -0.731752
     27          1           0       -4.308886    0.911694    0.596367
     28          1           0       -5.918426   -0.123138   -1.039230
     29          1           0       -4.853217    0.339707   -2.374896
     30          1           0       -5.655210    1.589641   -1.408573
     31          6           0       -2.084181   -0.749004    0.628959
     32          6           0       -1.386662   -2.106983    0.714660
     33          6           0       -0.192637   -2.099030    1.669665
     34          1           0       -1.357936    0.008505    0.303159
     35          1           0       -2.417483   -0.451148    1.632520
     36          1           0       -1.055150   -2.401730   -0.289252
     37          1           0       -2.114341   -2.861960    1.038868
     38          1           0       -0.510819   -1.829744    2.682012
     39          1           0        0.554390   -1.366899    1.346345
     40          1           0        0.291174   -3.079678    1.715687
 ---------------------------------------------------------------------

 SCF Done:  E(RHF) =  -470.733230321     A.U. after   11 cycles
 E2 =    -0.1583985157D+01 EUMP2 =    -0.47231721547769D+03

 The electronic state is 1-A.
 Alpha  occ. eigenvalues --  -11.21673 -11.21640 -11.21629 -11.21604 -11.21460
 Alpha  occ. eigenvalues --  -11.21429 -11.21398 -11.21368 -11.21140 -11.21090
 Alpha  occ. eigenvalues --  -11.21075 -11.21072  -1.08501  -1.08442  -1.03582
 Alpha  occ. eigenvalues --   -1.03543  -0.96049  -0.95978  -0.87052  -0.87007
 Alpha  occ. eigenvalues --   -0.79648  -0.79609  -0.78303  -0.78268  -0.65341
 Alpha  occ. eigenvalues --   -0.64908  -0.60998  -0.60919  -0.59398  -0.59356
 Alpha  occ. eigenvalues --   -0.57672  -0.57585  -0.55495  -0.55124  -0.52725
 Alpha  occ. eigenvalues --   -0.52684  -0.52507  -0.52366  -0.50011  -0.49924
 Alpha  occ. eigenvalues --   -0.48019  -0.47896  -0.46730  -0.46652  -0.45995
 Alpha  occ. eigenvalues --   -0.45810  -0.45671  -0.45498  -0.43835  -0.43802
 Alpha virt. eigenvalues --    0.19020   0.22739   0.23720   0.24821   0.25758
 Alpha virt. eigenvalues --    0.25939   0.27028   0.27874   0.28760   0.29488
 Alpha virt. eigenvalues --    0.31034   0.31644   0.31691   0.31762   0.32029

 Mulliken charges:
               1
     1  C   -0.304926
     2  C   -0.302387
     3  C   -0.476261
     4  H    0.155189
     5  H    0.150392
     6  H    0.153140
     7  H    0.152345
     8  H    0.155275
     9  H    0.156573
    10  H    0.160227
    11  C   -0.298448
    12  C   -0.301259
    13  C   -0.475636
    14  H    0.148811
    15  H    0.150015
    16  H    0.153736
    17  H    0.152072
    18  H    0.155084
    19  H    0.155110
    20  H    0.160398
    21  C   -0.298138
    22  C   -0.299786
    23  C   -0.475753
    24  H    0.149587
    25  H    0.149832
    26  H    0.152003
    27  H    0.152161
    28  H    0.155231
    29  H    0.155227
    30  H    0.160430
    31  C   -0.303860
    32  C   -0.299012
    33  C   -0.484490
    34  H    0.154064
    35  H    0.149938
    36  H    0.151619
    37  H    0.152484
    38  H    0.155500
    39  H    0.162762
    40  H    0.160751
 Sum of Mulliken charges =  -0.00000

 Dipole moment (field-independent basis, Debye):
    X=             -0.0051    Y=              0.0019    Z=              0.0173  Tot=              0.0181
 Quadrupole moment (field-independent basis, Debye-Ang):
   XX=            -84.7224   YY=            -84.7976   ZZ=            -85.0964
   XY=              1.1479   XZ=             -0.8298   YZ=             -0.7138

 Normal termination of Gaussian 16 at Wed May  5 15:03:43 2021.
