 Gaussian 16, Revision A.03,
 Gaussian 16:  EM64L-G16RevA.03 25-Dec-2016

 -------------
 #p 6-31g* mp2
 -------------

 ------------------------------------------------------
 Input file generated by CHIRIPA (05-May-2021 14:57:23)
 ------------------------------------------------------
 Symbolic Z-matrix:
 Charge =  0 Multiplicity = 1

                         Standard orientation:
 ---------------------------------------------------------------------
 Center     Atomic      Atomic             Coordinates (Angstroms)
 Number     Number       Type             X           Y           Z
 ---------------------------------------------------------------------
      1          6           0        5.743522   -1.326330   -0.452516
      2          6           0        4.812648   -1.868590    0.439644
      3          6           0        3.681803   -1.138205    0.816836
      4          6           0        3.512476    0.137185    0.280182
      5          6           0        4.421986    0.704884   -0.610774
      6          6           0        5.545569   -0.043586   -0.973958
      7          1           0        6.619169   -1.900735   -0.740087
      8          1           0        4.963801   -2.864542    0.846187
      9          1           0        2.945319   -1.533799    1.505687
     10          1           0        4.244120    1.700271   -0.999342
     11          1           0        6.266838    0.380077   -1.667013
     12          7           0        2.319145    0.919984    0.672083
     13          8           0        2.192924    2.041432    0.185196
     14          8           0        1.532629    0.397271    1.458722
     15          6           0       -1.671561    1.406690   -0.676368
     16          6           0       -1.688514    0.059912   -1.053757
     17          6           0       -2.812079   -0.733496   -0.803455
     18          6           0       -3.906139   -0.144954   -0.171046
     19          6           0       -3.919654    1.193896    0.217012
     20          6           0       -2.785222    1.968393   -0.043303
     21          1           0       -0.794528    2.015684   -0.874698
     22          1           0       -0.825065   -0.378987   -1.545558
     23          1           0       -2.852034   -1.778755   -1.084981
     24          1           0       -4.795497    1.603242    0.705635
     25          1           0       -2.774868    3.014043    0.250899
     26          7           0       -5.101359   -0.974891    0.099239
     27          8           0       -6.052467   -0.432602    0.657767
     28          8           0       -5.064434   -2.151968   -0.252558
 ---------------------------------------------------------------------

 SCF Done:  E(RHF) =  -868.339843864     A.U. after   16 cycles
 E2 =    -0.2598776263D+01 EUMP2 =    -0.87093862012712D+03

 The electronic state is 1-A.
 Alpha  occ. eigenvalues --  -20.61855 -20.61801 -20.59993 -20.59985 -15.86839
 Alpha  occ. eigenvalues --  -15.85041 -11.31967 -11.30163 -11.28513 -11.28483
 Alpha  occ. eigenvalues --  -11.28182 -11.27454 -11.27433 -11.26772 -11.26735
 Alpha  occ. eigenvalues --  -11.26255 -11.25676 -11.25603  -1.60897  -1.59074
 Alpha  occ. eigenvalues --   -1.40451  -1.38635  -1.20114  -1.18311  -1.09552
 Alpha  occ. eigenvalues --   -1.07708  -1.05472  -1.03707  -0.96424  -0.94589
 Alpha  occ. eigenvalues --   -0.86880  -0.85099  -0.83258  -0.81457  -0.78339
 Alpha  occ. eigenvalues --   -0.76573  -0.73056  -0.72222  -0.71266  -0.71204
 Alpha  occ. eigenvalues --   -0.70395  -0.69318  -0.65761  -0.65462  -0.63958
 Alpha  occ. eigenvalues --   -0.63719  -0.62817  -0.61092  -0.55972  -0.54079
 Alpha  occ. eigenvalues --   -0.53816  -0.53552  -0.52009  -0.51808  -0.49834
 Alpha  occ. eigenvalues --   -0.49791  -0.48033  -0.48000  -0.45898  -0.44097
 Alpha  occ. eigenvalues --   -0.38081  -0.37067  -0.36172  -0.35319
 Alpha virt. eigenvalues --    0.04137   0.06000   0.10591   0.12355   0.15689
 Alpha virt. eigenvalues --    0.17577   0.20792   0.22543   0.26725   0.27657
 Alpha virt. eigenvalues --    0.28212   0.29555   0.30446   0.31803   0.32315

 Mulliken charges:
               1
     1  C   -0.169833
     2  C   -0.218582
     3  C   -0.171377
     4  C    0.156229
     5  C   -0.171535
     6  C   -0.218513
     7  H    0.228440
     8  H    0.226503
     9  H    0.277631
    10  H    0.275043
    11  H    0.225538
    12  N    0.486676
    13  O   -0.468214
    14  O   -0.454835
    15  C   -0.164714
    16  C   -0.216528
    17  C   -0.171814
    18  C    0.156860
    19  C   -0.171371
    20  C   -0.219594
    21  H    0.240507
    22  H    0.216421
    23  H    0.270583
    24  H    0.272341
    25  H    0.223019
    26  N    0.488411
    27  O   -0.462972
    28  O   -0.464319
 Sum of Mulliken charges =  -0.00000

 Dipole moment (field-independent basis, Debye):
    X=              8.9248    Y=              0.2158    Z=             -2.2496  Tot=              9.2065
 Quadrupole moment (field-independent basis, Debye-Ang):
   XX=           -108.1521   YY=           -100.9390   ZZ=           -103.9518
   XY=            -22.9242   XZ=             -3.0094   YZ=             -2.0992

 Normal termination of Gaussian 16 at Fri May  7 01:50:58 2021.
