 Gaussian 16, Revision A.03,
 Gaussian 16:  EM64L-G16RevA.03 25-Dec-2016

 -------------
 #p 6-31g* mp2
 -------------

 ------------------------------------------------------
 Input file generated by CHIRIPA (05-May-2021 14:53:15)
 ------------------------------------------------------
 Symbolic Z-matrix:
 Charge =  0 Multiplicity = 1

                         Standard orientation:
 ---------------------------------------------------------------------
 Center     Atomic      Atomic             Coordinates (Angstroms)
 Number     Number       Type             X           Y           Z
 ---------------------------------------------------------------------
      1          6           0       -3.512822   -0.897960   -0.383855
      2          6           0       -2.005062   -1.151977   -0.372915
      3          6           0       -1.649110   -2.610133   -0.664246
      4          1           0       -3.993410   -1.549598    0.358673
      5          1           0       -3.919212   -1.186984   -1.362991
      6          1           0       -1.601416   -0.861263    0.605436
      7          1           0       -1.527986   -0.499521   -1.115421
      8          1           0       -2.024534   -2.909129   -1.648248
      9          1           0       -2.098382   -3.272927    0.082387
     10          1           0       -0.566358   -2.769332   -0.651510
     11          6           0       -3.884467    0.555220   -0.094240
     12          6           0       -5.392227    0.809237   -0.105180
     13          6           0       -5.748179    2.267393    0.186150
     14          1           0       -3.478077    0.844244    0.884896
     15          1           0       -3.403880    1.206858   -0.836768
     16          1           0       -5.869303    0.156781    0.637326
     17          1           0       -5.795873    0.518523   -1.083532
     18          1           0       -5.298908    2.930186   -0.560483
     19          1           0       -5.372755    2.566389    1.170152
     20          1           0       -6.830931    2.426592    0.173414
     21          6           0        4.228622    2.112341   -0.624760
     22          6           0        4.506835    0.831262   -1.112566
     23          6           0        3.771322   -0.272228   -0.669982
     24          6           0        2.760111   -0.057387    0.265211
     25          6           0        2.459007    1.206639    0.770052
     26          6           0        3.207396    2.295617    0.313339
     27          1           0        4.804987    2.963921   -0.974057
     28          1           0        5.299354    0.685946   -1.841155
     29          1           0        3.965607   -1.274889   -1.031011
     30          1           0        1.662884    1.320079    1.495818
     31          1           0        2.989120    3.289378    0.693917
     32          7           0        1.974641   -1.217921    0.741233
     33          8           0        1.088914   -1.002122    1.565585
     34          8           0        2.259590   -2.321372    0.280975
 ---------------------------------------------------------------------

 SCF Done:  E(RHF) =  -669.536590292     A.U. after   15 cycles
 E2 =    -0.2092061727D+01 EUMP2 =    -0.67162865201829D+03

 The electronic state is 1-A.
 Alpha  occ. eigenvalues --  -20.61041 -20.61033 -15.86039 -11.31322 -11.27879
 Alpha  occ. eigenvalues --  -11.27875 -11.27612 -11.26877 -11.26867 -11.21146
 Alpha  occ. eigenvalues --  -11.20790 -11.20755 -11.20520 -11.20346 -11.19627
 Alpha  occ. eigenvalues --   -1.60076  -1.39635  -1.19485  -1.08898  -1.07672
 Alpha  occ. eigenvalues --   -1.04875  -1.02687  -0.95748  -0.95147  -0.86277
 Alpha  occ. eigenvalues --   -0.86169  -0.82585  -0.78807  -0.77652  -0.77432
 Alpha  occ. eigenvalues --   -0.72261  -0.71387  -0.70595  -0.65143  -0.64878
 Alpha  occ. eigenvalues --   -0.64309  -0.62222  -0.60085  -0.58564  -0.56728
 Alpha  occ. eigenvalues --   -0.55381  -0.54458  -0.53207  -0.52966  -0.51809
 Alpha  occ. eigenvalues --   -0.51584  -0.49127  -0.49027  -0.48988  -0.47130
 Alpha  occ. eigenvalues --   -0.45893  -0.45299  -0.44970  -0.44562  -0.42909
 Alpha  occ. eigenvalues --   -0.37459  -0.36472
 Alpha virt. eigenvalues --    0.04824   0.11183   0.16298   0.21295   0.23557
 Alpha virt. eigenvalues --    0.25208   0.27195   0.27376   0.27928   0.28488
 Alpha virt. eigenvalues --    0.28818   0.30850   0.32090   0.32220   0.32759

 Mulliken charges:
               1
     1  C   -0.297317
     2  C   -0.306527
     3  C   -0.479432
     4  H    0.149474
     5  H    0.145788
     6  H    0.170388
     7  H    0.140813
     8  H    0.145571
     9  H    0.154315
    10  H    0.176508
    11  C   -0.297291
    12  C   -0.298883
    13  C   -0.475155
    14  H    0.149013
    15  H    0.145764
    16  H    0.152167
    17  H    0.150944
    18  H    0.153094
    19  H    0.154162
    20  H    0.158914
    21  C   -0.170415
    22  C   -0.218644
    23  C   -0.170676
    24  C    0.159223
    25  C   -0.170170
    26  C   -0.218658
    27  H    0.226139
    28  H    0.223935
    29  H    0.275925
    30  H    0.275914
    31  H    0.224037
    32  N    0.488818
    33  O   -0.458139
    34  O   -0.459598
 Sum of Mulliken charges =  -0.00000

 Dipole moment (field-independent basis, Debye):
    X=              3.0963    Y=              4.0409    Z=             -1.5250  Tot=              5.3143
 Quadrupole moment (field-independent basis, Debye-Ang):
   XX=            -79.4793   YY=            -94.8073   ZZ=            -93.6500
   XY=             10.0329   XZ=             -6.2078   YZ=              2.6029

 Normal termination of Gaussian 16 at Thu May  6 08:59:44 2021.
