 Gaussian 16, Revision A.03,
 Gaussian 16:  EM64L-G16RevA.03 25-Dec-2016

 -------------
 #p 6-31g* mp2
 -------------

 ------------------------------------------------------
 Input file generated by CHIRIPA (05-May-2021 14:55:24)
 ------------------------------------------------------
 Symbolic Z-matrix:
 Charge =  0 Multiplicity = 1

                         Standard orientation:
 ---------------------------------------------------------------------
 Center     Atomic      Atomic             Coordinates (Angstroms)
 Number     Number       Type             X           Y           Z
 ---------------------------------------------------------------------
      1          6           0        0.842509   -0.751859    1.229022
      2          6           0        0.892584    0.253381    0.257680
      3          6           0        2.097536    0.566851   -0.378225
      4          6           0        3.238323   -0.148142   -0.016727
      5          6           0        3.220599   -1.155066    0.947161
      6          6           0        2.004627   -1.451640    1.570061
      7          1           0       -0.097807   -0.988807    1.717957
      8          1           0       -0.008354    0.798485   -0.009184
      9          1           0        2.164686    1.340328   -1.133634
     10          1           0        4.135326   -1.681122    1.192024
     11          1           0        1.968713   -2.232820    2.324059
     12          7           0        4.519784    0.174771   -0.683047
     13          8           0        5.510781   -0.469770   -0.346702
     14          8           0        4.508933    1.066298   -1.529038
     15          6           0       -3.353639    0.720081    0.194140
     16          6           0       -3.705778    2.202841    0.070020
     17          6           0       -2.653771    3.115148    0.701504
     18          1           0       -3.235442    0.465485    1.256286
     19          1           0       -2.379002    0.540857   -0.280578
     20          1           0       -4.680102    2.378961    0.543615
     21          1           0       -3.823338    2.453893   -0.991945
     22          1           0       -1.679830    2.968635    0.223410
     23          1           0       -2.541461    2.893278    1.767694
     24          1           0       -2.925497    4.170612    0.601400
     25          6           0       -4.395794   -0.204595   -0.432452
     26          6           0       -4.043655   -1.687354   -0.308332
     27          6           0       -5.095662   -2.599661   -0.939816
     28          1           0       -5.370431   -0.025370    0.042266
     29          1           0       -4.513992    0.050002   -1.494598
     30          1           0       -3.926095   -1.938406    0.753633
     31          1           0       -3.069332   -1.863474   -0.781927
     32          1           0       -5.207972   -2.377791   -2.006006
     33          1           0       -6.069603   -2.453148   -0.461722
     34          1           0       -4.823936   -3.655125   -0.839711
 ---------------------------------------------------------------------

 SCF Done:  E(RHF) =  -669.535519195     A.U. after   15 cycles
 E2 =    -0.2091688173D+01 EUMP2 =    -0.67162720736798D+03

 The electronic state is 1-A.
 Alpha  occ. eigenvalues --  -20.60714 -20.60709 -15.85767 -11.31118 -11.27691
 Alpha  occ. eigenvalues --  -11.27681 -11.27407 -11.26697 -11.26650 -11.22597
 Alpha  occ. eigenvalues --  -11.22532 -11.22455 -11.22271 -11.22061 -11.21735
 Alpha  occ. eigenvalues --   -1.59790  -1.39344  -1.19287  -1.09411  -1.08680
 Alpha  occ. eigenvalues --   -1.04692  -1.04424  -0.96880  -0.95518  -0.87890
 Alpha  occ. eigenvalues --   -0.86091  -0.82355  -0.80496  -0.79262  -0.77404
 Alpha  occ. eigenvalues --   -0.71985  -0.71113  -0.70385  -0.66075  -0.64936
 Alpha  occ. eigenvalues --   -0.64685  -0.62097  -0.61762  -0.60241  -0.58495
 Alpha  occ. eigenvalues --   -0.56177  -0.55176  -0.53529  -0.53313  -0.53014
 Alpha  occ. eigenvalues --   -0.52808  -0.50822  -0.48832  -0.48741  -0.48715
 Alpha  occ. eigenvalues --   -0.47519  -0.46754  -0.46681  -0.44753  -0.44702
 Alpha  occ. eigenvalues --   -0.37261  -0.36294
 Alpha virt. eigenvalues --    0.05129   0.11308   0.16614   0.19120   0.22520
 Alpha virt. eigenvalues --    0.23245   0.24799   0.25557   0.26687   0.28403
 Alpha virt. eigenvalues --    0.29626   0.30117   0.30987   0.31298   0.32047

 Mulliken charges:
               1
     1  C   -0.173819
     2  C   -0.226931
     3  C   -0.172648
     4  C    0.158917
     5  C   -0.171225
     6  C   -0.218586
     7  H    0.227176
     8  H    0.234973
     9  H    0.275452
    10  H    0.275314
    11  H    0.223085
    12  N    0.488002
    13  O   -0.460689
    14  O   -0.460629
    15  C   -0.304448
    16  C   -0.300633
    17  C   -0.478004
    18  H    0.147549
    19  H    0.144177
    20  H    0.156294
    21  H    0.155368
    22  H    0.149803
    23  H    0.156457
    24  H    0.166532
    25  C   -0.297787
    26  C   -0.301176
    27  C   -0.476108
    28  H    0.153015
    29  H    0.153105
    30  H    0.149289
    31  H    0.151760
    32  H    0.157567
    33  H    0.156809
    34  H    0.162038
 Sum of Mulliken charges =  -0.00000

 Dipole moment (field-independent basis, Debye):
    X=             -4.7963    Y=             -1.1034    Z=              2.3250  Tot=              5.4431
 Quadrupole moment (field-independent basis, Debye-Ang):
   XX=           -122.6528   YY=            -92.5292   ZZ=            -93.2535
   XY=             -5.5984   XZ=              8.6064   YZ=             -2.8645

 Normal termination of Gaussian 16 at Thu May  6 00:01:23 2021.
