 Gaussian 16, Revision A.03,
 Gaussian 16:  EM64L-G16RevA.03 25-Dec-2016

 -------------
 #p 6-31g* mp2
 -------------

 ------------------------------------------------------
 Input file generated by CHIRIPA (05-May-2021 14:53:12)
 ------------------------------------------------------
 Symbolic Z-matrix:
 Charge =  0 Multiplicity = 1

                         Standard orientation:
 ---------------------------------------------------------------------
 Center     Atomic      Atomic             Coordinates (Angstroms)
 Number     Number       Type             X           Y           Z
 ---------------------------------------------------------------------
      1          6           0       -3.415423   -0.346168   -0.308970
      2          6           0       -2.628781   -1.588044    0.111651
      3          6           0       -1.248904   -1.663432   -0.542605
      4          1           0       -3.525626   -0.342540   -1.402033
      5          1           0       -2.836401    0.551147   -0.050215
      6          1           0       -3.209732   -2.482715   -0.146567
      7          1           0       -2.520604   -1.588814    1.203857
      8          1           0       -0.647460   -0.788581   -0.275209
      9          1           0       -1.340504   -1.687560   -1.633306
     10          1           0       -0.703829   -2.558865   -0.228036
     11          6           0       -4.796980   -0.256666    0.336801
     12          6           0       -5.583622    0.985211   -0.083820
     13          6           0       -6.963499    1.060599    0.570436
     14          1           0       -5.376002   -1.153981    0.078046
     15          1           0       -4.686777   -0.260293    1.429864
     16          1           0       -5.691800    0.985981   -1.176026
     17          1           0       -5.002671    1.879881    0.174398
     18          1           0       -6.871899    1.084727    1.661136
     19          1           0       -7.564943    0.185747    0.303040
     20          1           0       -7.508574    1.956032    0.255867
     21          6           0        3.372509   -2.275390    0.174530
     22          6           0        4.273656   -1.461654    0.869003
     23          6           0        4.191869   -0.069257    0.773665
     24          6           0        3.192063    0.478223   -0.028796
     25          6           0        2.279513   -0.305822   -0.732937
     26          6           0        2.380065   -1.695899   -0.622817
     27          1           0        3.443332   -3.356136    0.254332
     28          1           0        5.045420   -1.908931    1.488977
     29          1           0        4.876521    0.584268    1.300518
     30          1           0        1.520908    0.169166   -1.343118
     31          1           0        1.678862   -2.325387   -1.163283
     32          7           0        3.095546    1.951063   -0.137549
     33          8           0        2.205659    2.408809   -0.851136
     34          8           0        3.911612    2.619842    0.492856
 ---------------------------------------------------------------------

 SCF Done:  E(RHF) =  -669.534729238     A.U. after   15 cycles
 E2 =    -0.2092128242D+01 EUMP2 =    -0.67162685748011D+03

 The electronic state is 1-A.
 Alpha  occ. eigenvalues --  -20.60741 -20.60735 -15.85792 -11.31136 -11.27692
 Alpha  occ. eigenvalues --  -11.27657 -11.27421 -11.26721 -11.26648 -11.22028
 Alpha  occ. eigenvalues --  -11.21787 -11.21637 -11.21599 -11.21497 -11.21087
 Alpha  occ. eigenvalues --   -1.59817  -1.39371  -1.19302  -1.08704  -1.08648
 Alpha  occ. eigenvalues --   -1.04706  -1.03803  -0.96292  -0.95541  -0.87337
 Alpha  occ. eigenvalues --   -0.86095  -0.82374  -0.79898  -0.78428  -0.77407
 Alpha  occ. eigenvalues --   -0.72011  -0.71140  -0.70415  -0.65277  -0.64949
 Alpha  occ. eigenvalues --   -0.64718  -0.62079  -0.61187  -0.59669  -0.57874
 Alpha  occ. eigenvalues --   -0.55586  -0.55204  -0.53278  -0.53021  -0.52681
 Alpha  occ. eigenvalues --   -0.52541  -0.50210  -0.48768  -0.48766  -0.48193
 Alpha  occ. eigenvalues --   -0.46885  -0.45982  -0.45872  -0.44780  -0.44046
 Alpha  occ. eigenvalues --   -0.37287  -0.36241
 Alpha virt. eigenvalues --    0.05079   0.11272   0.16541   0.20894   0.22719
 Alpha virt. eigenvalues --    0.24078   0.26027   0.26374   0.27099   0.28047
 Alpha virt. eigenvalues --    0.29255   0.29802   0.31169   0.31448   0.32265

 Mulliken charges:
               1
     1  C   -0.300156
     2  C   -0.299638
     3  C   -0.482843
     4  H    0.149868
     5  H    0.154225
     6  H    0.152170
     7  H    0.154334
     8  H    0.160890
     9  H    0.153178
    10  H    0.154341
    11  C   -0.298660
    12  C   -0.300261
    13  C   -0.475913
    14  H    0.148881
    15  H    0.150265
    16  H    0.152219
    17  H    0.154606
    18  H    0.155440
    19  H    0.154554
    20  H    0.161314
    21  C   -0.172567
    22  C   -0.218198
    23  C   -0.171685
    24  C    0.157734
    25  C   -0.173216
    26  C   -0.215420
    27  H    0.225095
    28  H    0.223089
    29  H    0.275214
    30  H    0.276242
    31  H    0.228135
    32  N    0.488117
    33  O   -0.460805
    34  O   -0.460550
 Sum of Mulliken charges =  -0.00000

 Dipole moment (field-independent basis, Debye):
    X=              0.2257    Y=             -5.1492    Z=              0.4126  Tot=              5.1706
 Quadrupole moment (field-independent basis, Debye-Ang):
   XX=            -90.4990   YY=           -100.2425   ZZ=            -93.0123
   XY=            -15.9425   XZ=              4.6785   YZ=              0.9665

 Normal termination of Gaussian 16 at Thu May  6 17:01:59 2021.
