 Gaussian 16, Revision A.03,
 Gaussian 16:  EM64L-G16RevA.03 25-Dec-2016

 -------------
 #p 6-31g* mp2
 -------------

 ------------------------------------------------------
 Input file generated by CHIRIPA (05-May-2021 14:53:11)
 ------------------------------------------------------
 Symbolic Z-matrix:
 Charge =  0 Multiplicity = 1

                         Standard orientation:
 ---------------------------------------------------------------------
 Center     Atomic      Atomic             Coordinates (Angstroms)
 Number     Number       Type             X           Y           Z
 ---------------------------------------------------------------------
      1          6           0       -3.256624    1.221379   -0.356003
      2          6           0       -1.880256    1.415628    0.281071
      3          6           0       -1.146373    2.643060   -0.259874
      4          1           0       -3.140206    1.130516   -1.444642
      5          1           0       -3.864275    2.119918   -0.180549
      6          1           0       -1.275857    0.516435    0.105660
      7          1           0       -1.999946    1.505848    1.368339
      8          1           0       -1.725914    3.552552   -0.071308
      9          1           0       -0.997711    2.557517   -1.341161
     10          1           0       -0.164766    2.762935    0.209101
     11          6           0       -4.002605   -0.001634    0.174543
     12          6           0       -5.378973   -0.195884   -0.462531
     13          6           0       -6.112856   -1.423315    0.078414
     14          1           0       -3.394955   -0.900173   -0.000910
     15          1           0       -4.119023    0.089229    1.263183
     16          1           0       -5.259283   -0.286103   -1.549798
     17          1           0       -5.983372    0.703310   -0.287120
     18          1           0       -6.261518   -1.337773    1.159702
     19          1           0       -5.533315   -2.332807   -0.110151
     20          1           0       -7.094463   -1.543190   -0.390561
     21          6           0        0.581697   -1.529031    0.492524
     22          6           0        1.199745   -1.673849   -0.753897
     23          6           0        2.448548   -1.094965   -0.998714
     24          6           0        3.053539   -0.374704    0.030120
     25          6           0        2.463256   -0.212625    1.282552
     26          6           0        1.214310   -0.800166    1.504986
     27          1           0       -0.388458   -1.982084    0.674009
     28          1           0        0.710790   -2.239347   -1.542047
     29          1           0        2.949515   -1.191378   -1.954305
     30          1           0        2.975324    0.356866    2.048636
     31          1           0        0.736683   -0.686053    2.473952
     32          7           0        4.375666    0.242716   -0.217209
     33          8           0        4.887851    0.872392    0.705728
     34          8           0        4.874730    0.085284   -1.329318
 ---------------------------------------------------------------------

 SCF Done:  E(RHF) =  -669.534942399     A.U. after   15 cycles
 E2 =    -0.2092844792D+01 EUMP2 =    -0.67162778719075D+03

 The electronic state is 1-A.
 Alpha  occ. eigenvalues --  -20.60799 -20.60794 -15.85854 -11.31240 -11.27820
 Alpha  occ. eigenvalues --  -11.27812 -11.27552 -11.26840 -11.26820 -11.22200
 Alpha  occ. eigenvalues --  -11.22106 -11.22008 -11.21892 -11.21652 -11.21365
 Alpha  occ. eigenvalues --   -1.59875  -1.39428  -1.19427  -1.09018  -1.08814
 Alpha  occ. eigenvalues --   -1.04827  -1.04032  -0.96483  -0.95651  -0.87495
 Alpha  occ. eigenvalues --   -0.86224  -0.82477  -0.80116  -0.78850  -0.77512
 Alpha  occ. eigenvalues --   -0.72072  -0.71198  -0.70543  -0.65649  -0.65076
 Alpha  occ. eigenvalues --   -0.64823  -0.62169  -0.61446  -0.59862  -0.58109
 Alpha  occ. eigenvalues --   -0.55784  -0.55337  -0.53263  -0.53056  -0.52916
 Alpha  occ. eigenvalues --   -0.52906  -0.50424  -0.48833  -0.48826  -0.48426
 Alpha  occ. eigenvalues --   -0.47158  -0.46377  -0.46314  -0.44829  -0.44308
 Alpha  occ. eigenvalues --   -0.37294  -0.36427
 Alpha virt. eigenvalues --    0.04984   0.11198   0.16375   0.20357   0.22633
 Alpha virt. eigenvalues --    0.23841   0.25198   0.26350   0.27191   0.27539
 Alpha virt. eigenvalues --    0.29586   0.30727   0.31096   0.31493   0.31639

 Mulliken charges:
               1
     1  C   -0.297989
     2  C   -0.306918
     3  C   -0.474969
     4  H    0.150141
     5  H    0.151731
     6  H    0.156272
     7  H    0.147192
     8  H    0.155889
     9  H    0.156242
    10  H    0.162349
    11  C   -0.297118
    12  C   -0.299837
    13  C   -0.475780
    14  H    0.139884
    15  H    0.149482
    16  H    0.152795
    17  H    0.154618
    18  H    0.155596
    19  H    0.152765
    20  H    0.162611
    21  C   -0.173958
    22  C   -0.219139
    23  C   -0.170401
    24  C    0.158853
    25  C   -0.171717
    26  C   -0.214864
    27  H    0.228593
    28  H    0.223630
    29  H    0.275881
    30  H    0.275892
    31  H    0.224752
    32  N    0.488081
    33  O   -0.460288
    34  O   -0.460270
 Sum of Mulliken charges =  -0.00000

 Dipole moment (field-independent basis, Debye):
    X=             -4.6536    Y=             -2.1441    Z=              0.8549  Tot=              5.1947
 Quadrupole moment (field-independent basis, Debye-Ang):
   XX=           -123.9716   YY=            -93.4977   ZZ=            -89.9626
   XY=             -5.8146   XZ=              2.5515   YZ=              2.1791

 Normal termination of Gaussian 16 at Wed May  5 21:43:29 2021.
