 Gaussian 16, Revision A.03,
 Gaussian 16:  EM64L-G16RevA.03 25-Dec-2016

 -------------
 #p 6-31g* mp2
 -------------

 ------------------------------------------------------
 Input file generated by CHIRIPA (05-May-2021 14:53:18)
 ------------------------------------------------------
 Symbolic Z-matrix:
 Charge =  0 Multiplicity = 1

                         Standard orientation:
 ---------------------------------------------------------------------
 Center     Atomic      Atomic             Coordinates (Angstroms)
 Number     Number       Type             X           Y           Z
 ---------------------------------------------------------------------
      1          6           0       -3.460789    1.042441   -0.021478
      2          6           0       -2.067851    1.460294    0.450865
      3          6           0       -1.935675    2.972099    0.637329
      4          1           0       -3.687942    1.551346   -0.968243
      5          1           0       -4.206763    1.389603    0.706805
      6          1           0       -1.324603    1.111243   -0.277395
      7          1           0       -1.843911    0.950187    1.396517
      8          1           0       -2.655164    3.333095    1.379366
      9          1           0       -2.132906    3.495066   -0.304057
     10          1           0       -0.932113    3.248703    0.975283
     11          6           0       -3.608535   -0.466011   -0.212450
     12          6           0       -5.001473   -0.883863   -0.684793
     13          6           0       -5.133649   -2.395668   -0.871257
     14          1           0       -2.862562   -0.813173   -0.940734
     15          1           0       -3.381383   -0.974916    0.734314
     16          1           0       -5.225414   -0.373757   -1.630445
     17          1           0       -5.744721   -0.534812    0.043466
     18          1           0       -4.936419   -2.918635    0.070129
     19          1           0       -4.414161   -2.756665   -1.613294
     20          1           0       -6.137211   -2.672272   -1.209212
     21          6           0        1.718642   -0.784188    2.319822
     22          6           0        1.274270    0.328824    1.598531
     23          6           0        1.844807    0.648060    0.362763
     24          6           0        2.862270   -0.171124   -0.124059
     25          6           0        3.326725   -1.286759    0.570873
     26          6           0        2.741647   -1.587011    1.804599
     27          1           0        1.269788   -1.024805    3.279004
     28          1           0        0.479955    0.954093    1.996209
     29          1           0        1.519950    1.503792   -0.216556
     30          1           0        4.120274   -1.891240    0.148615
     31          1           0        3.088761   -2.452011    2.362571
     32          7           0        3.473969    0.156788   -1.431231
     33          8           0        4.368888   -0.580803   -1.838312
     34          8           0        3.046916    1.145188   -2.023961
 ---------------------------------------------------------------------

 SCF Done:  E(RHF) =  -669.534855017     A.U. after   15 cycles
 E2 =    -0.2092406171D+01 EUMP2 =    -0.67162726118816D+03

 The electronic state is 1-A.
 Alpha  occ. eigenvalues --  -20.60739 -20.60734 -15.85790 -11.31141 -11.27697
 Alpha  occ. eigenvalues --  -11.27678 -11.27426 -11.26725 -11.26650 -11.22413
 Alpha  occ. eigenvalues --  -11.21943 -11.21927 -11.21900 -11.21793 -11.21339
 Alpha  occ. eigenvalues --   -1.59814  -1.39368  -1.19304  -1.08971  -1.08702
 Alpha  occ. eigenvalues --   -1.04714  -1.04087  -0.96524  -0.95543  -0.87533
 Alpha  occ. eigenvalues --   -0.86105  -0.82388  -0.80191  -0.78769  -0.77403
 Alpha  occ. eigenvalues --   -0.72009  -0.71137  -0.70417  -0.65621  -0.64955
 Alpha  occ. eigenvalues --   -0.64710  -0.62130  -0.61474  -0.59877  -0.58125
 Alpha  occ. eigenvalues --   -0.55783  -0.55200  -0.53244  -0.53069  -0.52915
 Alpha  occ. eigenvalues --   -0.52794  -0.50439  -0.48775  -0.48766  -0.48465
 Alpha  occ. eigenvalues --   -0.47192  -0.46289  -0.46189  -0.44777  -0.44331
 Alpha  occ. eigenvalues --   -0.37285  -0.36266
 Alpha virt. eigenvalues --    0.05081   0.11295   0.16538   0.19660   0.22662
 Alpha virt. eigenvalues --    0.23760   0.25627   0.26004   0.27079   0.27934
 Alpha virt. eigenvalues --    0.29358   0.29856   0.30875   0.31358   0.31750

 Mulliken charges:
               1
     1  C   -0.298135
     2  C   -0.305828
     3  C   -0.479051
     4  H    0.153626
     5  H    0.150205
     6  H    0.156725
     7  H    0.143583
     8  H    0.158414
     9  H    0.162973
    10  H    0.153644
    11  C   -0.298799
    12  C   -0.300234
    13  C   -0.476028
    14  H    0.152846
    15  H    0.147317
    16  H    0.153880
    17  H    0.151786
    18  H    0.154171
    19  H    0.156878
    20  H    0.161532
    21  C   -0.172634
    22  C   -0.217436
    23  C   -0.174403
    24  C    0.158461
    25  C   -0.171471
    26  C   -0.218173
    27  H    0.225075
    28  H    0.230055
    29  H    0.275815
    30  H    0.275291
    31  H    0.223128
    32  N    0.488098
    33  O   -0.460562
    34  O   -0.460749
 Sum of Mulliken charges =  -0.00000

 Dipole moment (field-independent basis, Debye):
    X=             -2.3266    Y=             -1.1542    Z=              4.5189  Tot=              5.2121
 Quadrupole moment (field-independent basis, Debye-Ang):
   XX=           -105.3721   YY=            -92.5434   ZZ=            -95.6643
   XY=             -6.1349   XZ=             13.7464   YZ=             -1.4721

 Normal termination of Gaussian 16 at Thu May  6 07:36:58 2021.
