 Gaussian 16, Revision A.03,
 Gaussian 16:  EM64L-G16RevA.03 25-Dec-2016

 -------------
 #p 6-31g* mp2
 -------------

 ------------------------------------------------------
 Input file generated by CHIRIPA (05-May-2021 14:53:18)
 ------------------------------------------------------
 Symbolic Z-matrix:
 Charge =  0 Multiplicity = 1

                         Standard orientation:
 ---------------------------------------------------------------------
 Center     Atomic      Atomic             Coordinates (Angstroms)
 Number     Number       Type             X           Y           Z
 ---------------------------------------------------------------------
      1          6           0       -3.908258    0.703348    0.268562
      2          6           0       -2.853253    1.761902   -0.054569
      3          6           0       -3.189750    3.131467    0.536070
      4          1           0       -4.883127    1.038540   -0.111203
      5          1           0       -4.010177    0.618281    1.359328
      6          1           0       -2.752363    1.843962   -1.144387
      7          1           0       -1.880746    1.424064    0.325841
      8          1           0       -3.270485    3.071557    1.626251
      9          1           0       -4.147054    3.493841    0.147670
     10          1           0       -2.422407    3.873045    0.292950
     11          6           0       -3.585934   -0.671133   -0.315079
     12          6           0       -4.640939   -1.729687    0.008051
     13          6           0       -4.304442   -3.099252   -0.582588
     14          1           0       -3.484014   -0.586066   -1.405846
     15          1           0       -2.611064   -1.006325    0.064686
     16          1           0       -5.613446   -1.391849   -0.372359
     17          1           0       -4.741829   -1.811747    1.097869
     18          1           0       -3.347138   -3.461626   -0.194187
     19          1           0       -4.223707   -3.039342   -1.672768
     20          1           0       -5.071785   -3.840830   -0.339468
     21          6           0        5.335931   -0.764196    0.009920
     22          6           0        4.417293   -1.367616    0.875082
     23          6           0        3.080290   -0.959206    0.888204
     24          6           0        2.694572    0.060079    0.018969
     25          6           0        3.586101    0.680780   -0.854643
     26          6           0        4.918140    0.256278   -0.850665
     27          1           0        6.372620   -1.087710    0.006368
     28          1           0        4.738931   -2.160367    1.544516
     29          1           0        2.348168   -1.409149    1.547724
     30          1           0        3.235714    1.468537   -1.510453
     31          1           0        5.629372    0.726706   -1.523636
     32          7           0        1.281775    0.500963    0.023809
     33          8           0        0.967084    1.401062   -0.751710
     34          8           0        0.515866   -0.061918    0.803029
 ---------------------------------------------------------------------

 SCF Done:  E(RHF) =  -669.537084052     A.U. after   15 cycles
 E2 =    -0.2092100024D+01 EUMP2 =    -0.67162918407564D+03

 The electronic state is 1-A.
 Alpha  occ. eigenvalues --  -20.61197 -20.61184 -15.86173 -11.31428 -11.27974
 Alpha  occ. eigenvalues --  -11.27969 -11.27696 -11.26961 -11.26951 -11.20514
 Alpha  occ. eigenvalues --  -11.20215 -11.19899 -11.19794 -11.19503 -11.19424
 Alpha  occ. eigenvalues --   -1.60213  -1.39773  -1.19581  -1.09000  -1.06929
 Alpha  occ. eigenvalues --   -1.04964  -1.02081  -0.95852  -0.94608  -0.86368
 Alpha  occ. eigenvalues --   -0.85639  -0.82690  -0.78163  -0.77754  -0.76644
 Alpha  occ. eigenvalues --   -0.72375  -0.71509  -0.70689  -0.65236  -0.64968
 Alpha  occ. eigenvalues --   -0.63565  -0.62311  -0.59489  -0.58005  -0.56177
 Alpha  occ. eigenvalues --   -0.55470  -0.53922  -0.53299  -0.53054  -0.51353
 Alpha  occ. eigenvalues --   -0.51026  -0.49282  -0.49141  -0.48565  -0.46450
 Alpha  occ. eigenvalues --   -0.45245  -0.45116  -0.44230  -0.43916  -0.42325
 Alpha  occ. eigenvalues --   -0.37555  -0.36560
 Alpha virt. eigenvalues --    0.04769   0.11097   0.16283   0.21235   0.24272
 Alpha virt. eigenvalues --    0.25688   0.27165   0.28004   0.28213   0.29060
 Alpha virt. eigenvalues --    0.29373   0.30836   0.32353   0.32712   0.33128

 Mulliken charges:
               1
     1  C   -0.296367
     2  C   -0.310410
     3  C   -0.475140
     4  H    0.141603
     5  H    0.145216
     6  H    0.147498
     7  H    0.185312
     8  H    0.149958
     9  H    0.147027
    10  H    0.159379
    11  C   -0.301431
    12  C   -0.298300
    13  C   -0.474567
    14  H    0.145742
    15  H    0.163060
    16  H    0.148364
    17  H    0.149586
    18  H    0.154133
    19  H    0.153202
    20  H    0.155857
    21  C   -0.170275
    22  C   -0.218572
    23  C   -0.170553
    24  C    0.159545
    25  C   -0.170587
    26  C   -0.218613
    27  H    0.226501
    28  H    0.224293
    29  H    0.275874
    30  H    0.276197
    31  H    0.224322
    32  N    0.488784
    33  O   -0.456572
    34  O   -0.460067
 Sum of Mulliken charges =  -0.00000

 Dipole moment (field-independent basis, Debye):
    X=              5.5809    Y=             -1.5747    Z=             -0.0118  Tot=              5.7988
 Quadrupole moment (field-independent basis, Debye-Ang):
   XX=            -69.9127   YY=            -95.0733   ZZ=            -92.1742
   XY=             -3.0549   XZ=             -0.4236   YZ=             -3.6565

 Normal termination of Gaussian 16 at Wed May  5 23:40:04 2021.
