 Gaussian 16, Revision A.03,
 Gaussian 16:  EM64L-G16RevA.03 25-Dec-2016

 -------------
 #p 6-31g* mp2
 -------------

 ------------------------------------------------------
 Input file generated by CHIRIPA (05-May-2021 14:57:25)
 ------------------------------------------------------
 Symbolic Z-matrix:
 Charge =  0 Multiplicity = 1

                         Standard orientation:
 ---------------------------------------------------------------------
 Center     Atomic      Atomic             Coordinates (Angstroms)
 Number     Number       Type             X           Y           Z
 ---------------------------------------------------------------------
      1          6           0       -1.924739    2.070028    0.644741
      2          6           0       -2.824909    2.093591   -0.425615
      3          6           0       -3.614510    0.976493   -0.714005
      4          6           0       -3.477613   -0.152486    0.092194
      5          6           0       -2.589814   -0.206754    1.165581
      6          6           0       -1.810267    0.921954    1.435528
      7          1           0       -1.315263    2.942326    0.861606
      8          1           0       -2.915922    2.983824   -1.041445
      9          1           0       -4.319387    0.967565   -1.536493
     10          1           0       -2.521352   -1.108679    1.761619
     11          1           0       -1.112022    0.900807    2.267425
     12          7           0       -4.308207   -1.341253   -0.203349
     13          8           0       -4.168803   -2.323645    0.521985
     14          8           0       -5.082902   -1.268108   -1.154734
     15          6           0        2.007000    2.092391   -0.300116
     16          6           0        1.359340    0.855139   -0.379287
     17          6           0        2.088252   -0.334680   -0.292293
     18          6           0        3.469660   -0.249921   -0.125511
     19          6           0        4.143790    0.967476   -0.043162
     20          6           0        3.394710    2.144518   -0.132601
     21          1           0        1.432931    3.011708   -0.368644
     22          1           0        0.281738    0.811620   -0.509369
     23          1           0        1.612313   -1.306024   -0.350523
     24          1           0        5.219171    0.978870    0.086627
     25          1           0        3.900359    3.103968   -0.070794
     26          7           0        4.252002   -1.502766   -0.032120
     27          8           0        5.468035   -1.401089    0.114717
     28          8           0        3.634353   -2.562701   -0.107525
 ---------------------------------------------------------------------

 SCF Done:  E(RHF) =  -868.335924030     A.U. after   16 cycles
 E2 =    -0.2602472003D+01 EUMP2 =    -0.87093839603281D+03

 The electronic state is 1-A.
 Alpha  occ. eigenvalues --  -20.61463 -20.61454 -20.61051 -20.61044 -15.86521
 Alpha  occ. eigenvalues --  -15.86101 -11.32163 -11.31578 -11.28724 -11.28688
 Alpha  occ. eigenvalues --  -11.28555 -11.28130 -11.28080 -11.27966 -11.27849
 Alpha  occ. eigenvalues --  -11.27774 -11.27234 -11.27012  -1.60531  -1.60123
 Alpha  occ. eigenvalues --   -1.40076  -1.39673  -1.20378  -1.19747  -1.09747
 Alpha  occ. eigenvalues --   -1.09142  -1.05780  -1.05140  -0.96514  -0.95962
 Alpha  occ. eigenvalues --   -0.87168  -0.86544  -0.83306  -0.82775  -0.78293
 Alpha  occ. eigenvalues --   -0.77794  -0.72730  -0.72319  -0.71861  -0.71511
 Alpha  occ. eigenvalues --   -0.71448  -0.70884  -0.66000  -0.65744  -0.65393
 Alpha  occ. eigenvalues --   -0.65168  -0.63072  -0.62509  -0.56342  -0.55721
 Alpha  occ. eigenvalues --   -0.54351  -0.53832  -0.53488  -0.52957  -0.49511
 Alpha  occ. eigenvalues --   -0.49471  -0.49083  -0.49068  -0.45419  -0.45053
 Alpha  occ. eigenvalues --   -0.38454  -0.37792  -0.37430  -0.36615
 Alpha virt. eigenvalues --    0.04150   0.04711   0.09945   0.11161   0.15450
 Alpha virt. eigenvalues --    0.16206   0.19544   0.21648   0.25484   0.26494
 Alpha virt. eigenvalues --    0.27299   0.29003   0.30054   0.31730   0.32175

 Mulliken charges:
               1
     1  C   -0.186062
     2  C   -0.217960
     3  C   -0.170776
     4  C    0.159821
     5  C   -0.173161
     6  C   -0.221053
     7  H    0.224706
     8  H    0.225984
     9  H    0.279393
    10  H    0.280752
    11  H    0.230595
    12  N    0.487825
    13  O   -0.456331
    14  O   -0.457535
    15  C   -0.177880
    16  C   -0.225843
    17  C   -0.174939
    18  C    0.159902
    19  C   -0.171911
    20  C   -0.217358
    21  H    0.216745
    22  H    0.237561
    23  H    0.277878
    24  H    0.276584
    25  H    0.223293
    26  N    0.487700
    27  O   -0.459633
    28  O   -0.458296
 Sum of Mulliken charges =  -0.00000

 Dipole moment (field-independent basis, Debye):
    X=             -0.0866    Y=              8.3850    Z=              0.7429  Tot=              8.4182
 Quadrupole moment (field-independent basis, Debye-Ang):
   XX=           -139.6093   YY=           -106.8604   ZZ=           -102.5228
   XY=              2.3929   XZ=             -1.8313   YZ=             -2.1101

 Normal termination of Gaussian 16 at Fri May  7 11:08:50 2021.
