 Gaussian 16, Revision A.03,
 Gaussian 16:  EM64L-G16RevA.03 25-Dec-2016

 -------------
 #p 6-31g* mp2
 -------------

 ------------------------------------------------------
 Input file generated by CHIRIPA (05-May-2021 14:55:18)
 ------------------------------------------------------
 Symbolic Z-matrix:
 Charge =  0 Multiplicity = 1

                         Standard orientation:
 ---------------------------------------------------------------------
 Center     Atomic      Atomic             Coordinates (Angstroms)
 Number     Number       Type             X           Y           Z
 ---------------------------------------------------------------------
      1          6           0       -4.386030    2.322142    0.382658
      2          6           0       -4.753340    1.553458   -0.726725
      3          6           0       -4.149374    0.315095   -0.963852
      4          6           0       -3.177427   -0.125968   -0.067151
      5          6           0       -2.789908    0.616768    1.047058
      6          6           0       -3.407212    1.852172    1.264454
      7          1           0       -4.860386    3.282982    0.559200
      8          1           0       -5.513200    1.915929   -1.413218
      9          1           0       -4.414709   -0.300396   -1.814843
     10          1           0       -2.029251    0.228950    1.713704
     11          1           0       -3.119960    2.447002    2.126839
     12          7           0       -2.530976   -1.435401   -0.307743
     13          8           0       -1.677383   -1.801615    0.497182
     14          8           0       -2.890120   -2.070728   -1.296688
     15          6           0        4.448403    0.498420   -0.348421
     16          6           0        5.867148    0.924199    0.030872
     17          6           0        6.342991    2.152752   -0.745030
     18          1           0        4.410742    0.290258   -1.426472
     19          1           0        3.760925    1.336332   -0.167667
     20          1           0        6.551534    0.085276   -0.149239
     21          1           0        5.901483    1.131187    1.108180
     22          1           0        5.683581    3.006260   -0.557141
     23          1           0        6.337325    1.954407   -1.821704
     24          1           0        7.359480    2.439782   -0.458283
     25          6           0        3.958561   -0.728416    0.418817
     26          6           0        2.539816   -1.154196    0.039525
     27          6           0        2.063972   -2.382749    0.815428
     28          1           0        4.646039   -1.566328    0.238064
     29          1           0        3.996222   -0.520254    1.496869
     30          1           0        2.505482   -1.361184   -1.037783
     31          1           0        1.855431   -0.315273    0.219636
     32          1           0        2.069639   -2.184403    1.892101
     33          1           0        2.723384   -3.236256    0.627538
     34          1           0        1.047484   -2.669779    0.528680
 ---------------------------------------------------------------------

 SCF Done:  E(RHF) =  -669.536215540     A.U. after   15 cycles
 E2 =    -0.2090829518D+01 EUMP2 =    -0.67162704505751D+03

 The electronic state is 1-A.
 Alpha  occ. eigenvalues --  -20.60950 -20.60941 -15.85978 -11.31292 -11.27854
 Alpha  occ. eigenvalues --  -11.27851 -11.27592 -11.26861 -11.26851 -11.21275
 Alpha  occ. eigenvalues --  -11.20945 -11.20835 -11.20760 -11.20692 -11.19722
 Alpha  occ. eigenvalues --   -1.60007  -1.39563  -1.19460  -1.08866  -1.07861
 Alpha  occ. eigenvalues --   -1.04855  -1.02864  -0.95712  -0.95290  -0.86314
 Alpha  occ. eigenvalues --   -0.86253  -0.82543  -0.78966  -0.77649  -0.77595
 Alpha  occ. eigenvalues --   -0.72206  -0.71319  -0.70569  -0.65116  -0.64859
 Alpha  occ. eigenvalues --   -0.64507  -0.62202  -0.60281  -0.58694  -0.56867
 Alpha  occ. eigenvalues --   -0.55360  -0.54611  -0.53187  -0.52948  -0.51926
 Alpha  occ. eigenvalues --   -0.51720  -0.49280  -0.48960  -0.48945  -0.47248
 Alpha  occ. eigenvalues --   -0.46038  -0.45185  -0.45124  -0.44962  -0.43082
 Alpha  occ. eigenvalues --   -0.37438  -0.36456
 Alpha virt. eigenvalues --    0.04917   0.11197   0.16401   0.21302   0.23360
 Alpha virt. eigenvalues --    0.24995   0.27068   0.27297   0.27908   0.28238
 Alpha virt. eigenvalues --    0.28851   0.30877   0.31911   0.32219   0.32556

 Mulliken charges:
               1
     1  C   -0.170562
     2  C   -0.218584
     3  C   -0.170546
     4  C    0.157978
     5  C   -0.170914
     6  C   -0.218548
     7  H    0.225996
     8  H    0.223820
     9  H    0.275867
    10  H    0.275974
    11  H    0.223798
    12  N    0.490881
    13  O   -0.462319
    14  O   -0.458993
    15  C   -0.297250
    16  C   -0.299038
    17  C   -0.475224
    18  H    0.149449
    19  H    0.146463
    20  H    0.152018
    21  H    0.150640
    22  H    0.153495
    23  H    0.155046
    24  H    0.159072
    25  C   -0.297375
    26  C   -0.297257
    27  C   -0.485446
    28  H    0.148845
    29  H    0.146833
    30  H    0.151466
    31  H    0.147305
    32  H    0.148067
    33  H    0.149047
    34  H    0.189996
 Sum of Mulliken charges =  -0.00000

 Dipole moment (field-independent basis, Debye):
    X=             -2.5750    Y=              4.5380    Z=              0.8095  Tot=              5.2801
 Quadrupole moment (field-independent basis, Debye-Ang):
   XX=            -80.2066   YY=            -96.8092   ZZ=            -91.5525
   XY=            -15.0055   XZ=             -0.0348   YZ=              1.2111

 Normal termination of Gaussian 16 at Thu May  6 19:02:08 2021.
