 Gaussian 16, Revision A.03,
 Gaussian 16:  EM64L-G16RevA.03 25-Dec-2016

 -------------
 #p 6-31g* mp2
 -------------

 ------------------------------------------------------
 Input file generated by CHIRIPA (05-May-2021 14:51:09)
 ------------------------------------------------------
 Symbolic Z-matrix:
 Charge =  0 Multiplicity = 1

                         Standard orientation:
 ---------------------------------------------------------------------
 Center     Atomic      Atomic             Coordinates (Angstroms)
 Number     Number       Type             X           Y           Z
 ---------------------------------------------------------------------
      1          6           0        2.331610   -1.623263   -0.035462
      2          6           0        0.907360   -2.105214   -0.313348
      3          6           0        0.799749   -3.629306   -0.371272
      4          1           0        3.001570   -2.010193   -0.815452
      5          1           0        2.677639   -2.052587    0.914980
      6          1           0        0.563613   -1.674000   -1.262300
      7          1           0        0.240681   -1.716932    0.467287
      8          1           0        1.116867   -4.074226    0.577455
      9          1           0        1.441635   -4.031050   -1.161959
     10          1           0       -0.226829   -3.951988   -0.570955
     11          6           0        2.455292   -0.101840    0.025396
     12          6           0        3.879542    0.380111    0.303282
     13          6           0        3.987153    1.904203    0.361206
     14          1           0        2.109263    0.327484   -0.925046
     15          1           0        1.785333    0.285091    0.805386
     16          1           0        4.546221   -0.008171   -0.477354
     17          1           0        4.223289   -0.051103    1.252233
     18          1           0        3.345267    2.305947    1.151893
     19          1           0        3.670035    2.349123   -0.587521
     20          1           0        5.013732    2.226885    0.560889
     21          6           0       -2.517033    0.145387   -0.226992
     22          6           0       -3.438967   -0.642780    0.704037
     23          6           0       -3.676644   -2.075699    0.226496
     24          1           0       -2.951562    0.160928   -1.235896
     25          1           0       -1.554952   -0.379072   -0.309072
     26          1           0       -4.398538   -0.116266    0.785428
     27          1           0       -3.002289   -0.656282    1.710887
     28          1           0       -2.730302   -2.622484    0.162742
     29          1           0       -4.134485   -2.079400   -0.767974
     30          1           0       -4.338372   -2.620995    0.906665
     31          6           0       -2.269869    1.579715    0.237058
     32          6           0       -1.347935    2.367883   -0.693971
     33          6           0       -1.110258    3.800802   -0.216430
     34          1           0       -3.231950    2.104174    0.319138
     35          1           0       -1.835342    1.564176    1.245963
     36          1           0       -1.784613    2.381385   -1.700819
     37          1           0       -0.388365    1.841369   -0.775361
     38          1           0       -0.652418    3.804503    0.778041
     39          1           0       -2.056600    4.347587   -0.152676
     40          1           0       -0.448531    4.346099   -0.896598
 ---------------------------------------------------------------------

 SCF Done:  E(RHF) =  -470.732858002     A.U. after   11 cycles
 E2 =    -0.1584568709D+01 EUMP2 =    -0.47231742671045D+03

 The electronic state is 1-A.
 Alpha  occ. eigenvalues --  -11.21708 -11.21678 -11.21541 -11.21512 -11.21502
 Alpha  occ. eigenvalues --  -11.21452 -11.21298 -11.21184 -11.21164 -11.21122
 Alpha  occ. eigenvalues --  -11.21037 -11.21006  -1.08545  -1.08332  -1.03631
 Alpha  occ. eigenvalues --   -1.03453  -0.96067  -0.95907  -0.87093  -0.86916
 Alpha  occ. eigenvalues --   -0.79742  -0.79496  -0.78483  -0.78029  -0.65197
 Alpha  occ. eigenvalues --   -0.64955  -0.61052  -0.60854  -0.59458  -0.59245
 Alpha  occ. eigenvalues --   -0.57674  -0.57521  -0.55352  -0.55210  -0.52765
 Alpha  occ. eigenvalues --   -0.52608  -0.52554  -0.52281  -0.50016  -0.49865
 Alpha  occ. eigenvalues --   -0.48101  -0.47779  -0.46753  -0.46541  -0.46341
 Alpha  occ. eigenvalues --   -0.45798  -0.45677  -0.45039  -0.43871  -0.43698
 Alpha virt. eigenvalues --    0.20401   0.21917   0.23533   0.24691   0.25603
 Alpha virt. eigenvalues --    0.26156   0.26289   0.27614   0.28887   0.29754
 Alpha virt. eigenvalues --    0.30772   0.31108   0.31534   0.31734   0.32166

 Mulliken charges:
               1
     1  C   -0.297604
     2  C   -0.305348
     3  C   -0.477817
     4  H    0.150157
     5  H    0.149792
     6  H    0.154343
     7  H    0.154894
     8  H    0.155555
     9  H    0.155851
    10  H    0.162497
    11  C   -0.301490
    12  C   -0.299591
    13  C   -0.475862
    14  H    0.151729
    15  H    0.149971
    16  H    0.152283
    17  H    0.152173
    18  H    0.155284
    19  H    0.155499
    20  H    0.160616
    21  C   -0.309285
    22  C   -0.298894
    23  C   -0.478999
    24  H    0.148448
    25  H    0.162403
    26  H    0.151752
    27  H    0.150697
    28  H    0.157654
    29  H    0.155131
    30  H    0.160043
    31  C   -0.297143
    32  C   -0.304069
    33  C   -0.475139
    34  H    0.149026
    35  H    0.148215
    36  H    0.151203
    37  H    0.156516
    38  H    0.154719
    39  H    0.154861
    40  H    0.159930
 Sum of Mulliken charges =  -0.00000

 Dipole moment (field-independent basis, Debye):
    X=              0.0959    Y=             -0.0495    Z=             -0.0196  Tot=              0.1097
 Quadrupole moment (field-independent basis, Debye-Ang):
   XX=            -84.3138   YY=            -87.0141   ZZ=            -83.5235
   XY=             -0.7780   XZ=              0.1812   YZ=             -0.4672

 Normal termination of Gaussian 16 at Wed May  5 18:09:39 2021.
