 Gaussian 16, Revision A.03,
 Gaussian 16:  EM64L-G16RevA.03 25-Dec-2016

 -------------
 #p 6-31g* mp2
 -------------

 ------------------------------------------------------
 Input file generated by CHIRIPA (05-May-2021 14:53:15)
 ------------------------------------------------------
 Symbolic Z-matrix:
 Charge =  0 Multiplicity = 1

                         Standard orientation:
 ---------------------------------------------------------------------
 Center     Atomic      Atomic             Coordinates (Angstroms)
 Number     Number       Type             X           Y           Z
 ---------------------------------------------------------------------
      1          6           0       -4.243778    0.072581   -0.303861
      2          6           0       -5.464561   -0.436838    0.463059
      3          6           0       -6.723062    0.385656    0.184720
      4          1           0       -4.063400    1.123013   -0.037403
      5          1           0       -4.462833    0.056398   -1.380499
      6          1           0       -5.242774   -0.421004    1.537850
      7          1           0       -5.641939   -1.486237    0.194888
      8          1           0       -6.971850    0.360426   -0.881146
      9          1           0       -6.570417    1.431711    0.469446
     10          1           0       -7.583620    0.004179    0.743088
     11          6           0       -2.977859   -0.739473   -0.036009
     12          6           0       -1.757076   -0.230054   -0.802929
     13          6           0       -0.498575   -1.052549   -0.524590
     14          1           0       -2.758804   -0.723290    1.040629
     15          1           0       -3.158237   -1.789906   -0.302468
     16          1           0       -1.579698    0.819344   -0.534758
     17          1           0       -1.978863   -0.245889   -1.877720
     18          1           0       -0.651220   -2.098604   -0.809316
     19          1           0       -0.249787   -1.027318    0.541276
     20          1           0        0.361983   -0.671071   -1.082958
     21          6           0        1.974041    2.637158    0.119125
     22          6           0        2.506692    2.077150   -1.046720
     23          6           0        2.978902    0.761266   -1.050754
     24          6           0        2.902828    0.030739    0.134080
     25          6           0        2.377634    0.560562    1.311682
     26          6           0        1.911323    1.878414    1.292537
     27          1           0        1.609508    3.660133    0.113256
     28          1           0        2.556656    2.664048   -1.959462
     29          1           0        3.396113    0.302908   -1.939158
     30          1           0        2.341067   -0.049269    2.206215
     31          1           0        1.498168    2.310723    2.199432
     32          7           0        3.399614   -1.363371    0.142079
     33          8           0        3.321414   -1.986044    1.198866
     34          8           0        3.857786   -1.807002   -0.908590
 ---------------------------------------------------------------------

 SCF Done:  E(RHF) =  -669.534347827     A.U. after   15 cycles
 E2 =    -0.2093646447D+01 EUMP2 =    -0.67162799427399D+03

 The electronic state is 1-A.
 Alpha  occ. eigenvalues --  -20.60761 -20.60754 -15.85806 -11.31163 -11.27764
 Alpha  occ. eigenvalues --  -11.27761 -11.27553 -11.26836 -11.26826 -11.21706
 Alpha  occ. eigenvalues --  -11.21637 -11.21506 -11.21416 -11.21194 -11.20880
 Alpha  occ. eigenvalues --   -1.59829  -1.39384  -1.19397  -1.08781  -1.08501
 Alpha  occ. eigenvalues --   -1.04810  -1.03573  -0.96021  -0.95606  -0.87041
 Alpha  occ. eigenvalues --   -0.86202  -0.82444  -0.79652  -0.78321  -0.77482
 Alpha  occ. eigenvalues --   -0.72033  -0.71153  -0.70505  -0.65139  -0.65048
 Alpha  occ. eigenvalues --   -0.64812  -0.62155  -0.60984  -0.59443  -0.57659
 Alpha  occ. eigenvalues --   -0.55372  -0.55299  -0.53496  -0.52899  -0.52472
 Alpha  occ. eigenvalues --   -0.52215  -0.49928  -0.48792  -0.48786  -0.47960
 Alpha  occ. eigenvalues --   -0.46687  -0.45858  -0.45796  -0.44777  -0.43850
 Alpha  occ. eigenvalues --   -0.37289  -0.36383
 Alpha virt. eigenvalues --    0.05025   0.11151   0.16533   0.21348   0.22768
 Alpha virt. eigenvalues --    0.24227   0.26524   0.27179   0.27448   0.27738
 Alpha virt. eigenvalues --    0.28383   0.30797   0.31307   0.31730   0.31817

 Mulliken charges:
               1
     1  C   -0.297800
     2  C   -0.299615
     3  C   -0.475603
     4  H    0.146749
     5  H    0.149643
     6  H    0.151491
     7  H    0.153285
     8  H    0.155376
     9  H    0.153892
    10  H    0.160731
    11  C   -0.298263
    12  C   -0.298698
    13  C   -0.479484
    14  H    0.148300
    15  H    0.151927
    16  H    0.147346
    17  H    0.151062
    18  H    0.159130
    19  H    0.153643
    20  H    0.161621
    21  C   -0.171371
    22  C   -0.216098
    23  C   -0.176215
    24  C    0.165034
    25  C   -0.170451
    26  C   -0.217756
    27  H    0.225794
    28  H    0.223866
    29  H    0.275735
    30  H    0.275382
    31  H    0.223465
    32  N    0.489243
    33  O   -0.460608
    34  O   -0.460752
 Sum of Mulliken charges =  -0.00000

 Dipole moment (field-independent basis, Debye):
    X=             -1.6842    Y=              4.8882    Z=             -0.0206  Tot=              5.1702
 Quadrupole moment (field-independent basis, Debye-Ang):
   XX=           -106.4850   YY=            -94.8514   ZZ=            -89.5637
   XY=             15.2046   XZ=             -1.6064   YZ=              0.7630

 Normal termination of Gaussian 16 at Thu May  6 02:41:29 2021.
