 Gaussian 16, Revision A.03,
 Gaussian 16:  EM64L-G16RevA.03 25-Dec-2016

 -------------
 #p 6-31g* mp2
 -------------

 ------------------------------------------------------
 Input file generated by CHIRIPA (05-May-2021 14:55:21)
 ------------------------------------------------------
 Symbolic Z-matrix:
 Charge =  0 Multiplicity = 1

                         Standard orientation:
 ---------------------------------------------------------------------
 Center     Atomic      Atomic             Coordinates (Angstroms)
 Number     Number       Type             X           Y           Z
 ---------------------------------------------------------------------
      1          6           0       -1.198467   -1.011006    2.359986
      2          6           0       -2.023209   -1.799872    1.551276
      3          6           0       -2.524162   -1.299326    0.345852
      4          6           0       -2.178670    0.000192   -0.021813
      5          6           0       -1.359194    0.810739    0.762255
      6          6           0       -0.869672    0.289489    1.963594
      7          1           0       -0.813754   -1.407884    3.294802
      8          1           0       -2.280211   -2.810206    1.856598
      9          1           0       -3.164622   -1.888352   -0.299345
     10          1           0       -1.120451    1.814183    0.431319
     11          1           0       -0.229373    0.904406    2.589644
     12          7           0       -2.702956    0.541056   -1.295779
     13          8           0       -2.383845    1.689062   -1.597255
     14          8           0       -3.423076   -0.193261   -1.968715
     15          6           0        3.066679   -0.434460   -0.603854
     16          6           0        2.480182   -1.831398   -0.397530
     17          6           0        3.268508   -2.917611   -1.129976
     18          1           0        3.091875   -0.209411   -1.678873
     19          1           0        4.109809   -0.427671   -0.258557
     20          1           0        1.438043   -1.835181   -0.741836
     21          1           0        2.456202   -2.053072    0.677133
     22          1           0        4.305686   -2.942885   -0.780370
     23          1           0        3.281741   -2.723755   -2.207402
     24          1           0        2.831944   -3.908220   -0.968840
     25          6           0        2.289509    0.662171    0.122187
     26          6           0        2.876007    2.059108   -0.084138
     27          6           0        2.087680    3.145321    0.648308
     28          1           0        1.246380    0.655381   -0.223111
     29          1           0        2.264314    0.437121    1.197204
     30          1           0        2.899986    2.280782   -1.158801
     31          1           0        3.918147    2.062891    0.260168
     32          1           0        2.074447    2.951466    1.725734
     33          1           0        1.050502    3.170595    0.298703
     34          1           0        2.524244    4.135931    0.487171
 ---------------------------------------------------------------------

 SCF Done:  E(RHF) =  -669.533955484     A.U. after   15 cycles
 E2 =    -0.2094681127D+01 EUMP2 =    -0.67162863661177D+03

 The electronic state is 1-A.
 Alpha  occ. eigenvalues --  -20.60805 -20.60799 -15.85856 -11.31198 -11.27746
 Alpha  occ. eigenvalues --  -11.27717 -11.27474 -11.26769 -11.26721 -11.21930
 Alpha  occ. eigenvalues --  -11.21815 -11.21675 -11.21641 -11.21571 -11.21250
 Alpha  occ. eigenvalues --   -1.59881  -1.39435  -1.19367  -1.08771  -1.08708
 Alpha  occ. eigenvalues --   -1.04767  -1.03849  -0.96314  -0.95604  -0.87336
 Alpha  occ. eigenvalues --   -0.86162  -0.82442  -0.79915  -0.78572  -0.77454
 Alpha  occ. eigenvalues --   -0.72073  -0.71207  -0.70478  -0.65398  -0.65007
 Alpha  occ. eigenvalues --   -0.64723  -0.62142  -0.61228  -0.59668  -0.57943
 Alpha  occ. eigenvalues --   -0.55632  -0.55252  -0.53289  -0.52955  -0.52881
 Alpha  occ. eigenvalues --   -0.52646  -0.50266  -0.48833  -0.48830  -0.48236
 Alpha  occ. eigenvalues --   -0.46928  -0.46066  -0.45965  -0.44838  -0.44077
 Alpha  occ. eigenvalues --   -0.37334  -0.36212
 Alpha virt. eigenvalues --    0.05030   0.11159   0.16507   0.19803   0.22880
 Alpha virt. eigenvalues --    0.23737   0.25030   0.26135   0.27343   0.28178
 Alpha virt. eigenvalues --    0.28962   0.30215   0.31464   0.31558   0.32233

 Mulliken charges:
               1
     1  C   -0.171671
     2  C   -0.217861
     3  C   -0.171661
     4  C    0.159578
     5  C   -0.180150
     6  C   -0.212542
     7  H    0.225354
     8  H    0.223425
     9  H    0.275414
    10  H    0.281003
    11  H    0.225234
    12  N    0.487864
    13  O   -0.461247
    14  O   -0.460148
    15  C   -0.298577
    16  C   -0.299165
    17  C   -0.475880
    18  H    0.153159
    19  H    0.148697
    20  H    0.154699
    21  H    0.147086
    22  H    0.154745
    23  H    0.157711
    24  H    0.159200
    25  C   -0.302166
    26  C   -0.299206
    27  C   -0.480425
    28  H    0.157714
    29  H    0.140981
    30  H    0.157670
    31  H    0.152290
    32  H    0.148219
    33  H    0.154451
    34  H    0.166206
 Sum of Mulliken charges =  -0.00000

 Dipole moment (field-independent basis, Debye):
    X=              1.8786    Y=             -1.8926    Z=              4.4054  Tot=              5.1497
 Quadrupole moment (field-independent basis, Debye-Ang):
   XX=           -102.2631   YY=            -91.9494   ZZ=            -94.9932
   XY=              7.0995   XZ=             -9.0202   YZ=              0.1882

 Normal termination of Gaussian 16 at Thu May  6 09:20:12 2021.
