 Gaussian 16, Revision A.03,
 Gaussian 16:  EM64L-G16RevA.03 25-Dec-2016

 -------------
 #p 6-31g* mp2
 -------------

 ------------------------------------------------------
 Input file generated by CHIRIPA (05-May-2021 14:57:21)
 ------------------------------------------------------
 Symbolic Z-matrix:
 Charge =  0 Multiplicity = 1

                         Standard orientation:
 ---------------------------------------------------------------------
 Center     Atomic      Atomic             Coordinates (Angstroms)
 Number     Number       Type             X           Y           Z
 ---------------------------------------------------------------------
      1          6           0       -4.787214    2.248891    0.278065
      2          6           0       -3.578710    2.011396    0.941116
      3          6           0       -2.938212    0.773828    0.828262
      4          6           0       -3.537003   -0.208106    0.040516
      5          6           0       -4.740342   -0.001944   -0.632362
      6          6           0       -5.363157    1.243236   -0.505177
      7          1           0       -5.277900    3.213220    0.371299
      8          1           0       -3.129116    2.790549    1.550075
      9          1           0       -2.001990    0.563091    1.330752
     10          1           0       -5.164190   -0.798158   -1.232207
     11          1           0       -6.301630    1.424860   -1.021245
     12          7           0       -2.868297   -1.522293   -0.086544
     13          8           0       -3.416373   -2.370902   -0.786624
     14          8           0       -1.808750   -1.678859    0.516353
     15          6           0        5.286104    1.893899   -0.308209
     16          6           0        5.721418    0.651965    0.165735
     17          6           0        4.822153   -0.409196    0.306474
     18          6           0        3.488772   -0.192404   -0.037602
     19          6           0        3.024503    1.033233   -0.512531
     20          6           0        3.941407    2.080241   -0.645235
     21          1           0        5.991526    2.712737   -0.414417
     22          1           0        6.765138    0.504369    0.428240
     23          1           0        5.132197   -1.381012    0.670978
     24          1           0        1.977858    1.150020   -0.766131
     25          1           0        3.600510    3.043658   -1.013557
     26          7           0        2.527425   -1.308316    0.107140
     27          8           0        1.357960   -1.091704   -0.202811
     28          8           0        2.961587   -2.378449    0.527798
 ---------------------------------------------------------------------

 SCF Done:  E(RHF) =  -868.334872332     A.U. after   16 cycles
 E2 =    -0.2600542454D+01 EUMP2 =    -0.87093541478535D+03

 The electronic state is 1-A.
 Alpha  occ. eigenvalues --  -20.60079 -20.60030 -20.59779 -20.59635 -15.85121
 Alpha  occ. eigenvalues --  -15.84758 -11.30839 -11.30547 -11.27470 -11.27432
 Alpha  occ. eigenvalues --  -11.27250 -11.27177 -11.27151 -11.27012 -11.26557
 Alpha  occ. eigenvalues --  -11.26521 -11.26295 -11.26281  -1.59130  -1.58780
 Alpha  occ. eigenvalues --   -1.38677  -1.38316  -1.19044  -1.18767  -1.08371
 Alpha  occ. eigenvalues --   -1.08088  -1.04500  -1.04233  -0.95146  -0.94844
 Alpha  occ. eigenvalues --   -0.85881  -0.85609  -0.81984  -0.81666  -0.76977
 Alpha  occ. eigenvalues --   -0.76642  -0.71377  -0.70902  -0.70480  -0.70159
 Alpha  occ. eigenvalues --   -0.70099  -0.69871  -0.64686  -0.64507  -0.64402
 Alpha  occ. eigenvalues --   -0.64245  -0.61847  -0.61570  -0.54986  -0.54731
 Alpha  occ. eigenvalues --   -0.52810  -0.52599  -0.52543  -0.52331  -0.48109
 Alpha  occ. eigenvalues --   -0.48075  -0.47738  -0.47707  -0.44017  -0.43590
 Alpha  occ. eigenvalues --   -0.37042  -0.36777  -0.36122  -0.35860
 Alpha virt. eigenvalues --    0.05561   0.05902   0.11527   0.11790   0.16992
 Alpha virt. eigenvalues --    0.17308   0.21601   0.21882   0.27467   0.27744
 Alpha virt. eigenvalues --    0.28469   0.28878   0.31071   0.31438   0.32650

 Mulliken charges:
               1
     1  C   -0.172300
     2  C   -0.219477
     3  C   -0.172017
     4  C    0.159344
     5  C   -0.171667
     6  C   -0.218752
     7  H    0.222453
     8  H    0.219700
     9  H    0.278764
    10  H    0.275099
    11  H    0.221163
    12  N    0.486540
    13  O   -0.465915
    14  O   -0.442929
    15  C   -0.171932
    16  C   -0.218369
    17  C   -0.171290
    18  C    0.159429
    19  C   -0.172311
    20  C   -0.218482
    21  H    0.223838
    22  H    0.222497
    23  H    0.276142
    24  H    0.273345
    25  H    0.220669
    26  N    0.487075
    27  O   -0.450371
    28  O   -0.460246
 Sum of Mulliken charges =  -0.00000

 Dipole moment (field-independent basis, Debye):
    X=              1.1359    Y=              8.2915    Z=             -0.0147  Tot=              8.3689
 Quadrupole moment (field-independent basis, Debye-Ang):
   XX=            -61.5958   YY=           -107.4092   ZZ=           -103.8541
   XY=             -3.9251   XZ=              0.3816   YZ=             -0.1219

 Normal termination of Gaussian 16 at Thu May  6 08:05:30 2021.
