 Gaussian 16, Revision A.03,
 Gaussian 16:  EM64L-G16RevA.03 25-Dec-2016

 -------------
 #p 6-31g* mp2
 -------------

 ------------------------------------------------------
 Input file generated by CHIRIPA (05-May-2021 14:53:17)
 ------------------------------------------------------
 Symbolic Z-matrix:
 Charge =  0 Multiplicity = 1

                         Standard orientation:
 ---------------------------------------------------------------------
 Center     Atomic      Atomic             Coordinates (Angstroms)
 Number     Number       Type             X           Y           Z
 ---------------------------------------------------------------------
      1          6           0       -2.312616   -0.657393   -0.575836
      2          6           0       -3.167075   -1.587913    0.285569
      3          6           0       -2.857292   -3.065843    0.045672
      4          1           0       -2.472212   -0.899654   -1.635450
      5          1           0       -1.250775   -0.848862   -0.367920
      6          1           0       -4.227014   -1.393783    0.077103
      7          1           0       -3.005571   -1.343281    1.343250
      8          1           0       -1.808079   -3.281250    0.272285
      9          1           0       -3.036461   -3.332038   -1.001056
     10          1           0       -3.479389   -3.713176    0.671624
     11          6           0       -2.610717    0.823365   -0.347321
     12          6           0       -1.756259    1.753885   -1.208725
     13          6           0       -2.066042    3.231816   -0.968828
     14          1           0       -3.672558    1.014834   -0.555236
     15          1           0       -2.451121    1.065626    0.712294
     16          1           0       -1.917762    1.509253   -2.266406
     17          1           0       -0.696320    1.559755   -1.000259
     18          1           0       -1.886872    3.498010    0.077900
     19          1           0       -3.115255    3.447222   -1.195441
     20          1           0       -1.443945    3.879148   -1.594780
     21          6           0        0.588224    1.015188    2.209223
     22          6           0        0.470744   -0.358180    1.971360
     23          6           0        1.205587   -0.967243    0.949794
     24          6           0        2.052236   -0.169246    0.181891
     25          6           0        2.190953    1.201493    0.394316
     26          6           0        1.446441    1.789276    1.421332
     27          1           0        0.013626    1.480058    3.004917
     28          1           0       -0.194980   -0.961821    2.581666
     29          1           0        1.133756   -2.028326    0.743974
     30          1           0        2.862779    1.777159   -0.230725
     31          1           0        1.539682    2.856076    1.603789
     32          7           0        2.835299   -0.802770   -0.902480
     33          8           0        3.574274   -0.077719   -1.564940
     34          8           0        2.695260   -2.012380   -1.069416
 ---------------------------------------------------------------------

 SCF Done:  E(RHF) =  -669.534410881     A.U. after   15 cycles
 E2 =    -0.2096269159D+01 EUMP2 =    -0.67163068004032D+03

 The electronic state is 1-A.
 Alpha  occ. eigenvalues --  -20.60887 -20.60882 -15.85945 -11.31383 -11.27946
 Alpha  occ. eigenvalues --  -11.27934 -11.27694 -11.26978 -11.26964 -11.21989
 Alpha  occ. eigenvalues --  -11.21700 -11.21595 -11.21451 -11.21440 -11.21376
 Alpha  occ. eigenvalues --   -1.59962  -1.39513  -1.19576  -1.08950  -1.08646
 Alpha  occ. eigenvalues --   -1.04989  -1.03806  -0.96256  -0.95766  -0.87276
 Alpha  occ. eigenvalues --   -0.86362  -0.82593  -0.79865  -0.78468  -0.77629
 Alpha  occ. eigenvalues --   -0.72160  -0.71289  -0.70657  -0.65393  -0.65202
 Alpha  occ. eigenvalues --   -0.64942  -0.62326  -0.61216  -0.59622  -0.57866
 Alpha  occ. eigenvalues --   -0.55620  -0.55447  -0.53328  -0.53054  -0.52939
 Alpha  occ. eigenvalues --   -0.52674  -0.50230  -0.48925  -0.48911  -0.48196
 Alpha  occ. eigenvalues --   -0.46936  -0.46005  -0.45843  -0.44899  -0.44027
 Alpha  occ. eigenvalues --   -0.37520  -0.36446
 Alpha virt. eigenvalues --    0.04870   0.10936   0.16281   0.19727   0.23124
 Alpha virt. eigenvalues --    0.23316   0.25880   0.26034   0.27565   0.28144
 Alpha virt. eigenvalues --    0.28773   0.29808   0.31215   0.31512   0.32277

 Mulliken charges:
               1
     1  C   -0.305069
     2  C   -0.299993
     3  C   -0.474665
     4  H    0.152350
     5  H    0.156994
     6  H    0.154010
     7  H    0.142385
     8  H    0.149396
     9  H    0.160581
    10  H    0.160393
    11  C   -0.295443
    12  C   -0.304144
    13  C   -0.474839
    14  H    0.148999
    15  H    0.141925
    16  H    0.154114
    17  H    0.157350
    18  H    0.147942
    19  H    0.156138
    20  H    0.160461
    21  C   -0.170754
    22  C   -0.214441
    23  C   -0.178170
    24  C    0.163160
    25  C   -0.173108
    26  C   -0.216896
    27  H    0.226829
    28  H    0.226199
    29  H    0.277658
    30  H    0.276792
    31  H    0.225198
    32  N    0.488197
    33  O   -0.459761
    34  O   -0.459787
 Sum of Mulliken charges =  -0.00000

 Dipole moment (field-independent basis, Debye):
    X=             -2.6020    Y=              2.2029    Z=              3.7775  Tot=              5.0885
 Quadrupole moment (field-independent basis, Debye-Ang):
   XX=           -105.5773   YY=            -93.0886   ZZ=            -93.1031
   XY=              7.5081   XZ=              7.6660   YZ=             -1.2526

 Normal termination of Gaussian 16 at Wed May  5 15:43:32 2021.
