 Gaussian 16, Revision A.03,
 Gaussian 16:  EM64L-G16RevA.03 25-Dec-2016

 -------------
 #p 6-31g* mp2
 -------------

 ------------------------------------------------------
 Input file generated by CHIRIPA (05-May-2021 14:55:23)
 ------------------------------------------------------
 Symbolic Z-matrix:
 Charge =  0 Multiplicity = 1

                         Standard orientation:
 ---------------------------------------------------------------------
 Center     Atomic      Atomic             Coordinates (Angstroms)
 Number     Number       Type             X           Y           Z
 ---------------------------------------------------------------------
      1          6           0       -1.143341   -0.927394    2.304734
      2          6           0       -1.480675   -1.954243    1.416867
      3          6           0       -2.185992   -1.674416    0.242655
      4          6           0       -2.539655   -0.350543   -0.013420
      5          6           0       -2.218122    0.694389    0.851463
      6          6           0       -1.512490    0.391320    2.019701
      7          1           0       -0.595311   -1.153798    3.214570
      8          1           0       -1.195296   -2.979299    1.635646
      9          1           0       -2.459993   -2.450081   -0.462104
     10          1           0       -2.516372    1.706465    0.606172
     11          1           0       -1.251858    1.190805    2.707406
     12          7           0       -3.286509   -0.042000   -1.253343
     13          8           0       -3.586461    1.132565   -1.455981
     14          8           0       -3.557799   -0.980572   -1.999080
     15          6           0        2.390716    0.808877   -0.297922
     16          6           0        2.286307    2.230308    0.255810
     17          6           0        0.874861    2.807009    0.141658
     18          1           0        2.076911    0.808362   -1.350762
     19          1           0        1.684295    0.160828    0.239104
     20          1           0        2.993703    2.875188   -0.281160
     21          1           0        2.600579    2.227473    1.307399
     22          1           0        0.159855    2.187490    0.692624
     23          1           0        0.555214    2.838884   -0.904961
     24          1           0        0.822911    3.823763    0.543370
     25          6           0        3.795690    0.218695   -0.190870
     26          6           0        3.900098   -1.202736   -0.744601
     27          6           0        5.311543   -1.779438   -0.630450
     28          1           0        4.502109    0.866745   -0.727896
     29          1           0        4.109494    0.219210    0.861970
     30          1           0        3.585827   -1.199902   -1.796192
     31          1           0        3.192702   -1.847617   -0.207633
     32          1           0        5.631191   -1.811313    0.416168
     33          1           0        6.026549   -1.159918   -1.181416
     34          1           0        5.363495   -2.796192   -1.032162
 ---------------------------------------------------------------------

 SCF Done:  E(RHF) =  -669.534464787     A.U. after   15 cycles
 E2 =    -0.2093423640D+01 EUMP2 =    -0.67162788842738D+03

 The electronic state is 1-A.
 Alpha  occ. eigenvalues --  -20.60803 -20.60798 -15.85858 -11.31251 -11.27836
 Alpha  occ. eigenvalues --  -11.27826 -11.27611 -11.26866 -11.26853 -11.21849
 Alpha  occ. eigenvalues --  -11.21841 -11.21619 -11.21532 -11.21303 -11.21226
 Alpha  occ. eigenvalues --   -1.59877  -1.39430  -1.19454  -1.08840  -1.08650
 Alpha  occ. eigenvalues --   -1.04878  -1.03759  -0.96214  -0.95661  -0.87235
 Alpha  occ. eigenvalues --   -0.86252  -0.82504  -0.79836  -0.78461  -0.77531
 Alpha  occ. eigenvalues --   -0.72077  -0.71201  -0.70555  -0.65307  -0.65103
 Alpha  occ. eigenvalues --   -0.64858  -0.62236  -0.61164  -0.59577  -0.57827
 Alpha  occ. eigenvalues --   -0.55544  -0.55350  -0.53293  -0.52952  -0.52902
 Alpha  occ. eigenvalues --   -0.52558  -0.50149  -0.48839  -0.48828  -0.48134
 Alpha  occ. eigenvalues --   -0.46866  -0.45993  -0.45918  -0.44826  -0.44011
 Alpha  occ. eigenvalues --   -0.37431  -0.36344
 Alpha virt. eigenvalues --    0.04983   0.11142   0.16338   0.21079   0.22703
 Alpha virt. eigenvalues --    0.24179   0.26383   0.26597   0.27284   0.28037
 Alpha virt. eigenvalues --    0.28662   0.30624   0.31426   0.31626   0.32074

 Mulliken charges:
               1
     1  C   -0.171841
     2  C   -0.218915
     3  C   -0.170658
     4  C    0.158459
     5  C   -0.167750
     6  C   -0.220401
     7  H    0.226143
     8  H    0.223918
     9  H    0.276089
    10  H    0.278176
    11  H    0.225397
    12  N    0.488073
    13  O   -0.459866
    14  O   -0.460353
    15  C   -0.300855
    16  C   -0.298280
    17  C   -0.484436
    18  H    0.152770
    19  H    0.150028
    20  H    0.153683
    21  H    0.147307
    22  H    0.155183
    23  H    0.161381
    24  H    0.158137
    25  C   -0.298179
    26  C   -0.299207
    27  C   -0.475721
    28  H    0.150814
    29  H    0.146983
    30  H    0.154372
    31  H    0.148751
    32  H    0.153818
    33  H    0.156490
    34  H    0.160491
 Sum of Mulliken charges =  -0.00000

 Dipole moment (field-independent basis, Debye):
    X=              2.5524    Y=             -1.1338    Z=              4.3061  Tot=              5.1325
 Quadrupole moment (field-independent basis, Debye-Ang):
   XX=           -109.8685   YY=            -89.6787   ZZ=            -94.2637
   XY=              2.3348   XZ=            -11.6550   YZ=             -0.6527

 Normal termination of Gaussian 16 at Wed May  5 22:20:07 2021.
