 Gaussian 16, Revision A.03,
 Gaussian 16:  EM64L-G16RevA.03 25-Dec-2016

 -------------
 #p 6-31g* mp2
 -------------

 ------------------------------------------------------
 Input file generated by CHIRIPA (05-May-2021 14:57:27)
 ------------------------------------------------------
 Symbolic Z-matrix:
 Charge =  0 Multiplicity = 1

                         Standard orientation:
 ---------------------------------------------------------------------
 Center     Atomic      Atomic             Coordinates (Angstroms)
 Number     Number       Type             X           Y           Z
 ---------------------------------------------------------------------
      1          6           0        1.046478    0.111754   -0.455244
      2          6           0        1.897531    1.082175   -0.994236
      3          6           0        3.282563    0.980183   -0.833512
      4          6           0        3.784705   -0.110247   -0.124920
      5          6           0        2.962761   -1.093328    0.423943
      6          6           0        1.580867   -0.970991    0.250881
      7          1           0       -0.028230    0.198886   -0.584890
      8          1           0        1.485318    1.924128   -1.543090
      9          1           0        3.964344    1.717133   -1.240326
     10          1           0        3.403188   -1.921261    0.966133
     11          1           0        0.922331   -1.726134    0.670565
     12          7           0        5.249316   -0.228991    0.051763
     13          8           0        5.666788   -1.199259    0.680200
     14          8           0        5.952073    0.650456   -0.441537
     15          6           0       -2.493820    2.275818    0.853777
     16          6           0       -3.641315    2.274827    0.053918
     17          6           0       -4.231313    1.070069   -0.339798
     18          6           0       -3.644781   -0.120574    0.086392
     19          6           0       -2.501695   -0.152428    0.883654
     20          6           0       -1.928668    1.064324    1.265366
     21          1           0       -2.042086    3.216361    1.154962
     22          1           0       -4.082389    3.214172   -0.267219
     23          1           0       -5.119836    1.040323   -0.958718
     24          1           0       -2.084872   -1.104795    1.188076
     25          1           0       -1.037526    1.062056    1.886579
     26          7           0       -4.260402   -1.402345   -0.324065
     27          8           0       -3.724368   -2.437812    0.064666
     28          8           0       -5.267305   -1.347260   -1.026738
 ---------------------------------------------------------------------

 SCF Done:  E(RHF) =  -868.336521453     A.U. after   16 cycles
 E2 =    -0.2601993202D+01 EUMP2 =    -0.87093851465519D+03

 The electronic state is 1-A.
 Alpha  occ. eigenvalues --  -20.61722 -20.61705 -20.61023 -20.61018 -15.86775
 Alpha  occ. eigenvalues --  -15.86082 -11.32340 -11.31501 -11.28927 -11.28816
 Alpha  occ. eigenvalues --  -11.28574 -11.28102 -11.28099 -11.27910 -11.27869
 Alpha  occ. eigenvalues --  -11.27695 -11.27114 -11.27088  -1.60788  -1.60099
 Alpha  occ. eigenvalues --   -1.40337  -1.39651  -1.20511  -1.19690  -1.09843
 Alpha  occ. eigenvalues --   -1.09067  -1.05935  -1.05107  -0.96652  -0.95887
 Alpha  occ. eigenvalues --   -0.87284  -0.86500  -0.83488  -0.82714  -0.78514
 Alpha  occ. eigenvalues --   -0.77766  -0.72981  -0.72295  -0.72122  -0.71554
 Alpha  occ. eigenvalues --   -0.71426  -0.70787  -0.66128  -0.65867  -0.65333
 Alpha  occ. eigenvalues --   -0.65128  -0.63234  -0.62446  -0.56344  -0.55855
 Alpha  occ. eigenvalues --   -0.54006  -0.53977  -0.53389  -0.53188  -0.49755
 Alpha  occ. eigenvalues --   -0.49732  -0.49060  -0.49047  -0.45699  -0.45044
 Alpha  occ. eigenvalues --   -0.38515  -0.37878  -0.37245  -0.36734
 Alpha virt. eigenvalues --    0.03974   0.04761   0.10049   0.10875   0.15357
 Alpha virt. eigenvalues --    0.16355   0.19615   0.21548   0.24840   0.26854
 Alpha virt. eigenvalues --    0.28035   0.28691   0.30146   0.30701   0.31623

 Mulliken charges:
               1
     1  C   -0.178475
     2  C   -0.222728
     3  C   -0.170297
     4  C    0.157924
     5  C   -0.169685
     6  C   -0.226559
     7  H    0.237056
     8  H    0.222557
     9  H    0.275921
    10  H    0.277245
    11  H    0.222941
    12  N    0.488046
    13  O   -0.459359
    14  O   -0.460128
    15  C   -0.173226
    16  C   -0.217855
    17  C   -0.170760
    18  C    0.162231
    19  C   -0.184761
    20  C   -0.225497
    21  H    0.230066
    22  H    0.227818
    23  H    0.279306
    24  H    0.274775
    25  H    0.231442
    26  N    0.488053
    27  O   -0.459998
    28  O   -0.456054
 Sum of Mulliken charges =  -0.00000

 Dipole moment (field-independent basis, Debye):
    X=             -3.2430    Y=              5.0277    Z=              0.8085  Tot=              6.0372
 Quadrupole moment (field-independent basis, Debye-Ang):
   XX=           -156.8862   YY=           -101.4494   ZZ=           -102.9676
   XY=            -16.4532   XZ=             -5.1012   YZ=             -3.6364

 Normal termination of Gaussian 16 at Fri May  7 09:44:11 2021.
