 Gaussian 16, Revision A.03,
 Gaussian 16:  EM64L-G16RevA.03 25-Dec-2016

 -------------
 #p 6-31g* mp2
 -------------

 ------------------------------------------------------
 Input file generated by CHIRIPA (05-May-2021 14:53:14)
 ------------------------------------------------------
 Symbolic Z-matrix:
 Charge =  0 Multiplicity = 1

                         Standard orientation:
 ---------------------------------------------------------------------
 Center     Atomic      Atomic             Coordinates (Angstroms)
 Number     Number       Type             X           Y           Z
 ---------------------------------------------------------------------
      1          6           0       -3.440452    0.943552   -0.288214
      2          6           0       -1.961548    1.330871   -0.259681
      3          6           0       -1.716306    2.763219   -0.735105
      4          1           0       -3.824530    1.062901   -1.310557
      5          1           0       -4.007539    1.642314    0.342292
      6          1           0       -1.397222    0.630749   -0.888951
      7          1           0       -1.580897    1.210403    0.762674
      8          1           0       -2.254018    3.476586   -0.102195
      9          1           0       -2.069299    2.893639   -1.763204
     10          1           0       -0.652551    3.019096   -0.706608
     11          6           0       -3.701653   -0.485520    0.184285
     12          6           0       -5.180556   -0.872839    0.155751
     13          6           0       -5.425798   -2.305187    0.631175
     14          1           0       -3.134566   -1.184282   -0.446221
     15          1           0       -3.317575   -0.604868    1.206628
     16          1           0       -5.561207   -0.752371   -0.866603
     17          1           0       -5.744882   -0.172717    0.785022
     18          1           0       -5.072805   -2.435606    1.659274
     19          1           0       -4.888086   -3.018554   -0.001735
     20          1           0       -6.489553   -2.561064    0.602679
     21          6           0        2.304355    2.204991    0.709297
     22          6           0        2.851927    1.314862    1.639004
     23          6           0        3.125044   -0.008293    1.279539
     24          6           0        2.836824   -0.409386   -0.024050
     25          6           0        2.291125    0.453718   -0.973025
     26          6           0        2.026192    1.772340   -0.591457
     27          1           0        2.095369    3.231089    0.997122
     28          1           0        3.068976    1.648093    2.649891
     29          1           0        3.548834   -0.718358    1.979272
     30          1           0        2.085558    0.092334   -1.973305
     31          1           0        1.600927    2.461430   -1.315579
     32          7           0        3.121629   -1.807752   -0.416299
     33          8           0        2.858591   -2.136460   -1.571028
     34          8           0        3.602503   -2.548606    0.438413
 ---------------------------------------------------------------------

 SCF Done:  E(RHF) =  -669.535149595     A.U. after   15 cycles
 E2 =    -0.2092174696D+01 EUMP2 =    -0.67162732429102D+03

 The electronic state is 1-A.
 Alpha  occ. eigenvalues --  -20.60787 -20.60782 -15.85841 -11.31218 -11.27787
 Alpha  occ. eigenvalues --  -11.27781 -11.27533 -11.26806 -11.26794 -11.21998
 Alpha  occ. eigenvalues --  -11.21740 -11.21699 -11.21665 -11.21511 -11.21090
 Alpha  occ. eigenvalues --   -1.59862  -1.39415  -1.19393  -1.08792  -1.08670
 Alpha  occ. eigenvalues --   -1.04802  -1.03810  -0.96283  -0.95617  -0.87309
 Alpha  occ. eigenvalues --   -0.86195  -0.82450  -0.79872  -0.78453  -0.77499
 Alpha  occ. eigenvalues --   -0.72060  -0.71184  -0.70498  -0.65304  -0.65048
 Alpha  occ. eigenvalues --   -0.64849  -0.62193  -0.61204  -0.59671  -0.57886
 Alpha  occ. eigenvalues --   -0.55563  -0.55294  -0.53273  -0.53028  -0.52828
 Alpha  occ. eigenvalues --   -0.52539  -0.50207  -0.48820  -0.48813  -0.48183
 Alpha  occ. eigenvalues --   -0.46894  -0.46004  -0.45911  -0.44818  -0.44066
 Alpha  occ. eigenvalues --   -0.37352  -0.36369
 Alpha virt. eigenvalues --    0.05025   0.11138   0.16491   0.20502   0.22793
 Alpha virt. eigenvalues --    0.24154   0.26374   0.26450   0.27181   0.27997
 Alpha virt. eigenvalues --    0.28535   0.30552   0.31178   0.31501   0.31824

 Mulliken charges:
               1
     1  C   -0.298952
     2  C   -0.298003
     3  C   -0.477991
     4  H    0.150010
     5  H    0.149052
     6  H    0.152777
     7  H    0.153178
     8  H    0.156470
     9  H    0.156366
    10  H    0.149199
    11  C   -0.298923
    12  C   -0.299878
    13  C   -0.476035
    14  H    0.152421
    15  H    0.149911
    16  H    0.152162
    17  H    0.151201
    18  H    0.155399
    19  H    0.157205
    20  H    0.160462
    21  C   -0.171144
    22  C   -0.218610
    23  C   -0.170799
    24  C    0.158656
    25  C   -0.172319
    26  C   -0.215345
    27  H    0.226130
    28  H    0.223574
    29  H    0.275713
    30  H    0.275630
    31  H    0.225156
    32  N    0.488091
    33  O   -0.460482
    34  O   -0.460279
 Sum of Mulliken charges =  -0.00000

 Dipole moment (field-independent basis, Debye):
    X=             -1.0287    Y=              4.8442    Z=              1.4123  Tot=              5.1497
 Quadrupole moment (field-independent basis, Debye-Ang):
   XX=           -100.5431   YY=           -100.4050   ZZ=            -89.8465
   XY=             13.9443   XZ=              5.8484   YZ=             -0.9220

 Normal termination of Gaussian 16 at Wed May  5 21:52:24 2021.
