 Gaussian 16, Revision A.03,
 Gaussian 16:  EM64L-G16RevA.03 25-Dec-2016

 -------------
 #p 6-31g* mp2
 -------------

 ------------------------------------------------------
 Input file generated by CHIRIPA (05-May-2021 14:53:14)
 ------------------------------------------------------
 Symbolic Z-matrix:
 Charge =  0 Multiplicity = 1

                         Standard orientation:
 ---------------------------------------------------------------------
 Center     Atomic      Atomic             Coordinates (Angstroms)
 Number     Number       Type             X           Y           Z
 ---------------------------------------------------------------------
      1          6           0        3.530750   -0.554005    0.093196
      2          6           0        4.082094   -1.693161   -0.764901
      3          6           0        3.859694   -3.068602   -0.135224
      4          1           0        4.005361   -0.586583    1.083462
      5          1           0        2.455974   -0.714189    0.256274
      6          1           0        5.155226   -1.530141   -0.927467
      7          1           0        3.606256   -1.657751   -1.753304
      8          1           0        2.791248   -3.256781    0.011785
      9          1           0        4.349019   -3.128446    0.842314
     10          1           0        4.261479   -3.868280   -0.765259
     11          6           0        3.745489    0.827263   -0.523014
     12          6           0        3.194145    1.966418    0.335083
     13          6           0        3.416544    3.341859   -0.294594
     14          1           0        4.820264    0.987447   -0.686092
     15          1           0        3.270878    0.859840   -1.513281
     16          1           0        3.669983    1.931008    1.323486
     17          1           0        2.121013    1.803398    0.497649
     18          1           0        2.927220    3.401704   -1.272133
     19          1           0        4.484991    3.530039   -0.441603
     20          1           0        3.014759    4.141537    0.335441
     21          6           0       -0.545079   -0.479296    1.142573
     22          6           0       -1.037631    0.820753    0.988344
     23          6           0       -2.309042    1.039038    0.449442
     24          6           0       -3.064366   -0.070724    0.073670
     25          6           0       -2.601473   -1.378053    0.214773
     26          6           0       -1.327193   -1.572623    0.755978
     27          1           0        0.443697   -0.639654    1.562100
     28          1           0       -0.432444    1.671736    1.287710
     29          1           0       -2.714932    2.034852    0.318960
     30          1           0       -3.228062   -2.206422   -0.092814
     31          1           0       -0.947247   -2.583372    0.874592
     32          7           0       -4.411870    0.147811   -0.498060
     33          8           0       -5.057633   -0.846720   -0.821379
     34          8           0       -4.796765    1.309492   -0.612038
 ---------------------------------------------------------------------

 SCF Done:  E(RHF) =  -669.535409823     A.U. after   15 cycles
 E2 =    -0.2092332357D+01 EUMP2 =    -0.67162774218010D+03

 The electronic state is 1-A.
 Alpha  occ. eigenvalues --  -20.60778 -20.60773 -15.85832 -11.31210 -11.27777
 Alpha  occ. eigenvalues --  -11.27773 -11.27481 -11.26791 -11.26777 -11.22589
 Alpha  occ. eigenvalues --  -11.22429 -11.22366 -11.22228 -11.21914 -11.21838
 Alpha  occ. eigenvalues --   -1.59853  -1.39406  -1.19381  -1.09342  -1.08769
 Alpha  occ. eigenvalues --   -1.04784  -1.04395  -0.96834  -0.95605  -0.87847
 Alpha  occ. eigenvalues --   -0.86180  -0.82438  -0.80470  -0.79196  -0.77482
 Alpha  occ. eigenvalues --   -0.72049  -0.71176  -0.70499  -0.65979  -0.65029
 Alpha  occ. eigenvalues --   -0.64770  -0.62161  -0.61759  -0.60203  -0.58466
 Alpha  occ. eigenvalues --   -0.56160  -0.55259  -0.53510  -0.53254  -0.53107
 Alpha  occ. eigenvalues --   -0.52876  -0.50765  -0.48843  -0.48804  -0.48747
 Alpha  occ. eigenvalues --   -0.47497  -0.46700  -0.46616  -0.44809  -0.44657
 Alpha  occ. eigenvalues --   -0.37335  -0.36386
 Alpha virt. eigenvalues --    0.05010   0.11164   0.16376   0.19519   0.22698
 Alpha virt. eigenvalues --    0.22783   0.25447   0.26153   0.26537   0.26967
 Alpha virt. eigenvalues --    0.29852   0.30590   0.30743   0.31113   0.31391

 Mulliken charges:
               1
     1  C   -0.304177
     2  C   -0.299940
     3  C   -0.475401
     4  H    0.149621
     5  H    0.144644
     6  H    0.155284
     7  H    0.155331
     8  H    0.149053
     9  H    0.155943
    10  H    0.164450
    11  C   -0.297922
    12  C   -0.303607
    13  C   -0.476322
    14  H    0.153279
    15  H    0.153734
    16  H    0.152702
    17  H    0.144464
    18  H    0.158311
    19  H    0.158639
    20  H    0.160413
    21  C   -0.172663
    22  C   -0.222183
    23  C   -0.171137
    24  C    0.158776
    25  C   -0.170765
    26  C   -0.220325
    27  H    0.230803
    28  H    0.226447
    29  H    0.275817
    30  H    0.275726
    31  H    0.223630
    32  N    0.488020
    33  O   -0.460335
    34  O   -0.460310
 Sum of Mulliken charges =  -0.00000

 Dipole moment (field-independent basis, Debye):
    X=              4.9237    Y=             -0.7485    Z=              1.9112  Tot=              5.3344
 Quadrupole moment (field-independent basis, Debye-Ang):
   XX=           -122.8099   YY=            -90.6012   ZZ=            -95.0673
   XY=              2.7503   XZ=             -5.6961   YZ=              0.7043

 Normal termination of Gaussian 16 at Thu May  6 01:01:34 2021.
