 Gaussian 16, Revision A.03,
 Gaussian 16:  EM64L-G16RevA.03 25-Dec-2016

 -------------
 #p 6-31g* mp2
 -------------

 ------------------------------------------------------
 Input file generated by CHIRIPA (05-May-2021 14:57:27)
 ------------------------------------------------------
 Symbolic Z-matrix:
 Charge =  0 Multiplicity = 1

                         Standard orientation:
 ---------------------------------------------------------------------
 Center     Atomic      Atomic             Coordinates (Angstroms)
 Number     Number       Type             X           Y           Z
 ---------------------------------------------------------------------
      1          6           0        1.509449    2.556191    0.142721
      2          6           0        2.578619    2.028883    0.874392
      3          6           0        3.075424    0.754068    0.587027
      4          6           0        2.476582    0.030816   -0.443306
      5          6           0        1.410076    0.528725   -1.190262
      6          6           0        0.929612    1.805752   -0.885458
      7          1           0        1.129866    3.547357    0.372726
      8          1           0        3.030883    2.609424    1.673438
      9          1           0        3.902024    0.321613    1.137603
     10          1           0        0.979836   -0.073795   -1.981009
     11          1           0        0.099164    2.212726   -1.455346
     12          7           0        2.993877   -1.319944   -0.756757
     13          8           0        2.448906   -1.937029   -1.669363
     14          8           0        3.934510   -1.736008   -0.083899
     15          6           0       -4.108191    0.386094   -1.343087
     16          6           0       -3.994293   -0.944910   -0.928389
     17          6           0       -3.046595   -1.310697    0.032140
     18          6           0       -2.225345   -0.315266    0.559353
     19          6           0       -2.314556    1.019313    0.166629
     20          6           0       -3.269437    1.362237   -0.795220
     21          1           0       -4.847175    0.661366   -2.089761
     22          1           0       -4.644347   -1.705112   -1.352146
     23          1           0       -2.937008   -2.333647    0.371229
     24          1           0       -1.652497    1.754825    0.607217
     25          1           0       -3.355646    2.396696   -1.115388
     26          7           0       -1.218257   -0.690405    1.576921
     27          8           0       -0.506600    0.205394    2.026058
     28          8           0       -1.159629   -1.873136    1.906085
 ---------------------------------------------------------------------

 SCF Done:  E(RHF) =  -868.336018244     A.U. after   16 cycles
 E2 =    -0.2604077630D+01 EUMP2 =    -0.87094009587408D+03

 The electronic state is 1-A.
 Alpha  occ. eigenvalues --  -20.60966 -20.60961 -20.60226 -20.60200 -15.86012
 Alpha  occ. eigenvalues --  -15.85270 -11.31513 -11.30629 -11.28168 -11.28079
 Alpha  occ. eigenvalues --  -11.27898 -11.27267 -11.27222 -11.27139 -11.27091
 Alpha  occ. eigenvalues --  -11.27029 -11.26357 -11.26193  -1.60034  -1.59284
 Alpha  occ. eigenvalues --   -1.39582  -1.38842  -1.19728  -1.18799  -1.09083
 Alpha  occ. eigenvalues --   -1.08231  -1.05170  -1.04230  -0.95898  -0.95065
 Alpha  occ. eigenvalues --   -0.86546  -0.85666  -0.82737  -0.81913  -0.77765
 Alpha  occ. eigenvalues --   -0.76940  -0.72245  -0.71505  -0.71378  -0.70832
 Alpha  occ. eigenvalues --   -0.70581  -0.69996  -0.65380  -0.65178  -0.64503
 Alpha  occ. eigenvalues --   -0.64316  -0.62511  -0.61597  -0.55641  -0.54818
 Alpha  occ. eigenvalues --   -0.53509  -0.53286  -0.52460  -0.52351  -0.49021
 Alpha  occ. eigenvalues --   -0.48972  -0.48260  -0.48246  -0.44911  -0.44250
 Alpha  occ. eigenvalues --   -0.37765  -0.37019  -0.36636  -0.35566
 Alpha virt. eigenvalues --    0.04742   0.05586   0.10696   0.11984   0.16153
 Alpha virt. eigenvalues --    0.17078   0.20535   0.22040   0.26339   0.27690
 Alpha virt. eigenvalues --    0.27934   0.29181   0.30177   0.31574   0.32434

 Mulliken charges:
               1
     1  C   -0.165758
     2  C   -0.209121
     3  C   -0.162947
     4  C    0.163638
     5  C   -0.175866
     6  C   -0.220304
     7  H    0.219449
     8  H    0.223068
     9  H    0.276148
    10  H    0.272454
    11  H    0.214180
    12  N    0.488884
    13  O   -0.464079
    14  O   -0.458663
    15  C   -0.170136
    16  C   -0.218939
    17  C   -0.168776
    18  C    0.156982
    19  C   -0.170479
    20  C   -0.224373
    21  H    0.226623
    22  H    0.226018
    23  H    0.279459
    24  H    0.272221
    25  H    0.219745
    26  N    0.488311
    27  O   -0.461410
    28  O   -0.456333
 Sum of Mulliken charges =  -0.00000

 Dipole moment (field-independent basis, Debye):
    X=             -5.2583    Y=              5.8397    Z=             -2.2168  Tot=              8.1649
 Quadrupole moment (field-independent basis, Debye-Ang):
   XX=            -95.7115   YY=           -101.7990   ZZ=           -108.4313
   XY=             12.4882   XZ=             13.1222   YZ=              0.7077

 Normal termination of Gaussian 16 at Thu May  6 03:40:37 2021.
