 Gaussian 16, Revision A.03,
 Gaussian 16:  EM64L-G16RevA.03 25-Dec-2016

 -------------
 #p 6-31g* mp2
 -------------

 ------------------------------------------------------
 Input file generated by CHIRIPA (05-May-2021 14:51:08)
 ------------------------------------------------------
 Symbolic Z-matrix:
 Charge =  0 Multiplicity = 1

                         Standard orientation:
 ---------------------------------------------------------------------
 Center     Atomic      Atomic             Coordinates (Angstroms)
 Number     Number       Type             X           Y           Z
 ---------------------------------------------------------------------
      1          6           0       -3.652074    0.786147   -0.105598
      2          6           0       -2.778932    2.040402   -0.155118
      3          6           0       -3.541723    3.307405    0.233016
      4          1           0       -4.511479    0.918634   -0.777027
      5          1           0       -4.061652    0.672746    0.907704
      6          1           0       -2.370009    2.150641   -1.167662
      7          1           0       -1.921405    1.904837    0.516361
      8          1           0       -3.936330    3.222957    1.250736
      9          1           0       -4.387484    3.470159   -0.442855
     10          1           0       -2.898614    4.191989    0.190816
     11          6           0       -2.903652   -0.488619   -0.491038
     12          6           0       -3.776794   -1.742874   -0.441517
     13          6           0       -3.014003   -3.009877   -0.829652
     14          1           0       -2.494074   -0.375218   -1.504340
     15          1           0       -2.044248   -0.621106    0.180391
     16          1           0       -4.634322   -1.607309   -1.112997
     17          1           0       -4.185717   -1.853114    0.571026
     18          1           0       -2.168243   -3.172631   -0.153781
     19          1           0       -2.619396   -2.925430   -1.847372
     20          1           0       -3.657112   -3.894462   -0.787451
     21          6           0        2.882494   -0.604796    0.766453
     22          6           0        1.407238   -0.220452    0.884283
     23          6           0        0.629515   -1.142035    1.824296
     24          1           0        2.957456   -1.641533    0.410780
     25          1           0        3.340765   -0.582976    1.764904
     26          1           0        0.952222   -0.241648   -0.114279
     27          1           0        1.335782    0.815554    1.239533
     28          1           0        1.056802   -1.114018    2.831889
     29          1           0        0.671062   -2.177227    1.470385
     30          1           0       -0.422766   -0.849221    1.893767
     31          6           0        3.673233    0.307268   -0.169817
     32          6           0        5.148489   -0.077075   -0.287647
     33          6           0        5.926212    0.844508   -1.227661
     34          1           0        3.214961    0.285448   -1.168269
     35          1           0        3.598271    1.344006    0.185856
     36          1           0        5.219945   -1.113081   -0.642897
     37          1           0        5.603505   -0.055880    0.710915
     38          1           0        5.884665    1.879699   -0.873749
     39          1           0        5.498925    0.816490   -2.235253
     40          1           0        6.978493    0.551693   -1.297131
 ---------------------------------------------------------------------

 SCF Done:  E(RHF) =  -470.733282730     A.U. after   11 cycles
 E2 =    -0.1583157701D+01 EUMP2 =    -0.47231644043083D+03

 The electronic state is 1-A.
 Alpha  occ. eigenvalues --  -11.21625 -11.21607 -11.21587 -11.21582 -11.21419
 Alpha  occ. eigenvalues --  -11.21378 -11.21359 -11.21309 -11.21138 -11.21075
 Alpha  occ. eigenvalues --  -11.21062 -11.21052  -1.08455  -1.08405  -1.03559
 Alpha  occ. eigenvalues --   -1.03509  -0.96022  -0.95953  -0.87036  -0.86971
 Alpha  occ. eigenvalues --   -0.79626  -0.79561  -0.78285  -0.78201  -0.65111
 Alpha  occ. eigenvalues --   -0.65034  -0.60991  -0.60873  -0.59409  -0.59317
 Alpha  occ. eigenvalues --   -0.57704  -0.57504  -0.55298  -0.55246  -0.52750
 Alpha  occ. eigenvalues --   -0.52650  -0.52486  -0.52322  -0.49951  -0.49897
 Alpha  occ. eigenvalues --   -0.47964  -0.47864  -0.46645  -0.46603  -0.45847
 Alpha  occ. eigenvalues --   -0.45755  -0.45688  -0.45635  -0.43790  -0.43761
 Alpha virt. eigenvalues --    0.20444   0.23094   0.23875   0.24340   0.26245
 Alpha virt. eigenvalues --    0.26475   0.26729   0.27451   0.28008   0.29575
 Alpha virt. eigenvalues --    0.30649   0.31474   0.31701   0.31929   0.32231

 Mulliken charges:
               1
     1  C   -0.297865
     2  C   -0.300631
     3  C   -0.475692
     4  H    0.149669
     5  H    0.149075
     6  H    0.151971
     7  H    0.152840
     8  H    0.155086
     9  H    0.155200
    10  H    0.160215
    11  C   -0.308293
    12  C   -0.298938
    13  C   -0.476602
    14  H    0.149011
    15  H    0.160308
    16  H    0.151860
    17  H    0.151702
    18  H    0.156159
    19  H    0.154760
    20  H    0.160171
    21  C   -0.298422
    22  C   -0.301472
    23  C   -0.479958
    24  H    0.149876
    25  H    0.149525
    26  H    0.154593
    27  H    0.151945
    28  H    0.155804
    29  H    0.155634
    30  H    0.162161
    31  C   -0.298323
    32  C   -0.299693
    33  C   -0.475718
    34  H    0.149750
    35  H    0.149695
    36  H    0.152001
    37  H    0.151911
    38  H    0.155187
    39  H    0.155219
    40  H    0.160277
 Sum of Mulliken charges =  -0.00000

 Dipole moment (field-independent basis, Debye):
    X=              0.0271    Y=             -0.0002    Z=              0.0012  Tot=              0.0271
 Quadrupole moment (field-independent basis, Debye-Ang):
   XX=            -85.4084   YY=            -85.7547   ZZ=            -83.6933
   XY=              0.1060   XZ=              0.9702   YZ=              0.4591

 Normal termination of Gaussian 16 at Wed May  5 18:07:09 2021.
