 Gaussian 16, Revision A.03,
 Gaussian 16:  EM64L-G16RevA.03 25-Dec-2016

 -------------
 #p 6-31g* mp2
 -------------

 ------------------------------------------------------
 Input file generated by CHIRIPA (05-May-2021 14:53:17)
 ------------------------------------------------------
 Symbolic Z-matrix:
 Charge =  0 Multiplicity = 1

                         Standard orientation:
 ---------------------------------------------------------------------
 Center     Atomic      Atomic             Coordinates (Angstroms)
 Number     Number       Type             X           Y           Z
 ---------------------------------------------------------------------
      1          6           0       -3.715633    0.046783   -0.127658
      2          6           0       -5.207643   -0.249843    0.026952
      3          6           0       -6.061525    0.444694   -1.034320
      4          1           0       -3.556789    1.132582   -0.075182
      5          1           0       -3.387813   -0.269098   -1.127732
      6          1           0       -5.532246    0.065236    1.026939
      7          1           0       -5.362931   -1.335075   -0.025706
      8          1           0       -5.765809    0.122636   -2.038029
      9          1           0       -5.936085    1.530903   -0.979403
     10          1           0       -7.124638    0.218986   -0.905064
     11          6           0       -2.848956   -0.640499    0.926022
     12          6           0       -1.356946   -0.343873    0.771412
     13          6           0       -0.503064   -1.038410    1.832684
     14          1           0       -3.176775   -0.324618    1.926096
     15          1           0       -3.007800   -1.726299    0.873546
     16          1           0       -1.201658    0.741359    0.824070
     17          1           0       -1.032343   -0.658952   -0.228575
     18          1           0       -0.628503   -2.124619    1.777767
     19          1           0       -0.798780   -0.716352    2.836393
     20          1           0        0.560049   -0.812702    1.703428
     21          6           0        1.955433    2.649142    0.078334
     22          6           0        1.277835    1.904565   -0.892741
     23          6           0        1.606807    0.564485   -1.117492
     24          6           0        2.623154   -0.001768   -0.349584
     25          6           0        3.316622    0.713843    0.625247
     26          6           0        2.970874    2.052456    0.832898
     27          1           0        1.693363    3.689579    0.246284
     28          1           0        0.488801    2.365347   -1.480235
     29          1           0        1.098433   -0.035086   -1.862802
     30          1           0        4.098649    0.226992    1.195185
     31          1           0        3.498804    2.628279    1.587725
     32          7           0        2.980303   -1.419674   -0.578466
     33          8           0        3.879524   -1.895309    0.111324
     34          8           0        2.354251   -2.028545   -1.443320
 ---------------------------------------------------------------------

 SCF Done:  E(RHF) =  -669.534597189     A.U. after   15 cycles
 E2 =    -0.2094188242D+01 EUMP2 =    -0.67162878543029D+03

 The electronic state is 1-A.
 Alpha  occ. eigenvalues --  -20.60802 -20.60796 -15.85853 -11.31210 -11.27790
 Alpha  occ. eigenvalues --  -11.27778 -11.27538 -11.26809 -11.26791 -11.21762
 Alpha  occ. eigenvalues --  -11.21655 -11.21597 -11.21442 -11.21253 -11.20967
 Alpha  occ. eigenvalues --   -1.59875  -1.39429  -1.19410  -1.08798  -1.08559
 Alpha  occ. eigenvalues --   -1.04809  -1.03619  -0.96071  -0.95628  -0.87084
 Alpha  occ. eigenvalues --   -0.86204  -0.82460  -0.79705  -0.78401  -0.77496
 Alpha  occ. eigenvalues --   -0.72071  -0.71210  -0.70511  -0.65197  -0.65053
 Alpha  occ. eigenvalues --   -0.64795  -0.62158  -0.61008  -0.59498  -0.57762
 Alpha  occ. eigenvalues --   -0.55358  -0.55293  -0.53304  -0.52895  -0.52618
 Alpha  occ. eigenvalues --   -0.52338  -0.50001  -0.48831  -0.48826  -0.48038
 Alpha  occ. eigenvalues --   -0.46734  -0.45936  -0.45854  -0.44826  -0.43903
 Alpha  occ. eigenvalues --   -0.37348  -0.36322
 Alpha virt. eigenvalues --    0.05021   0.11150   0.16507   0.21054   0.22782
 Alpha virt. eigenvalues --    0.24084   0.25942   0.26605   0.27593   0.28032
 Alpha virt. eigenvalues --    0.28606   0.30465   0.31192   0.31599   0.31741

 Mulliken charges:
               1
     1  C   -0.297838
     2  C   -0.299621
     3  C   -0.475769
     4  H    0.145120
     5  H    0.148406
     6  H    0.152097
     7  H    0.154055
     8  H    0.155300
     9  H    0.153415
    10  H    0.161244
    11  C   -0.298568
    12  C   -0.299219
    13  C   -0.478712
    14  H    0.149010
    15  H    0.152784
    16  H    0.148195
    17  H    0.149424
    18  H    0.160718
    19  H    0.153349
    20  H    0.160826
    21  C   -0.172106
    22  C   -0.215425
    23  C   -0.167513
    24  C    0.158643
    25  C   -0.173642
    26  C   -0.217127
    27  H    0.225727
    28  H    0.224194
    29  H    0.275360
    30  H    0.275962
    31  H    0.223683
    32  N    0.489199
    33  O   -0.460226
    34  O   -0.460946
 Sum of Mulliken charges =  -0.00000

 Dipole moment (field-independent basis, Debye):
    X=             -1.2175    Y=              4.9614    Z=              0.7973  Tot=              5.1704
 Quadrupole moment (field-independent basis, Debye-Ang):
   XX=            -99.9349   YY=            -94.8003   ZZ=            -93.3652
   XY=             13.9302   XZ=              4.8643   YZ=             -0.7321

 Normal termination of Gaussian 16 at Thu May  6 02:47:14 2021.
