 Gaussian 16, Revision A.03,
 Gaussian 16:  EM64L-G16RevA.03 25-Dec-2016

 -------------
 #p 6-31g* mp2
 -------------

 ------------------------------------------------------
 Input file generated by CHIRIPA (05-May-2021 14:53:16)
 ------------------------------------------------------
 Symbolic Z-matrix:
 Charge =  0 Multiplicity = 1

                         Standard orientation:
 ---------------------------------------------------------------------
 Center     Atomic      Atomic             Coordinates (Angstroms)
 Number     Number       Type             X           Y           Z
 ---------------------------------------------------------------------
      1          6           0       -2.645102    1.126802   -0.399856
      2          6           0       -1.670877    2.098042    0.267649
      3          6           0       -0.962636    3.008222   -0.736224
      4          1           0       -2.099388    0.514426   -1.130703
      5          1           0       -3.391752    1.699425   -0.967317
      6          1           0       -0.927108    1.523803    0.834812
      7          1           0       -2.218937    2.708046    0.997129
      8          1           0       -1.690404    3.606105   -1.294337
      9          1           0       -0.391235    2.415134   -1.457577
     10          1           0       -0.270966    3.694383   -0.237590
     11          6           0       -3.360878    0.210224    0.590739
     12          6           0       -4.335103   -0.761016   -0.076766
     13          6           0       -5.043344   -1.671195    0.927107
     14          1           0       -2.614228   -0.362399    1.158200
     15          1           0       -3.906592    0.822600    1.321586
     16          1           0       -3.787043   -1.371019   -0.806246
     17          1           0       -5.078871   -0.186777   -0.643929
     18          1           0       -5.614745   -1.078108    1.648459
     19          1           0       -4.315576   -2.269079    1.485219
     20          1           0       -5.735014   -2.357357    0.428473
     21          6           0        3.500408    1.575467    0.721012
     22          6           0        3.852045    0.334659    1.262554
     23          6           0        3.219111   -0.834197    0.829291
     24          6           0        2.234490   -0.725078   -0.151477
     25          6           0        1.862012    0.496484   -0.710347
     26          6           0        2.508262    1.652284   -0.261978
     27          1           0        3.997258    2.478392    1.063448
     28          1           0        4.622199    0.271989    2.026085
     29          1           0        3.471807   -1.807747    1.231489
     30          1           0        1.090504    0.527202   -1.470118
     31          1           0        2.233129    2.614553   -0.684334
     32          7           0        1.557382   -1.955583   -0.618149
     33          8           0        0.693122   -1.832639   -1.483352
     34          8           0        1.903747   -3.019697   -0.109888
 ---------------------------------------------------------------------

 SCF Done:  E(RHF) =  -669.535134029     A.U. after   15 cycles
 E2 =    -0.2093137921D+01 EUMP2 =    -0.67162827195054D+03

 The electronic state is 1-A.
 Alpha  occ. eigenvalues --  -20.60857 -20.60850 -15.85902 -11.31229 -11.27785
 Alpha  occ. eigenvalues --  -11.27774 -11.27510 -11.26798 -11.26749 -11.21836
 Alpha  occ. eigenvalues --  -11.21745 -11.21300 -11.21208 -11.21130 -11.20680
 Alpha  occ. eigenvalues --   -1.59926  -1.39481  -1.19396  -1.08794  -1.08349
 Alpha  occ. eigenvalues --   -1.04799  -1.03521  -0.96013  -0.95635  -0.87043
 Alpha  occ. eigenvalues --   -0.86186  -0.82469  -0.79606  -0.78093  -0.77523
 Alpha  occ. eigenvalues --   -0.72121  -0.71248  -0.70519  -0.65102  -0.64962
 Alpha  occ. eigenvalues --   -0.64778  -0.62250  -0.60820  -0.59431  -0.57582
 Alpha  occ. eigenvalues --   -0.55422  -0.55164  -0.53100  -0.52991  -0.52647
 Alpha  occ. eigenvalues --   -0.52389  -0.49960  -0.48874  -0.48872  -0.47907
 Alpha  occ. eigenvalues --   -0.46604  -0.45654  -0.45515  -0.44885  -0.43744
 Alpha  occ. eigenvalues --   -0.37372  -0.36356
 Alpha virt. eigenvalues --    0.04972   0.11212   0.16433   0.20038   0.23114
 Alpha virt. eigenvalues --    0.24206   0.25796   0.26579   0.27114   0.28301
 Alpha virt. eigenvalues --    0.29606   0.30203   0.31425   0.31783   0.32489

 Mulliken charges:
               1
     1  C   -0.302539
     2  C   -0.302208
     3  C   -0.476817
     4  H    0.158419
     5  H    0.148669
     6  H    0.154484
     7  H    0.153089
     8  H    0.160075
     9  H    0.145334
    10  H    0.154767
    11  C   -0.297669
    12  C   -0.301549
    13  C   -0.475982
    14  H    0.151841
    15  H    0.147158
    16  H    0.160618
    17  H    0.149673
    18  H    0.152516
    19  H    0.157501
    20  H    0.160671
    21  C   -0.171597
    22  C   -0.218421
    23  C   -0.171130
    24  C    0.158271
    25  C   -0.174362
    26  C   -0.218194
    27  H    0.225770
    28  H    0.223568
    29  H    0.275527
    30  H    0.278407
    31  H    0.227268
    32  N    0.488521
    33  O   -0.461887
    34  O   -0.459791
 Sum of Mulliken charges =  -0.00000

 Dipole moment (field-independent basis, Debye):
    X=              2.3508    Y=              4.2370    Z=              1.6512  Tot=              5.1190
 Quadrupole moment (field-independent basis, Debye-Ang):
   XX=            -82.7151   YY=           -100.2347   ZZ=            -94.2142
   XY=              5.5989   XZ=              5.8932   YZ=             -3.2426

 Normal termination of Gaussian 16 at Thu May  6 04:18:54 2021.
