 Gaussian 16, Revision A.03,
 Gaussian 16:  EM64L-G16RevA.03 25-Dec-2016

 -------------
 #p 6-31g* mp2
 -------------

 ------------------------------------------------------
 Input file generated by CHIRIPA (05-May-2021 14:53:16)
 ------------------------------------------------------
 Symbolic Z-matrix:
 Charge =  0 Multiplicity = 1

                         Standard orientation:
 ---------------------------------------------------------------------
 Center     Atomic      Atomic             Coordinates (Angstroms)
 Number     Number       Type             X           Y           Z
 ---------------------------------------------------------------------
      1          6           0        3.589046    0.606892    0.580379
      2          6           0        2.703738    1.673290   -0.065385
      3          6           0        1.531427    2.086761    0.824851
      4          1           0        2.977356   -0.274605    0.816481
      5          1           0        3.970940    0.987847    1.537679
      6          1           0        2.324744    1.290963   -1.021840
      7          1           0        3.317645    2.552277   -0.300152
      8          1           0        1.893632    2.493016    1.774781
      9          1           0        0.895088    1.224535    1.048993
     10          1           0        0.911665    2.849878    0.343802
     11          6           0        4.765322    0.183201   -0.297453
     12          6           0        5.650629   -0.883197    0.348311
     13          6           0        6.822941   -1.296669   -0.541926
     14          1           0        4.383428   -0.197755   -1.254754
     15          1           0        5.377011    1.064698   -0.533556
     16          1           0        5.036722   -1.762184    0.583078
     17          1           0        6.029624   -0.500870    1.304765
     18          1           0        7.459279   -0.434442   -0.766068
     19          1           0        6.460736   -1.702923   -1.491855
     20          1           0        7.442703   -2.059785   -0.060877
     21          6           0       -0.805099   -0.846488   -0.292904
     22          6           0       -1.690685   -1.790339    0.237571
     23          6           0       -3.054824   -1.503151    0.343383
     24          6           0       -3.501087   -0.256631   -0.092885
     25          6           0       -2.643687    0.704659   -0.625875
     26          6           0       -1.283582    0.395808   -0.722177
     27          1           0        0.253030   -1.077997   -0.371409
     28          1           0       -1.321907   -2.755935    0.571742
     29          1           0       -3.762416   -2.215399    0.750120
     30          1           0       -3.040993    1.658648   -0.950638
     31          1           0       -0.598131    1.130748   -1.134563
     32          7           0       -4.943104    0.058868    0.014100
     33          8           0       -5.311197    1.164283   -0.377307
     34          8           0       -5.677959   -0.805233    0.487337
 ---------------------------------------------------------------------

 SCF Done:  E(RHF) =  -669.534482264     A.U. after   15 cycles
 E2 =    -0.2092823043D+01 EUMP2 =    -0.67162730530701D+03

 The electronic state is 1-A.
 Alpha  occ. eigenvalues --  -20.60757 -20.60751 -15.85808 -11.31187 -11.27740
 Alpha  occ. eigenvalues --  -11.27717 -11.27481 -11.26782 -11.26720 -11.22694
 Alpha  occ. eigenvalues --  -11.22396 -11.22326 -11.22207 -11.21980 -11.21674
 Alpha  occ. eigenvalues --   -1.59831  -1.39384  -1.19355  -1.09352  -1.08754
 Alpha  occ. eigenvalues --   -1.04765  -1.04397  -0.96841  -0.95585  -0.87856
 Alpha  occ. eigenvalues --   -0.86147  -0.82413  -0.80470  -0.79139  -0.77457
 Alpha  occ. eigenvalues --   -0.72028  -0.71153  -0.70486  -0.66041  -0.65006
 Alpha  occ. eigenvalues --   -0.64767  -0.62223  -0.61666  -0.60207  -0.58444
 Alpha  occ. eigenvalues --   -0.56143  -0.55263  -0.53551  -0.53315  -0.53021
 Alpha  occ. eigenvalues --   -0.52786  -0.50740  -0.48789  -0.48782  -0.48763
 Alpha  occ. eigenvalues --   -0.47533  -0.46671  -0.46610  -0.44787  -0.44661
 Alpha  occ. eigenvalues --   -0.37300  -0.36326
 Alpha virt. eigenvalues --    0.05036   0.11239   0.16449   0.18559   0.22578
 Alpha virt. eigenvalues --    0.24032   0.24785   0.25689   0.26957   0.28296
 Alpha virt. eigenvalues --    0.29501   0.29782   0.30861   0.31225   0.31770

 Mulliken charges:
               1
     1  C   -0.298711
     2  C   -0.303703
     3  C   -0.483593
     4  H    0.143446
     5  H    0.154669
     6  H    0.143736
     7  H    0.157925
     8  H    0.161511
     9  H    0.159630
    10  H    0.157868
    11  C   -0.298641
    12  C   -0.299886
    13  C   -0.476151
    14  H    0.147820
    15  H    0.152791
    16  H    0.150229
    17  H    0.154059
    18  H    0.156821
    19  H    0.155264
    20  H    0.162266
    21  C   -0.175851
    22  C   -0.218952
    23  C   -0.171337
    24  C    0.158967
    25  C   -0.172766
    26  C   -0.216864
    27  H    0.227614
    28  H    0.223430
    29  H    0.275545
    30  H    0.275560
    31  H    0.229973
    32  N    0.488003
    33  O   -0.460268
    34  O   -0.460406
 Sum of Mulliken charges =  -0.00000

 Dipole moment (field-independent basis, Debye):
    X=              5.2498    Y=             -1.0574    Z=             -0.3141  Tot=              5.3644
 Quadrupole moment (field-independent basis, Debye-Ang):
   XX=           -130.3889   YY=            -89.7262   ZZ=            -94.7112
   XY=              4.3975   XZ=              1.3584   YZ=             -1.6857

 Normal termination of Gaussian 16 at Thu May  6 18:52:54 2021.
