 Gaussian 16, Revision A.03,
 Gaussian 16:  EM64L-G16RevA.03 25-Dec-2016

 -------------
 #p 6-31g* mp2
 -------------

 ------------------------------------------------------
 Input file generated by CHIRIPA (05-May-2021 14:57:27)
 ------------------------------------------------------
 Symbolic Z-matrix:
 Charge =  0 Multiplicity = 1

                         Standard orientation:
 ---------------------------------------------------------------------
 Center     Atomic      Atomic             Coordinates (Angstroms)
 Number     Number       Type             X           Y           Z
 ---------------------------------------------------------------------
      1          6           0        3.765455    2.633724   -0.015207
      2          6           0        4.706759    1.878089   -0.721950
      3          6           0        4.632931    0.482031   -0.732869
      4          6           0        3.600048   -0.128317   -0.022996
      5          6           0        2.647149    0.596937    0.690643
      6          6           0        2.740462    1.991867    0.687595
      7          1           0        3.830375    3.717777   -0.012150
      8          1           0        5.503860    2.373867   -1.268647
      9          1           0        5.348372   -0.127313   -1.271628
     10          1           0        1.863919    0.074313    1.226210
     11          1           0        2.008041    2.576150    1.237338
     12          7           0        3.511576   -1.605664   -0.027162
     13          8           0        2.592015   -2.119398    0.606180
     14          8           0        4.363468   -2.221902   -0.663690
     15          6           0       -1.515363   -1.422501    0.522192
     16          6           0       -1.556849   -0.045513    0.764484
     17          6           0       -2.714661    0.688911    0.491282
     18          6           0       -3.817579    0.011221   -0.026017
     19          6           0       -3.807246   -1.359754   -0.278227
     20          6           0       -2.638713   -2.074078    0.002525
     21          1           0       -0.611783   -1.985212    0.737354
     22          1           0       -0.685948    0.463146    1.168021
     23          1           0       -2.774133    1.755768    0.669321
     24          1           0       -4.691292   -1.839029   -0.680938
     25          1           0       -2.609362   -3.143377   -0.186642
     26          7           0       -5.048977    0.778083   -0.319241
     27          8           0       -6.007234    0.157581   -0.774606
     28          8           0       -5.032574    1.985131   -0.088151
 ---------------------------------------------------------------------

 SCF Done:  E(RHF) =  -868.338547585     A.U. after   16 cycles
 E2 =    -0.2599755463D+01 EUMP2 =    -0.87093830304811D+03

 The electronic state is 1-A.
 Alpha  occ. eigenvalues --  -20.61839 -20.61776 -20.60716 -20.60703 -15.86849
 Alpha  occ. eigenvalues --  -15.85769 -11.32087 -11.31065 -11.28744 -11.28572
 Alpha  occ. eigenvalues --  -11.28294 -11.27732 -11.27657 -11.27621 -11.27546
 Alpha  occ. eigenvalues --  -11.27218 -11.26741 -11.26520  -1.60863  -1.59791
 Alpha  occ. eigenvalues --   -1.40428  -1.39347  -1.20233  -1.19239  -1.09635
 Alpha  occ. eigenvalues --   -1.08612  -1.05634  -1.04661  -0.96504  -0.95454
 Alpha  occ. eigenvalues --   -0.87030  -0.86051  -0.83357  -0.82311  -0.78439
 Alpha  occ. eigenvalues --   -0.77404  -0.73080  -0.72170  -0.71987  -0.71343
 Alpha  occ. eigenvalues --   -0.71115  -0.70230  -0.65895  -0.65650  -0.64886
 Alpha  occ. eigenvalues --   -0.64707  -0.63003  -0.62007  -0.56094  -0.55003
 Alpha  occ. eigenvalues --   -0.53939  -0.53736  -0.52961  -0.52747  -0.49840
 Alpha  occ. eigenvalues --   -0.49797  -0.48746  -0.48738  -0.45857  -0.44769
 Alpha  occ. eigenvalues --   -0.38166  -0.37249  -0.37128  -0.36277
 Alpha virt. eigenvalues --    0.04085   0.05176   0.10414   0.11395   0.15594
 Alpha virt. eigenvalues --    0.16697   0.18358   0.22193   0.24954   0.26742
 Alpha virt. eigenvalues --    0.27946   0.29085   0.30603   0.31643   0.31894

 Mulliken charges:
               1
     1  C   -0.169492
     2  C   -0.217826
     3  C   -0.169554
     4  C    0.160268
     5  C   -0.173649
     6  C   -0.218104
     7  H    0.229573
     8  H    0.227183
     9  H    0.277976
    10  H    0.268374
    11  H    0.222539
    12  N    0.490896
    13  O   -0.471246
    14  O   -0.454017
    15  C   -0.176837
    16  C   -0.219822
    17  C   -0.171116
    18  C    0.157649
    19  C   -0.170259
    20  C   -0.219868
    21  H    0.246780
    22  H    0.210285
    23  H    0.272049
    24  H    0.275658
    25  H    0.227079
    26  N    0.488251
    27  O   -0.460083
    28  O   -0.462685
 Sum of Mulliken charges =  -0.00000

 Dipole moment (field-independent basis, Debye):
    X=              5.0122    Y=              2.4179    Z=              0.8859  Tot=              5.6350
 Quadrupole moment (field-independent basis, Debye-Ang):
   XX=           -130.9825   YY=           -102.8121   ZZ=           -104.1247
   XY=             31.9897   XZ=             -6.3379   YZ=              1.5996

 Normal termination of Gaussian 16 at Fri May  7 12:44:29 2021.
