 Gaussian 16, Revision A.03,
 Gaussian 16:  EM64L-G16RevA.03 25-Dec-2016

 -------------
 #p 6-31g* mp2
 -------------

 ------------------------------------------------------
 Input file generated by CHIRIPA (05-May-2021 14:57:24)
 ------------------------------------------------------
 Symbolic Z-matrix:
 Charge =  0 Multiplicity = 1

                         Standard orientation:
 ---------------------------------------------------------------------
 Center     Atomic      Atomic             Coordinates (Angstroms)
 Number     Number       Type             X           Y           Z
 ---------------------------------------------------------------------
      1          6           0        0.903032    2.031275   -1.108644
      2          6           0        0.650274    0.742183   -1.589138
      3          6           0        1.487458   -0.322064   -1.241216
      4          6           0        2.573279   -0.060236   -0.407111
      5          6           0        2.851441    1.212955    0.087763
      6          6           0        2.000874    2.262140   -0.273199
      7          1           0        0.247489    2.852158   -1.383983
      8          1           0       -0.201585    0.559948   -2.238115
      9          1           0        1.315017   -1.329886   -1.598952
     10          1           0        3.708400    1.363614    0.733009
     11          1           0        2.199604    3.262234    0.101452
     12          7           0        3.466652   -1.178933   -0.031879
     13          8           0        4.416690   -0.922089    0.704392
     14          8           0        3.199924   -2.291431   -0.481148
     15          6           0       -1.027193    0.569047    2.451034
     16          6           0       -1.407776   -0.768000    2.296169
     17          6           0       -2.182782   -1.163428    1.201843
     18          6           0       -2.561275   -0.191153    0.277333
     19          6           0       -2.197953    1.148719    0.403932
     20          6           0       -1.422799    1.521460    1.506087
     21          1           0       -0.425091    0.867412    3.304176
     22          1           0       -1.101991   -1.509818    3.028459
     23          1           0       -2.491413   -2.191694    1.057511
     24          1           0       -2.518035    1.865433   -0.342585
     25          1           0       -1.128700    2.560545    1.623796
     26          7           0       -3.381818   -0.597766   -0.885325
     27          8           0       -3.702387    0.278029   -1.685860
     28          8           0       -3.688853   -1.784565   -0.974067
 ---------------------------------------------------------------------

 SCF Done:  E(RHF) =  -868.336201359     A.U. after   16 cycles
 E2 =    -0.2604513514D+01 EUMP2 =    -0.87094071487336D+03

 The electronic state is 1-A.
 Alpha  occ. eigenvalues --  -20.61446 -20.61414 -20.61071 -20.61054 -15.86467
 Alpha  occ. eigenvalues --  -15.86117 -11.31677 -11.31474 -11.28303 -11.28178
 Alpha  occ. eigenvalues --  -11.28092 -11.27977 -11.27910 -11.27814 -11.27259
 Alpha  occ. eigenvalues --  -11.27152 -11.27121 -11.26953  -1.60511  -1.60144
 Alpha  occ. eigenvalues --   -1.40067  -1.39696  -1.19870  -1.19630  -1.09262
 Alpha  occ. eigenvalues --   -1.09066  -1.05245  -1.05042  -0.96129  -0.95894
 Alpha  occ. eigenvalues --   -0.86677  -0.86428  -0.82981  -0.82709  -0.78048
 Alpha  occ. eigenvalues --   -0.77757  -0.72681  -0.72336  -0.71850  -0.71471
 Alpha  occ. eigenvalues --   -0.70998  -0.70767  -0.65504  -0.65348  -0.65211
 Alpha  occ. eigenvalues --   -0.65052  -0.62611  -0.62384  -0.55721  -0.55596
 Alpha  occ. eigenvalues --   -0.54314  -0.53339  -0.53141  -0.52656  -0.49460
 Alpha  occ. eigenvalues --   -0.49422  -0.49095  -0.49089  -0.45495  -0.45105
 Alpha  occ. eigenvalues --   -0.38284  -0.37941  -0.36568  -0.36010
 Alpha virt. eigenvalues --    0.04256   0.04954   0.10079   0.11700   0.15614
 Alpha virt. eigenvalues --    0.16655   0.19828   0.21790   0.25928   0.26536
 Alpha virt. eigenvalues --    0.27772   0.29234   0.30406   0.30672   0.31882

 Mulliken charges:
               1
     1  C   -0.170419
     2  C   -0.217141
     3  C   -0.170941
     4  C    0.158529
     5  C   -0.172884
     6  C   -0.221781
     7  H    0.222215
     8  H    0.232118
     9  H    0.278394
    10  H    0.274329
    11  H    0.220210
    12  N    0.487482
    13  O   -0.461902
    14  O   -0.458852
    15  C   -0.169890
    16  C   -0.217475
    17  C   -0.171701
    18  C    0.157683
    19  C   -0.173900
    20  C   -0.208621
    21  H    0.227664
    22  H    0.228273
    23  H    0.277893
    24  H    0.268130
    25  H    0.217984
    26  N    0.486296
    27  O   -0.465477
    28  O   -0.456217
 Sum of Mulliken charges =  -0.00000

 Dipole moment (field-independent basis, Debye):
    X=             -0.2755    Y=              5.1643    Z=              2.8621  Tot=              5.9109
 Quadrupole moment (field-independent basis, Debye-Ang):
   XX=           -136.2338   YY=           -100.0584   ZZ=           -100.2251
   XY=              8.2697   XZ=            -10.3464   YZ=             -1.7698

 Normal termination of Gaussian 16 at Thu May  6 22:49:07 2021.
