 Gaussian 16, Revision A.03,
 Gaussian 16:  EM64L-G16RevA.03 25-Dec-2016

 -------------
 #p 6-31g* mp2
 -------------

 ------------------------------------------------------
 Input file generated by CHIRIPA (05-May-2021 14:55:21)
 ------------------------------------------------------
 Symbolic Z-matrix:
 Charge =  0 Multiplicity = 1

                         Standard orientation:
 ---------------------------------------------------------------------
 Center     Atomic      Atomic             Coordinates (Angstroms)
 Number     Number       Type             X           Y           Z
 ---------------------------------------------------------------------
      1          6           0       -1.772444    2.521153    0.747419
      2          6           0       -3.148726    2.445056    0.509559
      3          6           0       -3.724321    1.259035    0.044163
      4          6           0       -2.890247    0.163508   -0.173623
      5          6           0       -1.515652    0.208035    0.053966
      6          6           0       -0.961729    1.404368    0.519265
      7          1           0       -1.333725    3.446487    1.108912
      8          1           0       -3.780774    3.310779    0.685865
      9          1           0       -4.786819    1.172514   -0.148271
     10          1           0       -0.911264   -0.671678   -0.131071
     11          1           0        0.107422    1.460571    0.703122
     12          7           0       -3.488132   -1.097537   -0.666266
     13          8           0       -2.731641   -2.048584   -0.850297
     14          8           0       -4.701925   -1.111020   -0.859041
     15          6           0        3.956533   -0.193554   -0.479384
     16          6           0        5.041956    0.808944   -0.085891
     17          6           0        5.799685    1.363778   -1.292459
     18          1           0        4.415457   -1.020758   -1.038013
     19          1           0        3.249443    0.292728   -1.165642
     20          1           0        5.746015    0.321326    0.600509
     21          1           0        4.580424    1.633763    0.472032
     22          1           0        5.114128    1.874795   -1.976180
     23          1           0        6.286341    0.554901   -1.846972
     24          1           0        6.570822    2.078408   -0.988308
     25          6           0        3.190241   -0.757087    0.716005
     26          6           0        2.104817   -1.759585    0.322512
     27          6           0        1.347089   -2.314418    1.529079
     28          1           0        3.897330   -1.243368    1.402263
     29          1           0        2.731316    0.070117    1.274634
     30          1           0        2.566349   -2.584403   -0.235411
     31          1           0        1.400759   -1.271966   -0.363889
     32          1           0        0.860432   -1.505541    2.083593
     33          1           0        2.032645   -2.825436    2.212801
     34          1           0        0.575951   -3.029049    1.224929
 ---------------------------------------------------------------------

 SCF Done:  E(RHF) =  -669.535467538     A.U. after   15 cycles
 E2 =    -0.2092189174D+01 EUMP2 =    -0.67162765671255D+03

 The electronic state is 1-A.
 Alpha  occ. eigenvalues --  -20.60755 -20.60750 -15.85806 -11.31159 -11.27746
 Alpha  occ. eigenvalues --  -11.27704 -11.27495 -11.26762 -11.26751 -11.22232
 Alpha  occ. eigenvalues --  -11.22122 -11.22064 -11.21930 -11.21492 -11.21480
 Alpha  occ. eigenvalues --   -1.59829  -1.39382  -1.19343  -1.09028  -1.08741
 Alpha  occ. eigenvalues --   -1.04753  -1.04062  -0.96492  -0.95574  -0.87497
 Alpha  occ. eigenvalues --   -0.86146  -0.82410  -0.80123  -0.78837  -0.77458
 Alpha  occ. eigenvalues --   -0.72028  -0.71150  -0.70471  -0.65714  -0.64992
 Alpha  occ. eigenvalues --   -0.64763  -0.62262  -0.61297  -0.59834  -0.58087
 Alpha  occ. eigenvalues --   -0.55810  -0.55234  -0.53145  -0.53077  -0.52891
 Alpha  occ. eigenvalues --   -0.52826  -0.50446  -0.48784  -0.48784  -0.48415
 Alpha  occ. eigenvalues --   -0.47190  -0.46360  -0.46319  -0.44790  -0.44313
 Alpha  occ. eigenvalues --   -0.37329  -0.36344
 Alpha virt. eigenvalues --    0.05061   0.11295   0.16517   0.18365   0.22790
 Alpha virt. eigenvalues --    0.23672   0.25169   0.25919   0.27217   0.28436
 Alpha virt. eigenvalues --    0.29601   0.30157   0.31349   0.31489   0.32260

 Mulliken charges:
               1
     1  C   -0.170764
     2  C   -0.218911
     3  C   -0.170126
     4  C    0.159740
     5  C   -0.180593
     6  C   -0.224613
     7  H    0.225615
     8  H    0.223416
     9  H    0.275571
    10  H    0.288228
    11  H    0.225609
    12  N    0.487642
    13  O   -0.460559
    14  O   -0.460446
    15  C   -0.298906
    16  C   -0.299375
    17  C   -0.475998
    18  H    0.153684
    19  H    0.147812
    20  H    0.153855
    21  H    0.148463
    22  H    0.155066
    23  H    0.157286
    24  H    0.161280
    25  C   -0.298903
    26  C   -0.305422
    27  C   -0.482319
    28  H    0.153943
    29  H    0.141827
    30  H    0.159706
    31  H    0.145750
    32  H    0.150664
    33  H    0.158955
    34  H    0.172825
 Sum of Mulliken charges =  -0.00000

 Dipole moment (field-independent basis, Debye):
    X=              2.2377    Y=              4.2879    Z=              1.7242  Tot=              5.1349
 Quadrupole moment (field-independent basis, Debye-Ang):
   XX=           -102.2373   YY=            -92.0346   ZZ=            -96.8328
   XY=            -16.0386   XZ=             -4.9623   YZ=             -0.2536

 Normal termination of Gaussian 16 at Wed May  5 19:00:43 2021.
