 Gaussian 16, Revision A.03,
 Gaussian 16:  EM64L-G16RevA.03 25-Dec-2016

 -------------
 #p 6-31g* mp2
 -------------

 ------------------------------------------------------
 Input file generated by CHIRIPA (05-May-2021 14:53:12)
 ------------------------------------------------------
 Symbolic Z-matrix:
 Charge =  0 Multiplicity = 1

                         Standard orientation:
 ---------------------------------------------------------------------
 Center     Atomic      Atomic             Coordinates (Angstroms)
 Number     Number       Type             X           Y           Z
 ---------------------------------------------------------------------
      1          6           0       -2.640535    0.561283    0.860128
      2          6           0       -1.338238    0.034969    1.464281
      3          6           0       -0.470100    1.145526    2.056558
      4          1           0       -2.404074    1.298770    0.080933
      5          1           0       -3.206368    1.096218    1.635417
      6          1           0       -0.775674   -0.500004    0.688432
      7          1           0       -1.577823   -0.701492    2.241996
      8          1           0       -1.008906    1.674202    2.849522
      9          1           0       -0.202199    1.876835    1.287131
     10          1           0        0.455796    0.747067    2.482947
     11          6           0       -3.519173   -0.537066    0.264013
     12          6           0       -4.821470   -0.010752   -0.340140
     13          6           0       -5.689609   -1.121309   -0.932418
     14          1           0       -2.953340   -1.072001   -0.511276
     15          1           0       -3.755634   -1.274553    1.043207
     16          1           0       -4.581886    0.725709   -1.117855
     17          1           0       -5.384034    0.524221    0.435709
     18          1           0       -5.957509   -1.852618   -0.162990
     19          1           0       -5.150802   -1.649985   -1.725381
     20          1           0       -6.615504   -0.722850   -1.358806
     21          6           0        1.131951    2.014186   -1.243625
     22          6           0        2.305599    2.176018   -0.500065
     23          6           0        3.019733    1.061912   -0.049142
     24          6           0        2.529320   -0.205099   -0.361341
     25          6           0        1.363200   -0.398960   -1.100173
     26          6           0        0.665320    0.729478   -1.540782
     27          1           0        0.583508    2.885218   -1.589907
     28          1           0        2.670348    3.172539   -0.267796
     29          1           0        3.931168    1.158410    0.528258
     30          1           0        1.024449   -1.404987   -1.315987
     31          1           0       -0.245853    0.600781   -2.118057
     32          7           0        3.276738   -1.392139    0.110572
     33          8           0        2.823704   -2.497702   -0.177750
     34          8           0        4.301444   -1.194502    0.759842
 ---------------------------------------------------------------------

 SCF Done:  E(RHF) =  -669.533034012     A.U. after   15 cycles
 E2 =    -0.2096130899D+01 EUMP2 =    -0.67162916491173D+03

 The electronic state is 1-A.
 Alpha  occ. eigenvalues --  -20.60848 -20.60843 -15.85903 -11.31309 -11.27872
 Alpha  occ. eigenvalues --  -11.27859 -11.27601 -11.26885 -11.26861 -11.22024
 Alpha  occ. eigenvalues --  -11.21814 -11.21748 -11.21636 -11.21422 -11.21055
 Alpha  occ. eigenvalues --   -1.59923  -1.39476  -1.19495  -1.08901  -1.08750
 Alpha  occ. eigenvalues --   -1.04907  -1.03778  -0.96248  -0.95708  -0.87265
 Alpha  occ. eigenvalues --   -0.86290  -0.82538  -0.79865  -0.78593  -0.77571
 Alpha  occ. eigenvalues --   -0.72120  -0.71250  -0.70598  -0.65478  -0.65136
 Alpha  occ. eigenvalues --   -0.64877  -0.62240  -0.61292  -0.59623  -0.57864
 Alpha  occ. eigenvalues --   -0.55752  -0.55390  -0.53120  -0.52981  -0.52802
 Alpha  occ. eigenvalues --   -0.52587  -0.50192  -0.48883  -0.48873  -0.48159
 Alpha  occ. eigenvalues --   -0.46969  -0.46116  -0.46107  -0.44868  -0.44074
 Alpha  occ. eigenvalues --   -0.37385  -0.36347
 Alpha virt. eigenvalues --    0.04921   0.11011   0.16333   0.20160   0.22932
 Alpha virt. eigenvalues --    0.24205   0.25586   0.26517   0.27297   0.28446
 Alpha virt. eigenvalues --    0.28981   0.30835   0.31354   0.31639   0.31875

 Mulliken charges:
               1
     1  C   -0.297868
     2  C   -0.301366
     3  C   -0.478156
     4  H    0.140046
     5  H    0.151226
     6  H    0.153582
     7  H    0.154100
     8  H    0.152685
     9  H    0.155198
    10  H    0.161389
    11  C   -0.297471
    12  C   -0.299184
    13  C   -0.475677
    14  H    0.143668
    15  H    0.153713
    16  H    0.147728
    17  H    0.153612
    18  H    0.157390
    19  H    0.154246
    20  H    0.160949
    21  C   -0.175006
    22  C   -0.215091
    23  C   -0.170307
    24  C    0.161692
    25  C   -0.174853
    26  C   -0.212298
    27  H    0.226489
    28  H    0.224347
    29  H    0.276185
    30  H    0.276424
    31  H    0.224853
    32  N    0.487878
    33  O   -0.460100
    34  O   -0.460022
 Sum of Mulliken charges =  -0.00000

 Dipole moment (field-independent basis, Debye):
    X=             -2.5270    Y=              4.1585    Z=             -1.6709  Tot=              5.1450
 Quadrupole moment (field-independent basis, Debye-Ang):
   XX=           -106.3269   YY=            -95.5614   ZZ=            -92.7855
   XY=             13.3413   XZ=             -2.4800   YZ=             -0.2842

 Normal termination of Gaussian 16 at Thu May  6 07:18:55 2021.
