 Gaussian 16, Revision A.03,
 Gaussian 16:  EM64L-G16RevA.03 25-Dec-2016

 -------------
 #p 6-31g* mp2
 -------------

 ------------------------------------------------------
 Input file generated by CHIRIPA (05-May-2021 14:57:25)
 ------------------------------------------------------
 Symbolic Z-matrix:
 Charge =  0 Multiplicity = 1

                         Standard orientation:
 ---------------------------------------------------------------------
 Center     Atomic      Atomic             Coordinates (Angstroms)
 Number     Number       Type             X           Y           Z
 ---------------------------------------------------------------------
      1          6           0       -2.545702    2.662656    0.459948
      2          6           0       -3.227436    2.230390   -0.682376
      3          6           0       -3.493229    0.872012   -0.879125
      4          6           0       -3.060960   -0.030809    0.091106
      5          6           0       -2.379535    0.368812    1.239693
      6          6           0       -2.124669    1.732128    1.415652
      7          1           0       -2.343471    3.719794    0.604713
      8          1           0       -3.555598    2.950804   -1.426257
      9          1           0       -4.019067    0.509963   -1.754244
     10          1           0       -2.064865   -0.373002    1.963649
     11          1           0       -1.595022    2.064959    2.303764
     12          7           0       -3.336560   -1.471477   -0.106179
     13          8           0       -2.945211   -2.246879    0.763439
     14          8           0       -3.938704   -1.797991   -1.126692
     15          6           0        5.367676    0.702684   -0.042886
     16          6           0        4.310234    1.530441   -0.434233
     17          6           0        3.002937    1.037306   -0.482622
     18          6           0        2.788142   -0.294539   -0.131427
     19          6           0        3.820697   -1.144172    0.262585
     20          6           0        5.119970   -0.629633    0.303664
     21          1           0        6.380099    1.094076   -0.008135
     22          1           0        4.499646    2.565545   -0.703915
     23          1           0        2.165769    1.656143   -0.781970
     24          1           0        3.600694   -2.171701    0.525646
     25          1           0        5.939252   -1.274785    0.607968
     26          7           0        1.408414   -0.827929   -0.178784
     27          8           0        1.245509   -2.004930    0.135492
     28          8           0        0.516011   -0.058901   -0.529284
 ---------------------------------------------------------------------

 SCF Done:  E(RHF) =  -868.336836896     A.U. after   16 cycles
 E2 =    -0.2600921584D+01 EUMP2 =    -0.87093775848072D+03

 The electronic state is 1-A.
 Alpha  occ. eigenvalues --  -20.60893 -20.60878 -20.59360 -20.59307 -15.85916
 Alpha  occ. eigenvalues --  -15.84392 -11.31356 -11.29768 -11.27955 -11.27903
 Alpha  occ. eigenvalues --  -11.27680 -11.26975 -11.26933 -11.26461 -11.26402
 Alpha  occ. eigenvalues --  -11.26316 -11.25544 -11.25507  -1.59959  -1.58394
 Alpha  occ. eigenvalues --   -1.39508  -1.37954  -1.19534  -1.17994  -1.08917
 Alpha  occ. eigenvalues --   -1.07420  -1.04945  -1.03460  -0.95739  -0.94249
 Alpha  occ. eigenvalues --   -0.86338  -0.84880  -0.82567  -0.81111  -0.77609
 Alpha  occ. eigenvalues --   -0.76113  -0.72140  -0.71293  -0.70644  -0.70636
 Alpha  occ. eigenvalues --   -0.69671  -0.69234  -0.65183  -0.64946  -0.63715
 Alpha  occ. eigenvalues --   -0.63550  -0.62290  -0.60849  -0.55440  -0.54066
 Alpha  occ. eigenvalues --   -0.53276  -0.53037  -0.51744  -0.51625  -0.48906
 Alpha  occ. eigenvalues --   -0.48860  -0.47401  -0.47374  -0.44896  -0.43359
 Alpha  occ. eigenvalues --   -0.37522  -0.36554  -0.35979  -0.34977
 Alpha virt. eigenvalues --    0.04898   0.06502   0.11099   0.12630   0.16400
 Alpha virt. eigenvalues --    0.17923   0.21245   0.22431   0.27143   0.28143
 Alpha virt. eigenvalues --    0.28315   0.29348   0.30795   0.31898   0.32368

 Mulliken charges:
               1
     1  C   -0.171681
     2  C   -0.218894
     3  C   -0.169398
     4  C    0.170171
     5  C   -0.154190
     6  C   -0.217541
     7  H    0.217353
     8  H    0.216749
     9  H    0.271738
    10  H    0.273869
    11  H    0.215325
    12  N    0.489561
    13  O   -0.457683
    14  O   -0.466854
    15  C   -0.170949
    16  C   -0.218585
    17  C   -0.172168
    18  C    0.157961
    19  C   -0.170895
    20  C   -0.218525
    21  H    0.225848
    22  H    0.222428
    23  H    0.273783
    24  H    0.277787
    25  H    0.224467
    26  N    0.487010
    27  O   -0.453091
    28  O   -0.463596
 Sum of Mulliken charges =  -0.00000

 Dipole moment (field-independent basis, Debye):
    X=              6.0841    Y=              6.6154    Z=              0.8819  Tot=              9.0309
 Quadrupole moment (field-independent basis, Debye-Ang):
   XX=            -84.0388   YY=           -103.4004   ZZ=           -101.7777
   XY=            -13.6311   XZ=              0.6240   YZ=             -2.6634

 Normal termination of Gaussian 16 at Thu May  6 01:57:20 2021.
