 Gaussian 16, Revision A.03,
 Gaussian 16:  EM64L-G16RevA.03 25-Dec-2016

 -------------
 #p 6-31g* mp2
 -------------

 ------------------------------------------------------
 Input file generated by CHIRIPA (05-May-2021 14:57:25)
 ------------------------------------------------------
 Symbolic Z-matrix:
 Charge =  0 Multiplicity = 1

                         Standard orientation:
 ---------------------------------------------------------------------
 Center     Atomic      Atomic             Coordinates (Angstroms)
 Number     Number       Type             X           Y           Z
 ---------------------------------------------------------------------
      1          6           0        2.425294    2.459521    0.388502
      2          6           0        2.220619    1.838689   -0.848105
      3          6           0        2.615051    0.512846   -1.050867
      4          6           0        3.213902   -0.165510    0.009557
      5          6           0        3.431418    0.425484    1.253222
      6          6           0        3.028976    1.752184    1.433377
      7          1           0        2.115778    3.489800    0.537231
      8          1           0        1.752033    2.385576   -1.661362
      9          1           0        2.468592    0.007904   -1.997969
     10          1           0        3.901072   -0.145391    2.045021
     11          1           0        3.189186    2.231781    2.394815
     12          7           0        3.635710   -1.569574   -0.193131
     13          8           0        4.161150   -2.145500    0.757057
     14          8           0        3.432895   -2.067567   -1.298349
     15          6           0       -2.512881    2.341235   -0.458707
     16          6           0       -1.617528    1.316641   -0.782854
     17          6           0       -1.956826   -0.020650   -0.556850
     18          6           0       -3.205435   -0.298610   -0.002770
     19          6           0       -4.119155    0.699944    0.330839
     20          6           0       -3.758641    2.030166    0.096126
     21          1           0       -2.241066    3.377329   -0.637655
     22          1           0       -0.649368    1.555265   -1.213863
     23          1           0       -1.282784   -0.833512   -0.798392
     24          1           0       -5.077026    0.430918    0.759238
     25          1           0       -4.455986    2.823819    0.348848
     26          7           0       -3.575865   -1.710598    0.241100
     27          8           0       -4.682002   -1.929177    0.730303
     28          8           0       -2.753056   -2.571998   -0.061576
 ---------------------------------------------------------------------

 SCF Done:  E(RHF) =  -868.336107554     A.U. after   16 cycles
 E2 =    -0.2601163883D+01 EUMP2 =    -0.87093727143686D+03

 The electronic state is 1-A.
 Alpha  occ. eigenvalues --  -20.61185 -20.61175 -20.60829 -20.60812 -15.86249
 Alpha  occ. eigenvalues --  -15.85880 -11.31863 -11.31380 -11.28541 -11.28426
 Alpha  occ. eigenvalues --  -11.28294 -11.27961 -11.27944 -11.27794 -11.27647
 Alpha  occ. eigenvalues --  -11.27467 -11.27031 -11.27007  -1.60253  -1.59898
 Alpha  occ. eigenvalues --   -1.39800  -1.39446  -1.20082  -1.19572  -1.09428
 Alpha  occ. eigenvalues --   -1.08960  -1.05540  -1.04988  -0.96212  -0.95766
 Alpha  occ. eigenvalues --   -0.86929  -0.86390  -0.83057  -0.82587  -0.78061
 Alpha  occ. eigenvalues --   -0.77598  -0.72460  -0.72095  -0.71581  -0.71225
 Alpha  occ. eigenvalues --   -0.71174  -0.70714  -0.65733  -0.65643  -0.65229
 Alpha  occ. eigenvalues --   -0.64965  -0.62897  -0.62306  -0.56019  -0.55551
 Alpha  occ. eigenvalues --   -0.53907  -0.53650  -0.53310  -0.52979  -0.49239
 Alpha  occ. eigenvalues --   -0.49200  -0.48868  -0.48841  -0.45150  -0.44821
 Alpha  occ. eigenvalues --   -0.38081  -0.37583  -0.37155  -0.36545
 Alpha virt. eigenvalues --    0.04486   0.04930   0.10320   0.11123   0.15788
 Alpha virt. eigenvalues --    0.16381   0.19564   0.21875   0.25389   0.27272
 Alpha virt. eigenvalues --    0.28209   0.28518   0.29582   0.31582   0.31650

 Mulliken charges:
               1
     1  C   -0.169331
     2  C   -0.225824
     3  C   -0.174300
     4  C    0.160278
     5  C   -0.167973
     6  C   -0.217635
     7  H    0.225220
     8  H    0.218394
     9  H    0.277266
    10  H    0.279522
    11  H    0.226598
    12  N    0.488255
    13  O   -0.456619
    14  O   -0.458386
    15  C   -0.173760
    16  C   -0.217354
    17  C   -0.173146
    18  C    0.159065
    19  C   -0.171029
    20  C   -0.218238
    21  H    0.220688
    22  H    0.219600
    23  H    0.278783
    24  H    0.276398
    25  H    0.223157
    26  N    0.487737
    27  O   -0.460459
    28  O   -0.456910
 Sum of Mulliken charges =  -0.00000

 Dipole moment (field-independent basis, Debye):
    X=              0.0351    Y=              9.7029    Z=              0.0441  Tot=              9.7030
 Quadrupole moment (field-independent basis, Debye-Ang):
   XX=           -118.2665   YY=           -110.3467   ZZ=           -100.4613
   XY=             -1.7346   XZ=              5.3560   YZ=              0.9036

 Normal termination of Gaussian 16 at Thu May  6 11:24:49 2021.
