 Gaussian 16, Revision A.03,
 Gaussian 16:  EM64L-G16RevA.03 25-Dec-2016

 -------------
 #p 6-31g* mp2
 -------------

 ------------------------------------------------------
 Input file generated by CHIRIPA (05-May-2021 14:53:15)
 ------------------------------------------------------
 Symbolic Z-matrix:
 Charge =  0 Multiplicity = 1

                         Standard orientation:
 ---------------------------------------------------------------------
 Center     Atomic      Atomic             Coordinates (Angstroms)
 Number     Number       Type             X           Y           Z
 ---------------------------------------------------------------------
      1          6           0       -4.010491   -0.634986    0.129311
      2          6           0       -3.091952   -1.601414    0.877836
      3          6           0       -3.638812   -3.028811    0.913552
      4          1           0       -5.000880   -0.637940    0.604774
      5          1           0       -4.155540   -0.998854   -0.897312
      6          1           0       -2.947566   -1.235094    1.902325
      7          1           0       -2.103578   -1.596014    0.400652
      8          1           0       -3.766241   -3.418048   -0.101760
      9          1           0       -4.615024   -3.055078    1.408445
     10          1           0       -2.966510   -3.702910    1.453423
     11          6           0       -3.477354    0.795935    0.085036
     12          6           0       -4.395892    1.762363   -0.663489
     13          6           0       -3.849033    3.189760   -0.699204
     14          1           0       -3.332304    1.159803    1.111659
     15          1           0       -2.486964    0.798889   -0.390427
     16          1           0       -5.384266    1.756963   -0.186305
     17          1           0       -4.540279    1.396043   -1.687978
     18          1           0       -2.872820    3.216026   -1.194098
     19          1           0       -3.721603    3.578997    0.316107
     20          1           0       -4.521334    3.863859   -1.239076
     21          6           0        1.840447   -2.148960   -0.999169
     22          6           0        3.232108   -2.079507   -0.876798
     23          6           0        3.843818   -0.928683   -0.370871
     24          6           0        3.029784    0.138805    0.004772
     25          6           0        1.640638    0.100030   -0.105047
     26          6           0        1.050546   -1.060888   -0.613583
     27          1           0        1.373652   -3.046869   -1.393199
     28          1           0        3.848056   -2.922984   -1.175461
     29          1           0        4.918903   -0.848072   -0.265457
     30          1           0        1.052980    0.957013    0.200984
     31          1           0       -0.030478   -1.112012   -0.707498
     32          7           0        3.665931    1.362474    0.541755
     33          8           0        2.926520    2.289286    0.865681
     34          8           0        4.891909    1.371603    0.628549
 ---------------------------------------------------------------------

 SCF Done:  E(RHF) =  -669.535471058     A.U. after   15 cycles
 E2 =    -0.2091321334D+01 EUMP2 =    -0.67162679239231D+03

 The electronic state is 1-A.
 Alpha  occ. eigenvalues --  -20.60739 -20.60734 -15.85792 -11.31159 -11.27735
 Alpha  occ. eigenvalues --  -11.27724 -11.27479 -11.26750 -11.26725 -11.22483
 Alpha  occ. eigenvalues --  -11.22119 -11.22077 -11.22030 -11.21814 -11.21374
 Alpha  occ. eigenvalues --   -1.59815  -1.39368  -1.19335  -1.09112  -1.08730
 Alpha  occ. eigenvalues --   -1.04739  -1.04148  -0.96575  -0.95564  -0.87591
 Alpha  occ. eigenvalues --   -0.86140  -0.82399  -0.80230  -0.78925  -0.77440
 Alpha  occ. eigenvalues --   -0.72011  -0.71138  -0.70444  -0.65793  -0.64987
 Alpha  occ. eigenvalues --   -0.64734  -0.62116  -0.61522  -0.59955  -0.58187
 Alpha  occ. eigenvalues --   -0.55859  -0.55245  -0.53266  -0.53070  -0.53002
 Alpha  occ. eigenvalues --   -0.52835  -0.50519  -0.48782  -0.48765  -0.48514
 Alpha  occ. eigenvalues --   -0.47267  -0.46453  -0.46363  -0.44773  -0.44414
 Alpha  occ. eigenvalues --   -0.37317  -0.36338
 Alpha virt. eigenvalues --    0.05092   0.11270   0.16554   0.18852   0.22822
 Alpha virt. eigenvalues --    0.23651   0.24543   0.26457   0.27401   0.27990
 Alpha virt. eigenvalues --    0.29607   0.30252   0.31243   0.31310   0.31958

 Mulliken charges:
               1
     1  C   -0.298655
     2  C   -0.303993
     3  C   -0.475984
     4  H    0.153743
     5  H    0.149060
     6  H    0.157182
     7  H    0.143044
     8  H    0.154164
     9  H    0.159262
    10  H    0.161251
    11  C   -0.298299
    12  C   -0.300210
    13  C   -0.476370
    14  H    0.153506
    15  H    0.140838
    16  H    0.154040
    17  H    0.152010
    18  H    0.155658
    19  H    0.157753
    20  H    0.162348
    21  C   -0.172435
    22  C   -0.218558
    23  C   -0.170957
    24  C    0.158747
    25  C   -0.173181
    26  C   -0.225037
    27  H    0.225735
    28  H    0.223306
    29  H    0.275543
    30  H    0.276273
    31  H    0.233090
    32  N    0.488065
    33  O   -0.460295
    34  O   -0.460642
 Sum of Mulliken charges =  -0.00000

 Dipole moment (field-independent basis, Debye):
    X=             -2.4302    Y=             -4.2668    Z=             -1.8285  Tot=              5.2397
 Quadrupole moment (field-independent basis, Debye-Ang):
   XX=           -103.3309   YY=            -96.4491   ZZ=            -94.7300
   XY=            -16.2040   XZ=             -7.0109   YZ=              0.2678

 Normal termination of Gaussian 16 at Thu May  6 02:42:13 2021.
