 Gaussian 16, Revision A.03,
 Gaussian 16:  EM64L-G16RevA.03 25-Dec-2016

 -------------
 #p 6-31g* mp2
 -------------

 ------------------------------------------------------
 Input file generated by CHIRIPA (05-May-2021 14:55:20)
 ------------------------------------------------------
 Symbolic Z-matrix:
 Charge =  0 Multiplicity = 1

                         Standard orientation:
 ---------------------------------------------------------------------
 Center     Atomic      Atomic             Coordinates (Angstroms)
 Number     Number       Type             X           Y           Z
 ---------------------------------------------------------------------
      1          6           0       -2.898338   -2.676752    0.393297
      2          6           0       -1.920223   -1.945622    1.075397
      3          6           0       -1.806680   -0.564783    0.888475
      4          6           0       -2.691765    0.055499    0.008042
      5          6           0       -3.676741   -0.645416   -0.686099
      6          6           0       -3.771935   -2.025464   -0.483728
      7          1           0       -2.979415   -3.749114    0.544503
      8          1           0       -1.240416   -2.448775    1.757119
      9          1           0       -1.058681    0.025523    1.403697
     10          1           0       -4.340080   -0.115964   -1.359211
     11          1           0       -4.532520   -2.590723   -1.014801
     12          7           0       -2.581275    1.516912   -0.198022
     13          8           0       -3.373131    2.039839   -0.979142
     14          8           0       -1.704908    2.111769    0.425487
     15          6           0        3.888196   -0.251237   -0.464718
     16          6           0        3.994135   -1.639719    0.166852
     17          6           0        4.836340   -2.605741   -0.666987
     18          1           0        3.454307   -0.344657   -1.469685
     19          1           0        4.897828    0.161626   -0.597307
     20          1           0        2.984533   -2.049266    0.299482
     21          1           0        4.427645   -1.542962    1.170507
     22          1           0        5.854693   -2.222647   -0.788635
     23          1           0        4.403382   -2.731829   -1.664609
     24          1           0        4.898848   -3.592240   -0.197123
     25          6           0        3.049342    0.725758    0.357190
     26          6           0        2.943403    2.114240   -0.274380
     27          6           0        2.101198    3.080262    0.559458
     28          1           0        2.039709    0.312895    0.489778
     29          1           0        3.483231    0.819179    1.362156
     30          1           0        2.509893    2.017482   -1.278035
     31          1           0        3.953004    2.523788   -0.407011
     32          1           0        2.534156    3.206351    1.557080
     33          1           0        1.082845    2.697168    0.681107
     34          1           0        2.038690    4.066761    0.089594
 ---------------------------------------------------------------------

 SCF Done:  E(RHF) =  -669.536166380     A.U. after   15 cycles
 E2 =    -0.2091333187D+01 EUMP2 =    -0.67162749956657D+03

 The electronic state is 1-A.
 Alpha  occ. eigenvalues --  -20.60940 -20.60928 -15.85975 -11.31297 -11.27861
 Alpha  occ. eigenvalues --  -11.27856 -11.27594 -11.26868 -11.26859 -11.21705
 Alpha  occ. eigenvalues --  -11.21303 -11.21188 -11.21181 -11.21042 -11.20066
 Alpha  occ. eigenvalues --   -1.59999  -1.39556  -1.19465  -1.08868  -1.08244
 Alpha  occ. eigenvalues --   -1.04861  -1.03236  -0.95720  -0.95652  -0.86677
 Alpha  occ. eigenvalues --   -0.86261  -0.82545  -0.79339  -0.78043  -0.77592
 Alpha  occ. eigenvalues --   -0.72201  -0.71314  -0.70572  -0.65123  -0.64894
 Alpha  occ. eigenvalues --   -0.64846  -0.62209  -0.60622  -0.59100  -0.57272
 Alpha  occ. eigenvalues --   -0.55364  -0.54928  -0.53193  -0.52952  -0.52337
 Alpha  occ. eigenvalues --   -0.52086  -0.49614  -0.48955  -0.48936  -0.47629
 Alpha  occ. eigenvalues --   -0.46388  -0.45576  -0.45499  -0.44907  -0.43513
 Alpha  occ. eigenvalues --   -0.37443  -0.36462
 Alpha virt. eigenvalues --    0.04899   0.11166   0.16387   0.20666   0.22965
 Alpha virt. eigenvalues --    0.24196   0.25728   0.27264   0.27640   0.28319
 Alpha virt. eigenvalues --    0.29141   0.30277   0.31567   0.31920   0.32304

 Mulliken charges:
               1
     1  C   -0.170622
     2  C   -0.218831
     3  C   -0.172637
     4  C    0.158046
     5  C   -0.170831
     6  C   -0.218486
     7  H    0.226107
     8  H    0.224348
     9  H    0.277362
    10  H    0.275855
    11  H    0.223873
    12  N    0.492700
    13  O   -0.458785
    14  O   -0.464683
    15  C   -0.297926
    16  C   -0.298436
    17  C   -0.475454
    18  H    0.150124
    19  H    0.150451
    20  H    0.146297
    21  H    0.151487
    22  H    0.156464
    23  H    0.155276
    24  H    0.158349
    25  C   -0.297039
    26  C   -0.299138
    27  C   -0.485899
    28  H    0.143158
    29  H    0.148240
    30  H    0.152772
    31  H    0.149180
    32  H    0.148592
    33  H    0.178791
    34  H    0.161292
 Sum of Mulliken charges =  -0.00000

 Dipole moment (field-independent basis, Debye):
    X=             -0.5713    Y=             -5.0850    Z=              0.6846  Tot=              5.1626
 Quadrupole moment (field-independent basis, Debye-Ang):
   XX=            -89.9647   YY=            -96.4233   ZZ=            -93.2327
   XY=             14.8854   XZ=              1.5272   YZ=             -0.2145

 Normal termination of Gaussian 16 at Thu May  6 06:09:19 2021.
