 Gaussian 16, Revision A.03,
 Gaussian 16:  EM64L-G16RevA.03 25-Dec-2016

 -------------
 #p 6-31g* mp2
 -------------

 ------------------------------------------------------
 Input file generated by CHIRIPA (05-May-2021 14:53:18)
 ------------------------------------------------------
 Symbolic Z-matrix:
 Charge =  0 Multiplicity = 1

                         Standard orientation:
 ---------------------------------------------------------------------
 Center     Atomic      Atomic             Coordinates (Angstroms)
 Number     Number       Type             X           Y           Z
 ---------------------------------------------------------------------
      1          6           0       -4.020381    0.875578    0.211074
      2          6           0       -2.892194    1.814347   -0.217754
      3          6           0       -2.959349    3.175008    0.476425
      4          1           0       -4.986763    1.351537   -0.004596
      5          1           0       -3.977203    0.735212    1.300031
      6          1           0       -2.936642    1.951802   -1.305755
      7          1           0       -1.928385    1.336017   -0.001214
      8          1           0       -2.892171    3.056985    1.562776
      9          1           0       -3.906156    3.676268    0.250822
     10          1           0       -2.143638    3.830244    0.155268
     11          6           0       -3.966786   -0.488647   -0.474306
     12          6           0       -5.094973   -1.427415   -0.045479
     13          6           0       -5.027818   -2.788076   -0.739657
     14          1           0       -4.009965   -0.348280   -1.563264
     15          1           0       -3.000404   -0.964605   -0.258636
     16          1           0       -6.058782   -0.949085   -0.262019
     17          1           0       -5.050525   -1.564870    1.042522
     18          1           0       -4.081011   -3.289336   -0.514055
     19          1           0       -5.094997   -2.670053   -1.826008
     20          1           0       -5.843529   -3.443312   -0.418500
     21          6           0        0.747746   -0.096890    0.960410
     22          6           0        1.131135    0.741502   -0.091556
     23          6           0        2.442836    0.719896   -0.574797
     24          6           0        3.349326   -0.156391    0.019917
     25          6           0        2.997807   -1.003906    1.069412
     26          6           0        1.680661   -0.965387    1.536521
     27          1           0       -0.273330   -0.073537    1.329537
     28          1           0        0.408748    1.417004   -0.540888
     29          1           0        2.766521    1.358183   -1.387963
     30          1           0        3.740329   -1.666577    1.497135
     31          1           0        1.385733   -1.617622    2.353621
     32          7           0        4.740848   -0.188216   -0.483129
     33          8           0        5.520547   -0.969262    0.057863
     34          8           0        5.025475    0.568488   -1.408885
 ---------------------------------------------------------------------

 SCF Done:  E(RHF) =  -669.535099634     A.U. after   15 cycles
 E2 =    -0.2091921277D+01 EUMP2 =    -0.67162702091112D+03

 The electronic state is 1-A.
 Alpha  occ. eigenvalues --  -20.60738 -20.60733 -15.85791 -11.31155 -11.27722
 Alpha  occ. eigenvalues --  -11.27710 -11.27460 -11.26748 -11.26696 -11.22878
 Alpha  occ. eigenvalues --  -11.22424 -11.22358 -11.22282 -11.22119 -11.21688
 Alpha  occ. eigenvalues --   -1.59813  -1.39367  -1.19325  -1.09423  -1.08724
 Alpha  occ. eigenvalues --   -1.04730  -1.04472  -0.96884  -0.95562  -0.87898
 Alpha  occ. eigenvalues --   -0.86135  -0.82390  -0.80575  -0.79217  -0.77434
 Alpha  occ. eigenvalues --   -0.72010  -0.71136  -0.70465  -0.66095  -0.64978
 Alpha  occ. eigenvalues --   -0.64740  -0.62158  -0.61790  -0.60260  -0.58498
 Alpha  occ. eigenvalues --   -0.56160  -0.55242  -0.53576  -0.53295  -0.53057
 Alpha  occ. eigenvalues --   -0.52827  -0.50824  -0.48878  -0.48765  -0.48744
 Alpha  occ. eigenvalues --   -0.47611  -0.46740  -0.46660  -0.44773  -0.44723
 Alpha  occ. eigenvalues --   -0.37309  -0.36327
 Alpha virt. eigenvalues --    0.05089   0.11313   0.16556   0.18920   0.22373
 Alpha virt. eigenvalues --    0.23687   0.24974   0.25604   0.26389   0.28093
 Alpha virt. eigenvalues --    0.29528   0.29941   0.30896   0.31290   0.32358

 Mulliken charges:
               1
     1  C   -0.298678
     2  C   -0.307605
     3  C   -0.476110
     4  H    0.154758
     5  H    0.148479
     6  H    0.156526
     7  H    0.143181
     8  H    0.156218
     9  H    0.160749
    10  H    0.160692
    11  C   -0.298954
    12  C   -0.300255
    13  C   -0.476143
    14  H    0.152805
    15  H    0.144943
    16  H    0.154371
    17  H    0.151461
    18  H    0.155021
    19  H    0.157081
    20  H    0.162599
    21  C   -0.174363
    22  C   -0.222098
    23  C   -0.171041
    24  C    0.158605
    25  C   -0.171089
    26  C   -0.218415
    27  H    0.227202
    28  H    0.228748
    29  H    0.275608
    30  H    0.275453
    31  H    0.223152
    32  N    0.487996
    33  O   -0.460478
    34  O   -0.460420
 Sum of Mulliken charges =  -0.00000

 Dipole moment (field-independent basis, Debye):
    X=             -5.1568    Y=              0.1437    Z=              1.7231  Tot=              5.4389
 Quadrupole moment (field-independent basis, Debye-Ang):
   XX=           -126.5931   YY=            -93.2873   ZZ=            -92.4318
   XY=             -0.2227   XZ=              7.3290   YZ=             -3.7613

 Normal termination of Gaussian 16 at Thu May  6 09:09:26 2021.
