 Gaussian 16, Revision A.03,
 Gaussian 16:  EM64L-G16RevA.03 25-Dec-2016

 -------------
 #p 6-31g* mp2
 -------------

 ------------------------------------------------------
 Input file generated by CHIRIPA (05-May-2021 14:57:22)
 ------------------------------------------------------
 Symbolic Z-matrix:
 Charge =  0 Multiplicity = 1

                         Standard orientation:
 ---------------------------------------------------------------------
 Center     Atomic      Atomic             Coordinates (Angstroms)
 Number     Number       Type             X           Y           Z
 ---------------------------------------------------------------------
      1          6           0        1.363189   -2.474542    0.884402
      2          6           0        0.749471   -1.340479    1.426409
      3          6           0        1.211673   -0.060863    1.104694
      4          6           0        2.294663    0.048421    0.233787
      5          6           0        2.927233   -1.062289   -0.322511
      6          6           0        2.448199   -2.332079    0.013208
      7          1           0        0.997601   -3.464762    1.139758
      8          1           0       -0.093344   -1.448097    2.103259
      9          1           0        0.755178    0.834019    1.509929
     10          1           0        3.765475   -0.923185   -0.994389
     11          1           0        2.926772   -3.211033   -0.409228
     12          7           0        2.792886    1.397892   -0.114212
     13          8           0        3.748621    1.467303   -0.883880
     14          8           0        2.218223    2.360644    0.389285
     15          6           0       -2.235418    2.642905    0.228329
     16          6           0       -1.408450    2.148567   -0.785709
     17          6           0       -1.387647    0.782465   -1.082160
     18          6           0       -2.210340   -0.064698   -0.341362
     19          6           0       -3.045158    0.397417    0.674915
     20          6           0       -3.049697    1.767296    0.954126
     21          1           0       -2.245261    3.705592    0.451924
     22          1           0       -0.775015    2.826243   -1.351006
     23          1           0       -0.757046    0.372935   -1.861932
     24          1           0       -3.665482   -0.302711    1.221211
     25          1           0       -3.692938    2.148393    1.742194
     26          7           0       -2.196925   -1.512928   -0.646075
     27          8           0       -2.931102   -2.238522    0.021109
     28          8           0       -1.452490   -1.895033   -1.546324
 ---------------------------------------------------------------------

 SCF Done:  E(RHF) =  -868.339289599     A.U. after   16 cycles
 E2 =    -0.2604275376D+01 EUMP2 =    -0.87094356497540D+03

 The electronic state is 1-A.
 Alpha  occ. eigenvalues --  -20.61202 -20.61153 -20.60960 -20.60936 -15.86199
 Alpha  occ. eigenvalues --  -15.85985 -11.31378 -11.30991 -11.27980 -11.27831
 Alpha  occ. eigenvalues --  -11.27587 -11.27571 -11.27562 -11.27173 -11.26951
 Alpha  occ. eigenvalues --  -11.26751 -11.26421 -11.26397  -1.60251  -1.60035
 Alpha  occ. eigenvalues --   -1.39809  -1.39595  -1.19559  -1.19153  -1.08950
 Alpha  occ. eigenvalues --   -1.08588  -1.04912  -1.04516  -0.95822  -0.95482
 Alpha  occ. eigenvalues --   -0.86285  -0.85922  -0.82654  -0.82338  -0.77735
 Alpha  occ. eigenvalues --   -0.77450  -0.72436  -0.72213  -0.71605  -0.71362
 Alpha  occ. eigenvalues --   -0.70599  -0.70213  -0.65169  -0.64846  -0.64802
 Alpha  occ. eigenvalues --   -0.64503  -0.62233  -0.61888  -0.55355  -0.54967
 Alpha  occ. eigenvalues --   -0.53539  -0.52957  -0.52648  -0.52519  -0.49207
 Alpha  occ. eigenvalues --   -0.49180  -0.48983  -0.48934  -0.45252  -0.45077
 Alpha  occ. eigenvalues --   -0.37721  -0.37174  -0.36588  -0.35629
 Alpha virt. eigenvalues --    0.04677   0.05087   0.10904   0.11793   0.16216
 Alpha virt. eigenvalues --    0.16745   0.21391   0.21805   0.27284   0.27501
 Alpha virt. eigenvalues --    0.28263   0.28657   0.30900   0.31421   0.32431

 Mulliken charges:
               1
     1  C   -0.158051
     2  C   -0.230854
     3  C   -0.169168
     4  C    0.151754
     5  C   -0.170362
     6  C   -0.216215
     7  H    0.232846
     8  H    0.225450
     9  H    0.274263
    10  H    0.274299
    11  H    0.225067
    12  N    0.487186
    13  O   -0.460293
    14  O   -0.467541
    15  C   -0.172195
    16  C   -0.214281
    17  C   -0.173796
    18  C    0.157354
    19  C   -0.179256
    20  C   -0.220712
    21  H    0.230575
    22  H    0.235560
    23  H    0.276761
    24  H    0.273096
    25  H    0.223849
    26  N    0.489300
    27  O   -0.466570
    28  O   -0.458067
 Sum of Mulliken charges =  -0.00000

 Dipole moment (field-independent basis, Debye):
    X=             -1.7485    Y=              0.2914    Z=              2.1696  Tot=              2.8016
 Quadrupole moment (field-independent basis, Debye-Ang):
   XX=           -109.4299   YY=           -105.0561   ZZ=           -101.6043
   XY=            -24.3867   XZ=             -5.0239   YZ=             -2.3913

 Normal termination of Gaussian 16 at Wed May  5 22:36:55 2021.
