 Gaussian 16, Revision A.03,
 Gaussian 16:  EM64L-G16RevA.03 25-Dec-2016

 -------------
 #p 6-31g* mp2
 -------------

 ------------------------------------------------------
 Input file generated by CHIRIPA (05-May-2021 14:55:23)
 ------------------------------------------------------
 Symbolic Z-matrix:
 Charge =  0 Multiplicity = 1

                         Standard orientation:
 ---------------------------------------------------------------------
 Center     Atomic      Atomic             Coordinates (Angstroms)
 Number     Number       Type             X           Y           Z
 ---------------------------------------------------------------------
      1          6           0        5.589512    1.787103    0.231031
      2          6           0        4.252926    2.103375    0.495664
      3          6           0        3.248145    1.148168    0.315266
      4          6           0        3.617221   -0.119157   -0.133020
      5          6           0        4.940011   -0.464698   -0.405267
      6          6           0        5.928192    0.506334   -0.217799
      7          1           0        6.363602    2.535278    0.373914
      8          1           0        3.986976    3.097229    0.844333
      9          1           0        2.205566    1.366163    0.512560
     10          1           0        5.174286   -1.463935   -0.751760
     11          1           0        6.965380    0.257899   -0.424111
     12          7           0        2.562292   -1.138768   -0.327742
     13          8           0        2.913483   -2.248094   -0.723592
     14          8           0        1.404222   -0.809307   -0.080827
     15          6           0       -5.249457    0.401412   -0.329773
     16          6           0       -6.713111    0.557245    0.084256
     17          6           0       -7.493981    1.488476   -0.843562
     18          1           0       -4.772053    1.390753   -0.345175
     19          1           0       -5.205508    0.017102   -1.358251
     20          1           0       -6.754286    0.939840    1.112138
     21          1           0       -7.187036   -0.432602    0.098860
     22          1           0       -7.482659    1.107815   -1.869997
     23          1           0       -7.047450    2.488053   -0.850963
     24          1           0       -8.537833    1.585531   -0.529212
     25          6           0       -4.455724   -0.526565    0.588147
     26          6           0       -2.992071   -0.682398    0.174119
     27          6           0       -2.211200   -1.613628    1.101936
     28          1           0       -4.499674   -0.142254    1.616625
     29          1           0       -4.933129   -1.515905    0.603549
     30          1           0       -2.518145    0.307449    0.159514
     31          1           0       -2.950896   -1.064992   -0.853764
     32          1           0       -2.657731   -2.613206    1.109337
     33          1           0       -2.222522   -1.232967    2.128371
     34          1           0       -1.167349   -1.710683    0.787586
 ---------------------------------------------------------------------

 SCF Done:  E(RHF) =  -669.536273794     A.U. after   15 cycles
 E2 =    -0.2090697949D+01 EUMP2 =    -0.67162697174271D+03

 The electronic state is 1-A.
 Alpha  occ. eigenvalues --  -20.60969 -20.60958 -15.86000 -11.31305 -11.27866
 Alpha  occ. eigenvalues --  -11.27862 -11.27602 -11.26871 -11.26861 -11.21109
 Alpha  occ. eigenvalues --  -11.20754 -11.20678 -11.20557 -11.20467 -11.19549
 Alpha  occ. eigenvalues --   -1.60026  -1.39582  -1.19472  -1.08879  -1.07670
 Alpha  occ. eigenvalues --   -1.04866  -1.02677  -0.95725  -0.95113  -0.86268
 Alpha  occ. eigenvalues --   -0.86136  -0.82558  -0.78783  -0.77611  -0.77449
 Alpha  occ. eigenvalues --   -0.72227  -0.71338  -0.70581  -0.65129  -0.64869
 Alpha  occ. eigenvalues --   -0.64317  -0.62213  -0.60095  -0.58517  -0.56680
 Alpha  occ. eigenvalues --   -0.55371  -0.54437  -0.53199  -0.52959  -0.51755
 Alpha  occ. eigenvalues --   -0.51545  -0.49107  -0.48975  -0.48956  -0.47061
 Alpha  occ. eigenvalues --   -0.45855  -0.45016  -0.44971  -0.44915  -0.42897
 Alpha  occ. eigenvalues --   -0.37450  -0.36466
 Alpha virt. eigenvalues --    0.04916   0.11189   0.16414   0.21313   0.23551
 Alpha virt. eigenvalues --    0.25204   0.27232   0.27353   0.28074   0.28286
 Alpha virt. eigenvalues --    0.28962   0.30884   0.32163   0.32349   0.32509

 Mulliken charges:
               1
     1  C   -0.170543
     2  C   -0.218552
     3  C   -0.170731
     4  C    0.157598
     5  C   -0.170415
     6  C   -0.218620
     7  H    0.226033
     8  H    0.223866
     9  H    0.275890
    10  H    0.275910
    11  H    0.223850
    12  N    0.492330
    13  O   -0.458800
    14  O   -0.463720
    15  C   -0.297295
    16  C   -0.298940
    17  C   -0.475194
    18  H    0.147339
    19  H    0.149215
    20  H    0.150556
    21  H    0.151564
    22  H    0.154878
    23  H    0.153829
    24  H    0.158616
    25  C   -0.297399
    26  C   -0.296444
    27  C   -0.488356
    28  H    0.146460
    29  H    0.148282
    30  H    0.148879
    31  H    0.152459
    32  H    0.149301
    33  H    0.146509
    34  H    0.191646
 Sum of Mulliken charges =  -0.00000

 Dipole moment (field-independent basis, Debye):
    X=              4.0892    Y=              3.5495    Z=              0.6280  Tot=              5.4512
 Quadrupole moment (field-independent basis, Debye-Ang):
   XX=            -67.3394   YY=            -93.5746   ZZ=            -95.5459
   XY=             10.8926   XZ=              0.7786   YZ=              1.5974

 Normal termination of Gaussian 16 at Thu May  6 17:38:35 2021.
