 Gaussian 16, Revision A.03,
 Gaussian 16:  EM64L-G16RevA.03 25-Dec-2016

 -------------
 #p 6-31g* mp2
 -------------

 ------------------------------------------------------
 Input file generated by CHIRIPA (05-May-2021 14:57:26)
 ------------------------------------------------------
 Symbolic Z-matrix:
 Charge =  0 Multiplicity = 1

                         Standard orientation:
 ---------------------------------------------------------------------
 Center     Atomic      Atomic             Coordinates (Angstroms)
 Number     Number       Type             X           Y           Z
 ---------------------------------------------------------------------
      1          6           0        4.637525   -2.216942   -0.830664
      2          6           0        5.464284   -1.099295   -0.985117
      3          6           0        5.030095    0.166437   -0.580207
      4          6           0        3.757573    0.278727   -0.022203
      5          6           0        2.910557   -0.815779    0.144864
      6          6           0        3.365543   -2.071873   -0.267160
      7          1           0        4.982891   -3.196449   -1.147971
      8          1           0        6.452604   -1.208975   -1.422425
      9          1           0        5.649588    1.048476   -0.688147
     10          1           0        1.930432   -0.675018    0.584136
     11          1           0        2.721316   -2.938092   -0.145991
     12          7           0        3.286908    1.613599    0.410223
     13          8           0        2.161524    1.685995    0.899003
     14          8           0        4.052297    2.562199    0.252190
     15          6           0       -2.109884   -0.486610    1.884091
     16          6           0       -3.306839   -1.210339    1.878076
     17          6           0       -4.269897   -0.981602    0.890784
     18          6           0       -4.001936   -0.017357   -0.079638
     19          6           0       -2.819060    0.719976   -0.100487
     20          6           0       -1.870237    0.474543    0.896531
     21          1           0       -1.367286   -0.670784    2.654821
     22          1           0       -3.495652   -1.957395    2.643779
     23          1           0       -5.205082   -1.527536    0.862444
     24          1           0       -2.659295    1.458225   -0.876942
     25          1           0       -0.941562    1.038105    0.898720
     26          7           0       -5.013948    0.233634   -1.129988
     27          8           0       -4.753850    1.088583   -1.973818
     28          8           0       -6.048097   -0.429341   -1.089535
 ---------------------------------------------------------------------

 SCF Done:  E(RHF) =  -868.339461658     A.U. after   16 cycles
 E2 =    -0.2598766008D+01 EUMP2 =    -0.87093822766606D+03

 The electronic state is 1-A.
 Alpha  occ. eigenvalues --  -20.61669 -20.61601 -20.60540 -20.60531 -15.86681
 Alpha  occ. eigenvalues --  -15.85586 -11.31859 -11.30908 -11.28453 -11.28367
 Alpha  occ. eigenvalues --  -11.28083 -11.27487 -11.27386 -11.27383 -11.27341
 Alpha  occ. eigenvalues --  -11.27183 -11.26524 -11.26291  -1.60693  -1.59614
 Alpha  occ. eigenvalues --   -1.40260  -1.39168  -1.20007  -1.19060  -1.09428
 Alpha  occ. eigenvalues --   -1.08469  -1.05386  -1.04433  -0.96299  -0.95315
 Alpha  occ. eigenvalues --   -0.86792  -0.85831  -0.83146  -0.82129  -0.78224
 Alpha  occ. eigenvalues --   -0.77178  -0.72911  -0.72000  -0.71804  -0.71113
 Alpha  occ. eigenvalues --   -0.70937  -0.70179  -0.65666  -0.65384  -0.64701
 Alpha  occ. eigenvalues --   -0.64387  -0.62746  -0.61750  -0.55877  -0.54954
 Alpha  occ. eigenvalues --   -0.53716  -0.53478  -0.52799  -0.52484  -0.49671
 Alpha  occ. eigenvalues --   -0.49621  -0.48564  -0.48556  -0.45703  -0.44583
 Alpha  occ. eigenvalues --   -0.37962  -0.37070  -0.36978  -0.36043
 Alpha virt. eigenvalues --    0.04305   0.05314   0.10678   0.11552   0.15836
 Alpha virt. eigenvalues --    0.16824   0.20250   0.21867   0.25922   0.27101
 Alpha virt. eigenvalues --    0.28325   0.28812   0.30546   0.31296   0.31872

 Mulliken charges:
               1
     1  C   -0.169939
     2  C   -0.218169
     3  C   -0.170262
     4  C    0.158876
     5  C   -0.170068
     6  C   -0.218048
     7  H    0.228109
     8  H    0.225949
     9  H    0.277186
    10  H    0.268588
    11  H    0.224762
    12  N    0.492594
    13  O   -0.473705
    14  O   -0.454417
    15  C   -0.175626
    16  C   -0.218679
    17  C   -0.172563
    18  C    0.158626
    19  C   -0.172583
    20  C   -0.231199
    21  H    0.224715
    22  H    0.221165
    23  H    0.274091
    24  H    0.277553
    25  H    0.246910
    26  N    0.487946
    27  O   -0.459905
    28  O   -0.461908
 Sum of Mulliken charges =  -0.00000

 Dipole moment (field-independent basis, Debye):
    X=              5.6042    Y=             -5.5319    Z=              2.0836  Tot=              8.1455
 Quadrupole moment (field-independent basis, Debye-Ang):
   XX=           -115.2935   YY=           -104.8486   ZZ=           -105.5503
   XY=             -9.8802   XZ=            -24.1196   YZ=             -2.4859

 Normal termination of Gaussian 16 at Thu May  6 11:29:36 2021.
