 Gaussian 16, Revision A.03,
 Gaussian 16:  EM64L-G16RevA.03 25-Dec-2016

 -------------
 #p 6-31g* mp2
 -------------

 ------------------------------------------------------
 Input file generated by CHIRIPA (05-May-2021 14:55:25)
 ------------------------------------------------------
 Symbolic Z-matrix:
 Charge =  0 Multiplicity = 1

                         Standard orientation:
 ---------------------------------------------------------------------
 Center     Atomic      Atomic             Coordinates (Angstroms)
 Number     Number       Type             X           Y           Z
 ---------------------------------------------------------------------
      1          6           0        4.899685   -1.202870    1.129829
      2          6           0        4.159048   -1.682756    0.044616
      3          6           0        3.230407   -0.860466   -0.600374
      4          6           0        3.067099    0.442227   -0.131747
      5          6           0        3.789950    0.949423    0.946923
      6          6           0        4.713102    0.109375    1.576731
      7          1           0        5.618944   -1.848542    1.624975
      8          1           0        4.301862   -2.701425   -0.304615
      9          1           0        2.643738   -1.206324   -1.442763
     10          1           0        3.625570    1.969492    1.272281
     11          1           0        5.286897    0.484750    2.419285
     12          7           0        2.086894    1.322149   -0.806532
     13          8           0        1.961607    2.465932   -0.374445
     14          8           0        1.462456    0.851386   -1.754740
     15          6           0       -3.397317   -0.244429   -0.129256
     16          6           0       -2.624946   -1.495447   -0.549234
     17          6           0       -1.155261   -1.207259   -0.857078
     18          1           0       -3.328983    0.506422   -0.928317
     19          1           0       -2.915932    0.195558    0.755095
     20          1           0       -3.108457   -1.933723   -1.431701
     21          1           0       -2.695288   -2.243479    0.250839
     22          1           0       -0.652000   -0.791190    0.021680
     23          1           0       -1.067518   -0.479675   -1.670420
     24          1           0       -0.621983   -2.115329   -1.155209
     25          6           0       -4.868024   -0.516416    0.181823
     26          6           0       -5.640394    0.734602    0.601801
     27          6           0       -7.110079    0.446413    0.909646
     28          1           0       -5.349409   -0.956403   -0.702528
     29          1           0       -4.936359   -1.267267    0.980884
     30          1           0       -5.570054    1.482634   -0.198272
     31          1           0       -5.156884    1.172877    1.484268
     32          1           0       -7.197823   -0.281171    1.722987
     33          1           0       -7.613340    0.030346    0.030887
     34          1           0       -7.643359    1.354484    1.207776
 ---------------------------------------------------------------------

 SCF Done:  E(RHF) =  -669.535782769     A.U. after   15 cycles
 E2 =    -0.2091463763D+01 EUMP2 =    -0.67162724653174D+03

 The electronic state is 1-A.
 Alpha  occ. eigenvalues --  -20.60837 -20.60809 -15.85851 -11.31201 -11.27773
 Alpha  occ. eigenvalues --  -11.27758 -11.27516 -11.26785 -11.26772 -11.21128
 Alpha  occ. eigenvalues --  -11.20938 -11.20870 -11.20706 -11.20691 -11.20174
 Alpha  occ. eigenvalues --   -1.59884  -1.39439  -1.19373  -1.08774  -1.07848
 Alpha  occ. eigenvalues --   -1.04773  -1.02937  -0.95621  -0.95366  -0.86389
 Alpha  occ. eigenvalues --   -0.86171  -0.82447  -0.79010  -0.77662  -0.77472
 Alpha  occ. eigenvalues --   -0.72086  -0.71195  -0.70483  -0.65030  -0.64778
 Alpha  occ. eigenvalues --   -0.64482  -0.62120  -0.60334  -0.58774  -0.56989
 Alpha  occ. eigenvalues --   -0.55280  -0.54649  -0.53103  -0.52868  -0.52098
 Alpha  occ. eigenvalues --   -0.51787  -0.49303  -0.48843  -0.48830  -0.47339
 Alpha  occ. eigenvalues --   -0.46042  -0.45279  -0.45120  -0.44653  -0.43205
 Alpha  occ. eigenvalues --   -0.37354  -0.36373
 Alpha virt. eigenvalues --    0.05013   0.11258   0.16490   0.21317   0.23419
 Alpha virt. eigenvalues --    0.24792   0.26979   0.27225   0.27782   0.28083
 Alpha virt. eigenvalues --    0.28904   0.30778   0.31694   0.31964   0.32411

 Mulliken charges:
               1
     1  C   -0.170674
     2  C   -0.218788
     3  C   -0.170174
     4  C    0.157695
     5  C   -0.171066
     6  C   -0.218678
     7  H    0.225614
     8  H    0.223539
     9  H    0.277169
    10  H    0.275534
    11  H    0.223417
    12  N    0.488912
    13  O   -0.460227
    14  O   -0.458510
    15  C   -0.298031
    16  C   -0.300857
    17  C   -0.474228
    18  H    0.154434
    19  H    0.149333
    20  H    0.149690
    21  H    0.146530
    22  H    0.148173
    23  H    0.177217
    24  H    0.148127
    25  C   -0.297846
    26  C   -0.299397
    27  C   -0.475400
    28  H    0.148414
    29  H    0.147220
    30  H    0.153385
    31  H    0.151730
    32  H    0.153766
    33  H    0.154543
    34  H    0.159433
 Sum of Mulliken charges =  -0.00000

 Dipole moment (field-independent basis, Debye):
    X=              3.5974    Y=             -2.9634    Z=              2.2693  Tot=              5.1839
 Quadrupole moment (field-independent basis, Debye-Ang):
   XX=            -75.7166   YY=            -95.3871   ZZ=            -92.8444
   XY=             -7.6185   XZ=              8.5976   YZ=              3.9476

 Normal termination of Gaussian 16 at Thu May  6 11:05:27 2021.
