 Gaussian 16, Revision A.03,
 Gaussian 16:  EM64L-G16RevA.03 25-Dec-2016

 -------------
 #p 6-31g* mp2
 -------------

 ------------------------------------------------------
 Input file generated by CHIRIPA (05-May-2021 14:53:12)
 ------------------------------------------------------
 Symbolic Z-matrix:
 Charge =  0 Multiplicity = 1

                         Standard orientation:
 ---------------------------------------------------------------------
 Center     Atomic      Atomic             Coordinates (Angstroms)
 Number     Number       Type             X           Y           Z
 ---------------------------------------------------------------------
      1          6           0       -3.686770   -0.720300    0.432012
      2          6           0       -2.599178   -1.183499   -0.537821
      3          6           0       -1.378182   -1.763722    0.176535
      4          1           0       -3.265996    0.032751    1.112313
      5          1           0       -3.995878   -1.568944    1.057832
      6          1           0       -2.293193   -0.334567   -1.162564
      7          1           0       -3.022641   -1.935395   -1.216016
      8          1           0       -1.662867   -2.627354    0.786203
      9          1           0       -0.929274   -1.017431    0.839959
     10          1           0       -0.613171   -2.088536   -0.535585
     11          6           0       -4.913831   -0.137822   -0.267108
     12          6           0       -6.001423    0.325378    0.702725
     13          6           0       -7.222419    0.905601   -0.011630
     14          1           0       -4.604722    0.710822   -0.892927
     15          1           0       -5.334605   -0.890872   -0.947408
     16          1           0       -5.577960    1.077273    1.380920
     17          1           0       -6.307408   -0.523554    1.327468
     18          1           0       -7.671327    0.159309   -0.675055
     19          1           0       -6.937734    1.769232   -0.621299
     20          1           0       -7.987430    1.230415    0.700489
     21          6           0        1.385375    1.853663   -0.467649
     22          6           0        1.298100    0.493535   -0.782219
     23          6           0        2.385702   -0.357124   -0.563019
     24          6           0        3.550472    0.188405   -0.025433
     25          6           0        3.668295    1.539180    0.298317
     26          6           0        2.568109    2.371233    0.070665
     27          1           0        0.535611    2.507249   -0.641212
     28          1           0        0.380832    0.088822   -1.200397
     29          1           0        2.345374   -1.413933   -0.797428
     30          1           0        4.595945    1.913515    0.713959
     31          1           0        2.638743    3.427123    0.315920
     32          7           0        4.708529   -0.702302    0.211099
     33          8           0        5.723488   -0.197119    0.685740
     34          8           0        4.579326   -1.888753   -0.082630
 ---------------------------------------------------------------------

 SCF Done:  E(RHF) =  -669.534700523     A.U. after   15 cycles
 E2 =    -0.2092128964D+01 EUMP2 =    -0.67162682948759D+03

 The electronic state is 1-A.
 Alpha  occ. eigenvalues --  -20.60721 -20.60716 -15.85773 -11.31137 -11.27695
 Alpha  occ. eigenvalues --  -11.27679 -11.27433 -11.26726 -11.26641 -11.22579
 Alpha  occ. eigenvalues --  -11.22152 -11.22138 -11.22018 -11.21978 -11.21538
 Alpha  occ. eigenvalues --   -1.59796  -1.39349  -1.19302  -1.09165  -1.08700
 Alpha  occ. eigenvalues --   -1.04718  -1.04257  -0.96708  -0.95537  -0.87726
 Alpha  occ. eigenvalues --   -0.86097  -0.82369  -0.80334  -0.78947  -0.77418
 Alpha  occ. eigenvalues --   -0.71992  -0.71118  -0.70417  -0.65850  -0.64955
 Alpha  occ. eigenvalues --   -0.64722  -0.62238  -0.61521  -0.60050  -0.58302
 Alpha  occ. eigenvalues --   -0.55999  -0.55191  -0.53451  -0.53147  -0.52995
 Alpha  occ. eigenvalues --   -0.52702  -0.50603  -0.48748  -0.48747  -0.48643
 Alpha  occ. eigenvalues --   -0.47379  -0.46487  -0.46407  -0.44756  -0.44517
 Alpha  occ. eigenvalues --   -0.37287  -0.36270
 Alpha virt. eigenvalues --    0.05110   0.11299   0.16567   0.19671   0.22559
 Alpha virt. eigenvalues --    0.23893   0.25630   0.25937   0.26604   0.27775
 Alpha virt. eigenvalues --    0.28873   0.30152   0.30686   0.31182   0.31845

 Mulliken charges:
               1
     1  C   -0.298477
     2  C   -0.303359
     3  C   -0.482614
     4  H    0.149488
     5  H    0.153528
     6  H    0.143395
     7  H    0.156944
     8  H    0.163679
     9  H    0.160795
    10  H    0.153061
    11  C   -0.298494
    12  C   -0.300145
    13  C   -0.476002
    14  H    0.147437
    15  H    0.151575
    16  H    0.151820
    17  H    0.153762
    18  H    0.156299
    19  H    0.154711
    20  H    0.161944
    21  C   -0.173930
    22  C   -0.220653
    23  C   -0.173268
    24  C    0.158797
    25  C   -0.171476
    26  C   -0.218296
    27  H    0.224740
    28  H    0.233915
    29  H    0.275396
    30  H    0.275325
    31  H    0.223029
    32  N    0.488146
    33  O   -0.460674
    34  O   -0.460402
 Sum of Mulliken charges =  -0.00000

 Dipole moment (field-independent basis, Debye):
    X=             -4.2858    Y=              3.0654    Z=             -0.7520  Tot=              5.3226
 Quadrupole moment (field-independent basis, Debye-Ang):
   XX=           -122.9193   YY=            -90.0201   ZZ=            -95.0335
   XY=             13.7973   XZ=             -2.3052   YZ=              1.4624

 Normal termination of Gaussian 16 at Thu May  6 02:31:11 2021.
