 Gaussian 16, Revision A.03,
 Gaussian 16:  EM64L-G16RevA.03 25-Dec-2016

 -------------
 #p 6-31g* mp2
 -------------

 ------------------------------------------------------
 Input file generated by CHIRIPA (05-May-2021 14:51:07)
 ------------------------------------------------------
 Symbolic Z-matrix:
 Charge =  0 Multiplicity = 1

                         Standard orientation:
 ---------------------------------------------------------------------
 Center     Atomic      Atomic             Coordinates (Angstroms)
 Number     Number       Type             X           Y           Z
 ---------------------------------------------------------------------
      1          6           0        2.451486   -1.063053    0.137563
      2          6           0        1.200128   -0.799104    0.975668
      3          6           0        0.176361   -1.930886    0.882043
      4          1           0        2.158625   -1.208653   -0.911236
      5          1           0        2.912987   -2.004342    0.466784
      6          1           0        0.741896    0.142111    0.645892
      7          1           0        1.496022   -0.653926    2.022561
      8          1           0        0.611095   -2.873379    1.230345
      9          1           0       -0.147316   -2.072819   -0.154147
     10          1           0       -0.710170   -1.721512    1.488743
     11          6           0        3.484308    0.059473    0.220876
     12          6           0        4.735666   -0.204476   -0.617229
     13          6           0        5.759433    0.927306   -0.523605
     14          1           0        3.022807    1.000762   -0.108346
     15          1           0        3.777170    0.205073    1.269674
     16          1           0        4.439772   -0.349655   -1.664123
     17          1           0        5.193898   -1.145691   -0.287453
     18          1           0        6.083110    1.069239    0.512585
     19          1           0        5.324699    1.869799   -0.871906
     20          1           0        6.645964    0.717932   -1.130304
     21          6           0       -2.683660    1.156262   -0.451814
     22          6           0       -2.652945    2.281586    0.582925
     23          6           0       -2.081717    3.584470    0.022577
     24          1           0       -1.665040    0.981409   -0.824355
     25          1           0       -3.281478    1.478186   -1.315743
     26          1           0       -2.056511    1.957111    1.445246
     27          1           0       -3.671727    2.453650    0.953184
     28          1           0       -2.680318    3.934668   -0.824558
     29          1           0       -1.055924    3.435308   -0.329700
     30          1           0       -2.069025    4.375366    0.779005
     31          6           0       -3.252134   -0.152681    0.093376
     32          6           0       -3.282849   -1.278007   -0.941363
     33          6           0       -3.854076   -2.580889   -0.381016
     34          1           0       -2.654316   -0.474606    0.957305
     35          1           0       -4.270753    0.022171    0.465916
     36          1           0       -2.264066   -1.450070   -1.311623
     37          1           0       -3.879283   -0.953532   -1.803685
     38          1           0       -4.879870   -2.431728   -0.028738
     39          1           0       -3.255475   -2.931088    0.466120
     40          1           0       -3.866770   -3.371786   -1.137443
 ---------------------------------------------------------------------

 SCF Done:  E(RHF) =  -470.732543801     A.U. after   11 cycles
 E2 =    -0.1584329779D+01 EUMP2 =    -0.47231687358054D+03

 The electronic state is 1-A.
 Alpha  occ. eigenvalues --  -11.21700 -11.21641 -11.21598 -11.21533 -11.21471
 Alpha  occ. eigenvalues --  -11.21408 -11.21377 -11.21293 -11.21143 -11.21100
 Alpha  occ. eigenvalues --  -11.21081 -11.21004  -1.08510  -1.08389  -1.03612
 Alpha  occ. eigenvalues --   -1.03487  -0.96051  -0.95947  -0.87089  -0.86946
 Alpha  occ. eigenvalues --   -0.79667  -0.79563  -0.78307  -0.78224  -0.65315
 Alpha  occ. eigenvalues --   -0.64914  -0.61097  -0.60813  -0.59443  -0.59279
 Alpha  occ. eigenvalues --   -0.57675  -0.57559  -0.55323  -0.55231  -0.52762
 Alpha  occ. eigenvalues --   -0.52642  -0.52511  -0.52337  -0.50111  -0.49778
 Alpha  occ. eigenvalues --   -0.48017  -0.47886  -0.46773  -0.46477  -0.45914
 Alpha  occ. eigenvalues --   -0.45764  -0.45721  -0.45601  -0.43801  -0.43751
 Alpha virt. eigenvalues --    0.19440   0.22980   0.23385   0.24981   0.25391
 Alpha virt. eigenvalues --    0.26118   0.27496   0.27539   0.27826   0.29647
 Alpha virt. eigenvalues --    0.30529   0.30769   0.31761   0.32109   0.32433

 Mulliken charges:
               1
     1  C   -0.298431
     2  C   -0.302922
     3  C   -0.481569
     4  H    0.149633
     5  H    0.150015
     6  H    0.153526
     7  H    0.152404
     8  H    0.155756
     9  H    0.158656
    10  H    0.163204
    11  C   -0.298286
    12  C   -0.299728
    13  C   -0.475762
    14  H    0.149379
    15  H    0.149861
    16  H    0.152047
    17  H    0.152048
    18  H    0.155255
    19  H    0.155297
    20  H    0.160419
    21  C   -0.299765
    22  C   -0.300265
    23  C   -0.475503
    24  H    0.150300
    25  H    0.149536
    26  H    0.152354
    27  H    0.152100
    28  H    0.155234
    29  H    0.154442
    30  H    0.160390
    31  C   -0.301964
    32  C   -0.301409
    33  C   -0.477269
    34  H    0.154095
    35  H    0.149377
    36  H    0.154125
    37  H    0.151546
    38  H    0.154785
    39  H    0.157243
    40  H    0.159844
 Sum of Mulliken charges =  -0.00000

 Dipole moment (field-independent basis, Debye):
    X=              0.0326    Y=             -0.0195    Z=              0.0153  Tot=              0.0409
 Quadrupole moment (field-independent basis, Debye-Ang):
   XX=            -84.6038   YY=            -86.0539   ZZ=            -84.1275
   XY=             -1.4970   XZ=              0.7110   YZ=             -0.1878

 Normal termination of Gaussian 16 at Thu May  6 08:25:09 2021.
