 Gaussian 16, Revision A.03,
 Gaussian 16:  EM64L-G16RevA.03 25-Dec-2016

 -------------
 #p 6-31g* mp2
 -------------

 ------------------------------------------------------
 Input file generated by CHIRIPA (05-May-2021 14:53:15)
 ------------------------------------------------------
 Symbolic Z-matrix:
 Charge =  0 Multiplicity = 1

                         Standard orientation:
 ---------------------------------------------------------------------
 Center     Atomic      Atomic             Coordinates (Angstroms)
 Number     Number       Type             X           Y           Z
 ---------------------------------------------------------------------
      1          6           0       -4.142223   -0.602760    0.403424
      2          6           0       -4.306797   -1.791806   -0.543715
      3          6           0       -4.882805   -3.025888    0.151301
      4          1           0       -3.489006   -0.894058    1.237329
      5          1           0       -5.118423   -0.355079    0.842837
      6          1           0       -3.330829   -2.036292   -0.982269
      7          1           0       -4.959544   -1.497585   -1.375563
      8          1           0       -5.868221   -2.805093    0.574156
      9          1           0       -4.230252   -3.346861    0.969684
     10          1           0       -4.992070   -3.863936   -0.544111
     11          6           0       -3.567429    0.638503   -0.276728
     12          6           0       -3.402856    1.827548    0.670411
     13          6           0       -2.826847    3.061631   -0.024605
     14          1           0       -2.591230    0.390822   -0.716141
     15          1           0       -4.220647    0.929800   -1.110632
     16          1           0       -2.750108    1.533327    1.502259
     17          1           0       -4.378824    2.072034    1.108965
     18          1           0       -3.479401    3.382604   -0.842988
     19          1           0       -1.841431    2.840836   -0.447459
     20          1           0       -2.717583    3.899678    0.670807
     21          6           0        1.287788    1.810321   -0.307264
     22          6           0        0.903347    0.467756   -0.386275
     23          6           0        1.849928   -0.551342   -0.244938
     24          6           0        3.178233   -0.190326   -0.024570
     25          6           0        3.592403    1.138113    0.059100
     26          6           0        2.628725    2.140632   -0.085220
     27          1           0        0.545822    2.595541   -0.418217
     28          1           0       -0.137330    0.208280   -0.558638
     29          1           0        1.579783   -1.598821   -0.301740
     30          1           0        4.637308    1.365667    0.231757
     31          1           0        2.930168    3.182437   -0.023402
     32          7           0        4.189385   -1.260425    0.126636
     33          8           0        5.353287   -0.916109    0.320074
     34          8           0        3.798879   -2.423218    0.048851
 ---------------------------------------------------------------------

 SCF Done:  E(RHF) =  -669.535085183     A.U. after   15 cycles
 E2 =    -0.2092050661D+01 EUMP2 =    -0.67162713584385D+03

 The electronic state is 1-A.
 Alpha  occ. eigenvalues --  -20.60744 -20.60739 -15.85798 -11.31159 -11.27732
 Alpha  occ. eigenvalues --  -11.27727 -11.27446 -11.26737 -11.26725 -11.22655
 Alpha  occ. eigenvalues --  -11.22474 -11.22338 -11.22287 -11.22177 -11.21573
 Alpha  occ. eigenvalues --   -1.59820  -1.39374  -1.19331  -1.09361  -1.08725
 Alpha  occ. eigenvalues --   -1.04737  -1.04415  -0.96884  -0.95562  -0.87896
 Alpha  occ. eigenvalues --   -0.86137  -0.82398  -0.80491  -0.79145  -0.77445
 Alpha  occ. eigenvalues --   -0.72016  -0.71143  -0.70466  -0.66068  -0.64983
 Alpha  occ. eigenvalues --   -0.64709  -0.62121  -0.61773  -0.60252  -0.58476
 Alpha  occ. eigenvalues --   -0.56316  -0.55162  -0.53545  -0.53285  -0.53063
 Alpha  occ. eigenvalues --   -0.52830  -0.50807  -0.48798  -0.48772  -0.48766
 Alpha  occ. eigenvalues --   -0.47529  -0.46677  -0.46590  -0.44780  -0.44673
 Alpha  occ. eigenvalues --   -0.37307  -0.36341
 Alpha virt. eigenvalues --    0.05093   0.11300   0.16585   0.18068   0.22474
 Alpha virt. eigenvalues --    0.23763   0.24660   0.25557   0.26433   0.28453
 Alpha virt. eigenvalues --    0.29015   0.30739   0.30847   0.31285   0.31693

 Mulliken charges:
               1
     1  C   -0.299462
     2  C   -0.299585
     3  C   -0.476385
     4  H    0.150808
     5  H    0.153112
     6  H    0.148894
     7  H    0.153773
     8  H    0.156619
     9  H    0.156693
    10  H    0.162933
    11  C   -0.303071
    12  C   -0.301608
    13  C   -0.479007
    14  H    0.142534
    15  H    0.154318
    16  H    0.153947
    17  H    0.157678
    18  H    0.160938
    19  H    0.144207
    20  H    0.164327
    21  C   -0.178434
    22  C   -0.227363
    23  C   -0.172958
    24  C    0.158676
    25  C   -0.170880
    26  C   -0.219165
    27  H    0.233446
    28  H    0.232835
    29  H    0.275925
    30  H    0.275446
    31  H    0.223887
    32  N    0.488004
    33  O   -0.460524
    34  O   -0.460556
 Sum of Mulliken charges =  -0.00000

 Dipole moment (field-independent basis, Debye):
    X=             -3.8464    Y=              3.7662    Z=             -0.4690  Tot=              5.4036
 Quadrupole moment (field-independent basis, Debye-Ang):
   XX=           -113.1487   YY=            -94.6245   ZZ=            -95.5975
   XY=             14.8654   XZ=             -0.8853   YZ=              0.8425

 Normal termination of Gaussian 16 at Thu May  6 10:34:32 2021.
