 Gaussian 16, Revision A.03,
 Gaussian 16:  EM64L-G16RevA.03 25-Dec-2016

 -------------
 #p 6-31g* mp2
 -------------

 ------------------------------------------------------
 Input file generated by CHIRIPA (05-May-2021 14:53:15)
 ------------------------------------------------------
 Symbolic Z-matrix:
 Charge =  0 Multiplicity = 1

                         Standard orientation:
 ---------------------------------------------------------------------
 Center     Atomic      Atomic             Coordinates (Angstroms)
 Number     Number       Type             X           Y           Z
 ---------------------------------------------------------------------
      1          6           0       -3.743971   -0.075951   -0.580228
      2          6           0       -5.079862    0.631682   -0.350802
      3          6           0       -5.623296    1.293760   -1.617343
      4          1           0       -3.011882    0.650332   -0.959047
      5          1           0       -3.868478   -0.833362   -1.366499
      6          1           0       -4.953207    1.386584    0.435772
      7          1           0       -5.808803   -0.096329    0.027696
      8          1           0       -5.777950    0.549418   -2.405149
      9          1           0       -4.917493    2.040756   -1.994755
     10          1           0       -6.578839    1.793706   -1.430658
     11          6           0       -3.187875   -0.742697    0.676727
     12          6           0       -1.851985   -1.450330    0.447300
     13          6           0       -1.308550   -2.112408    1.713841
     14          1           0       -3.063368    0.014714    1.462997
     15          1           0       -3.919964   -1.468980    1.055545
     16          1           0       -1.123044   -0.722319    0.068802
     17          1           0       -1.978639   -2.205232   -0.339273
     18          1           0       -2.014353   -2.859404    2.091253
     19          1           0       -1.153896   -1.368066    2.501647
     20          1           0       -0.353007   -2.612354    1.527156
     21          6           0        1.757080    2.206055    1.342207
     22          6           0        1.279634    0.902708    1.514984
     23          6           0        1.799042   -0.150176    0.755907
     24          6           0        2.799660    0.137427   -0.171099
     25          6           0        3.296132    1.425328   -0.366335
     26          6           0        2.762034    2.462752    0.403753
     27          1           0        1.347885    3.017955    1.936153
     28          1           0        0.499232    0.700408    2.243060
     29          1           0        1.447755   -1.168587    0.869286
     30          1           0        4.074700    1.595952   -1.099913
     31          1           0        3.134747    3.473963    0.267436
     32          7           0        3.357310   -0.969031   -0.980529
     33          8           0        4.238327   -0.689448   -1.790639
     34          8           0        2.902820   -2.094905   -0.789522
 ---------------------------------------------------------------------

 SCF Done:  E(RHF) =  -669.534899748     A.U. after   15 cycles
 E2 =    -0.2093000343D+01 EUMP2 =    -0.67162790009140D+03

 The electronic state is 1-A.
 Alpha  occ. eigenvalues --  -20.60762 -20.60757 -15.85815 -11.31168 -11.27757
 Alpha  occ. eigenvalues --  -11.27700 -11.27500 -11.26771 -11.26745 -11.22055
 Alpha  occ. eigenvalues --  -11.21909 -11.21857 -11.21846 -11.21699 -11.21315
 Alpha  occ. eigenvalues --   -1.59837  -1.39391  -1.19357  -1.08852  -1.08751
 Alpha  occ. eigenvalues --   -1.04774  -1.03973  -0.96463  -0.95582  -0.87470
 Alpha  occ. eigenvalues --   -0.86156  -0.82418  -0.80030  -0.78636  -0.77468
 Alpha  occ. eigenvalues --   -0.72036  -0.71159  -0.70481  -0.65522  -0.64996
 Alpha  occ. eigenvalues --   -0.64781  -0.62304  -0.61236  -0.59783  -0.58040
 Alpha  occ. eigenvalues --   -0.55766  -0.55229  -0.53227  -0.53095  -0.52991
 Alpha  occ. eigenvalues --   -0.52609  -0.50391  -0.48792  -0.48787  -0.48344
 Alpha  occ. eigenvalues --   -0.47063  -0.46181  -0.46100  -0.44796  -0.44221
 Alpha  occ. eigenvalues --   -0.37344  -0.36319
 Alpha virt. eigenvalues --    0.05036   0.11269   0.16437   0.19585   0.22805
 Alpha virt. eigenvalues --    0.23848   0.25397   0.26339   0.26828   0.27867
 Alpha virt. eigenvalues --    0.28800   0.30436   0.31406   0.31641   0.32620

 Mulliken charges:
               1
     1  C   -0.298866
     2  C   -0.299731
     3  C   -0.475900
     4  H    0.150203
     5  H    0.152581
     6  H    0.150041
     7  H    0.152828
     8  H    0.156826
     9  H    0.155068
    10  H    0.160698
    11  C   -0.297172
    12  C   -0.306493
    13  C   -0.485942
    14  H    0.143974
    15  H    0.151641
    16  H    0.154479
    17  H    0.159896
    18  H    0.163415
    19  H    0.146252
    20  H    0.164757
    21  C   -0.171212
    22  C   -0.223954
    23  C   -0.175448
    24  C    0.157629
    25  C   -0.170404
    26  C   -0.218919
    27  H    0.225631
    28  H    0.227039
    29  H    0.285447
    30  H    0.275627
    31  H    0.223400
    32  N    0.487744
    33  O   -0.460423
    34  O   -0.460712
 Sum of Mulliken charges =  -0.00000

 Dipole moment (field-independent basis, Debye):
    X=             -2.0609    Y=              3.8167    Z=              2.7666  Tot=              5.1448
 Quadrupole moment (field-independent basis, Debye-Ang):
   XX=           -104.1357   YY=            -91.1973   ZZ=            -96.0634
   XY=             13.9864   XZ=              6.6197   YZ=             -1.2911

 Normal termination of Gaussian 16 at Thu May  6 12:10:59 2021.
