 Gaussian 16, Revision A.03,
 Gaussian 16:  EM64L-G16RevA.03 25-Dec-2016

 -------------
 #p 6-31g* mp2
 -------------

 ------------------------------------------------------
 Input file generated by CHIRIPA (05-May-2021 14:55:20)
 ------------------------------------------------------
 Symbolic Z-matrix:
 Charge =  0 Multiplicity = 1

                         Standard orientation:
 ---------------------------------------------------------------------
 Center     Atomic      Atomic             Coordinates (Angstroms)
 Number     Number       Type             X           Y           Z
 ---------------------------------------------------------------------
      1          6           0        1.712497    2.321652    0.465946
      2          6           0        1.240059    1.018176    0.651081
      3          6           0        2.069250   -0.079600    0.402330
      4          6           0        3.371173    0.163728   -0.032500
      5          6           0        3.871033    1.450535   -0.226303
      6          6           0        3.024163    2.533298    0.028616
      7          1           0        1.061495    3.168600    0.661577
      8          1           0        0.221857    0.850807    0.990635
      9          1           0        1.729233   -1.099189    0.537407
     10          1           0        4.890825    1.585741   -0.565657
     11          1           0        3.393761    3.544495   -0.116027
     12          7           0        4.258358   -0.990492   -0.299106
     13          8           0        5.401303   -0.749410   -0.681456
     14          8           0        3.793989   -2.114396   -0.120672
     15          6           0       -3.367774   -0.455163    0.060007
     16          6           0       -2.784630   -1.850298    0.286999
     17          6           0       -1.262820   -1.838109    0.434449
     18          1           0       -2.914289   -0.017074   -0.839646
     19          1           0       -3.085066    0.193972    0.900302
     20          1           0       -3.069515   -2.496984   -0.552795
     21          1           0       -3.239697   -2.285193    1.186107
     22          1           0       -0.963039   -1.215622    1.283709
     23          1           0       -0.791892   -1.428616   -0.465074
     24          1           0       -0.867035   -2.845655    0.595899
     25          6           0       -4.888109   -0.450969   -0.089295
     26          6           0       -5.471253    0.944166   -0.316286
     27          6           0       -6.993062    0.931978   -0.463737
     28          1           0       -5.170815   -1.100105   -0.929589
     29          1           0       -5.341593   -0.889058    0.810358
     30          1           0       -5.016187    1.379061   -1.215395
     31          1           0       -5.186367    1.590852    0.523507
     32          1           0       -7.463991    0.522484    0.435787
     33          1           0       -7.292844    0.309490   -1.312996
     34          1           0       -7.388848    1.939523   -0.625185
 ---------------------------------------------------------------------

 SCF Done:  E(RHF) =  -669.535115619     A.U. after   15 cycles
 E2 =    -0.2092040620D+01 EUMP2 =    -0.67162715623906D+03

 The electronic state is 1-A.
 Alpha  occ. eigenvalues --  -20.60675 -20.60670 -15.85726 -11.31059 -11.27644
 Alpha  occ. eigenvalues --  -11.27571 -11.27372 -11.26659 -11.26573 -11.22321
 Alpha  occ. eigenvalues --  -11.22141 -11.22131 -11.22010 -11.21946 -11.21498
 Alpha  occ. eigenvalues --   -1.59751  -1.39305  -1.19233  -1.09090  -1.08637
 Alpha  occ. eigenvalues --   -1.04644  -1.04179  -0.96669  -0.95474  -0.87699
 Alpha  occ. eigenvalues --   -0.86030  -0.82318  -0.80278  -0.78906  -0.77337
 Alpha  occ. eigenvalues --   -0.71945  -0.71074  -0.70345  -0.65717  -0.64887
 Alpha  occ. eigenvalues --   -0.64648  -0.62037  -0.61567  -0.60010  -0.58237
 Alpha  occ. eigenvalues --   -0.55967  -0.55150  -0.53351  -0.53137  -0.52923
 Alpha  occ. eigenvalues --   -0.52673  -0.50598  -0.48720  -0.48700  -0.48539
 Alpha  occ. eigenvalues --   -0.47280  -0.46436  -0.46348  -0.44717  -0.44431
 Alpha  occ. eigenvalues --   -0.37225  -0.36220
 Alpha virt. eigenvalues --    0.05150   0.11409   0.16600   0.20335   0.22408
 Alpha virt. eigenvalues --    0.23699   0.25445   0.25987   0.26679   0.28145
 Alpha virt. eigenvalues --    0.29109   0.29719   0.31162   0.31469   0.31715

 Mulliken charges:
               1
     1  C   -0.171417
     2  C   -0.223059
     3  C   -0.176689
     4  C    0.158899
     5  C   -0.171056
     6  C   -0.218807
     7  H    0.225213
     8  H    0.228394
     9  H    0.282587
    10  H    0.275063
    11  H    0.222800
    12  N    0.488204
    13  O   -0.461007
    14  O   -0.460601
    15  C   -0.299849
    16  C   -0.300381
    17  C   -0.486775
    18  H    0.150434
    19  H    0.143800
    20  H    0.157196
    21  H    0.155110
    22  H    0.147125
    23  H    0.159142
    24  H    0.170371
    25  C   -0.298624
    26  C   -0.300009
    27  C   -0.476060
    28  H    0.152283
    29  H    0.151343
    30  H    0.152076
    31  H    0.150416
    32  H    0.156123
    33  H    0.156650
    34  H    0.161105
 Sum of Mulliken charges =  -0.00000

 Dipole moment (field-independent basis, Debye):
    X=             -3.3553    Y=              3.9377    Z=              0.8844  Tot=              5.2484
 Quadrupole moment (field-independent basis, Debye-Ang):
   XX=           -114.0771   YY=            -91.5528   ZZ=            -94.3578
   XY=             16.3261   XZ=              2.0951   YZ=             -0.7421

 Normal termination of Gaussian 16 at Thu May  6 15:45:37 2021.
