 Gaussian 16, Revision A.03,
 Gaussian 16:  EM64L-G16RevA.03 25-Dec-2016

 -------------
 #p 6-31g* mp2
 -------------

 ------------------------------------------------------
 Input file generated by CHIRIPA (05-May-2021 14:51:09)
 ------------------------------------------------------
 Symbolic Z-matrix:
 Charge =  0 Multiplicity = 1

                         Standard orientation:
 ---------------------------------------------------------------------
 Center     Atomic      Atomic             Coordinates (Angstroms)
 Number     Number       Type             X           Y           Z
 ---------------------------------------------------------------------
      1          6           0        3.203606   -0.122689   -0.265644
      2          6           0        2.847810   -1.578140   -0.570696
      3          6           0        1.350989   -1.784181   -0.804934
      4          1           0        2.643597    0.207110    0.620114
      5          1           0        2.871337    0.511201   -1.099417
      6          1           0        3.181890   -2.209268    0.262781
      7          1           0        3.408876   -1.904572   -1.455717
      8          1           0        1.006305   -1.178778   -1.649493
      9          1           0        0.778029   -1.485205    0.078769
     10          1           0        1.118944   -2.831654   -1.021304
     11          6           0        4.696430    0.099250   -0.029115
     12          6           0        5.052226    1.554701    0.275936
     13          6           0        6.549047    1.760742    0.510174
     14          1           0        5.028698   -0.534640    0.804657
     15          1           0        5.256439   -0.230549   -0.914874
     16          1           0        4.491159    1.881133    1.160958
     17          1           0        4.718146    2.185829   -0.557541
     18          1           0        7.122006    1.461766   -0.373529
     19          1           0        6.893730    1.155339    1.354734
     20          1           0        6.781092    2.808215    0.726544
     21          6           0       -4.348933    0.606949    0.411956
     22          6           0       -4.796125    1.573176   -0.685500
     23          6           0       -5.593068    2.758797   -0.140543
     24          1           0       -5.233022    0.239669    0.950878
     25          1           0       -3.740042    1.152985    1.145776
     26          1           0       -5.402841    1.025179   -1.417764
     27          1           0       -3.910883    1.938050   -1.221995
     28          1           0       -4.992693    3.330483    0.574527
     29          1           0       -6.493128    2.412424    0.377646
     30          1           0       -5.902727    3.436765   -0.941998
     31          6           0       -3.551103   -0.583510   -0.117197
     32          6           0       -3.103911   -1.549737    0.980260
     33          6           0       -2.306967   -2.735358    0.435303
     34          1           0       -4.159995   -1.129546   -0.851016
     35          1           0       -2.667013   -0.216230   -0.656117
     36          1           0       -3.989153   -1.914612    1.516756
     37          1           0       -2.497194   -1.001740    1.712525
     38          1           0       -1.406908   -2.388985   -0.082886
     39          1           0       -2.907343   -3.307044   -0.279767
     40          1           0       -1.997308   -3.413326    1.236759
 ---------------------------------------------------------------------

 SCF Done:  E(RHF) =  -470.732872406     A.U. after   11 cycles
 E2 =    -0.1582601242D+01 EUMP2 =    -0.47231547364782D+03

 The electronic state is 1-A.
 Alpha  occ. eigenvalues --  -11.21638 -11.21627 -11.21569 -11.21523 -11.21440
 Alpha  occ. eigenvalues --  -11.21380 -11.21352 -11.21289 -11.21124 -11.21091
 Alpha  occ. eigenvalues --  -11.21046 -11.20874  -1.08466  -1.08371  -1.03577
 Alpha  occ. eigenvalues --   -1.03455  -0.96053  -0.95883  -0.87101  -0.86876
 Alpha  occ. eigenvalues --   -0.79690  -0.79481  -0.78283  -0.78180  -0.65107
 Alpha  occ. eigenvalues --   -0.64997  -0.61048  -0.60802  -0.59391  -0.59278
 Alpha  occ. eigenvalues --   -0.57637  -0.57518  -0.55476  -0.55072  -0.52800
 Alpha  occ. eigenvalues --   -0.52593  -0.52477  -0.52240  -0.50112  -0.49682
 Alpha  occ. eigenvalues --   -0.48000  -0.47790  -0.46725  -0.46479  -0.45847
 Alpha  occ. eigenvalues --   -0.45747  -0.45698  -0.45608  -0.43801  -0.43719
 Alpha virt. eigenvalues --    0.22083   0.22969   0.23743   0.24722   0.26262
 Alpha virt. eigenvalues --    0.26616   0.27206   0.27520   0.27802   0.29005
 Alpha virt. eigenvalues --    0.30763   0.31007   0.31505   0.31801   0.32264

 Mulliken charges:
               1
     1  C   -0.298596
     2  C   -0.300147
     3  C   -0.478666
     4  H    0.149572
     5  H    0.149433
     6  H    0.152381
     7  H    0.152128
     8  H    0.155166
     9  H    0.156624
    10  H    0.162136
    11  C   -0.298336
    12  C   -0.299653
    13  C   -0.475728
    14  H    0.149655
    15  H    0.149787
    16  H    0.151902
    17  H    0.151920
    18  H    0.155242
    19  H    0.155245
    20  H    0.160319
    21  C   -0.298200
    22  C   -0.299605
    23  C   -0.475664
    24  H    0.149530
    25  H    0.149279
    26  H    0.151863
    27  H    0.151883
    28  H    0.155100
    29  H    0.155124
    30  H    0.160118
    31  C   -0.298401
    32  C   -0.299219
    33  C   -0.485594
    34  H    0.149416
    35  H    0.149931
    36  H    0.151501
    37  H    0.150680
    38  H    0.168970
    39  H    0.154109
    40  H    0.158793
 Sum of Mulliken charges =  -0.00000

 Dipole moment (field-independent basis, Debye):
    X=              0.0575    Y=             -0.0058    Z=             -0.0234  Tot=              0.0623
 Quadrupole moment (field-independent basis, Debye-Ang):
   XX=            -85.6119   YY=            -85.4611   ZZ=            -83.8883
   XY=              0.6156   XZ=             -0.0445   YZ=             -0.3405

 Normal termination of Gaussian 16 at Wed May  5 21:20:41 2021.
