 Gaussian 16, Revision A.03,
 Gaussian 16:  EM64L-G16RevA.03 25-Dec-2016

 -------------
 #p 6-31g* mp2
 -------------

 ------------------------------------------------------
 Input file generated by CHIRIPA (05-May-2021 14:57:22)
 ------------------------------------------------------
 Symbolic Z-matrix:
 Charge =  0 Multiplicity = 1

                         Standard orientation:
 ---------------------------------------------------------------------
 Center     Atomic      Atomic             Coordinates (Angstroms)
 Number     Number       Type             X           Y           Z
 ---------------------------------------------------------------------
      1          6           0       -1.904856    2.578746    0.805489
      2          6           0       -2.942657    1.933347    1.485894
      3          6           0       -3.465236    0.728770    1.005837
      4          6           0       -2.923876    0.195413   -0.162816
      5          6           0       -1.889762    0.814531   -0.863239
      6          6           0       -1.382642    2.018266   -0.364842
      7          1           0       -1.504908    3.514163    1.185533
      8          1           0       -3.350164    2.366304    2.395032
      9          1           0       -4.268554    0.208028    1.512714
     10          1           0       -1.504069    0.358513   -1.766956
     11          1           0       -0.576660    2.517280   -0.895336
     12          7           0       -3.468924   -1.079372   -0.680738
     13          8           0       -2.974653   -1.528640   -1.712480
     14          8           0       -4.380084   -1.605144   -0.045136
     15          6           0        4.688012    1.084114   -0.765008
     16          6           0        4.871277    0.327685    0.397210
     17          6           0        3.850935   -0.501096    0.873206
     18          6           0        2.654810   -0.549525    0.158902
     19          6           0        2.441853    0.192003   -1.002165
     20          6           0        3.476021    1.013982   -1.459761
     21          1           0        5.486007    1.725289   -1.127627
     22          1           0        5.811469    0.380166    0.938808
     23          1           0        3.966020   -1.097395    1.770203
     24          1           0        1.493501    0.118786   -1.520515
     25          1           0        3.330886    1.600314   -2.362643
     26          7           0        1.567301   -1.423318    0.653078
     27          8           0        0.522904   -1.448339    0.005587
     28          8           0        1.779902   -2.066630    1.678548
 ---------------------------------------------------------------------

 SCF Done:  E(RHF) =  -868.336656179     A.U. after   16 cycles
 E2 =    -0.2601616080D+01 EUMP2 =    -0.87093827225901D+03

 The electronic state is 1-A.
 Alpha  occ. eigenvalues --  -20.61002 -20.60972 -20.59886 -20.59855 -15.86033
 Alpha  occ. eigenvalues --  -15.84938 -11.31560 -11.30431 -11.28199 -11.28105
 Alpha  occ. eigenvalues --  -11.27886 -11.27215 -11.27148 -11.27136 -11.27081
 Alpha  occ. eigenvalues --  -11.26945 -11.26222 -11.26132  -1.60050  -1.58929
 Alpha  occ. eigenvalues --   -1.39604  -1.38486  -1.19739  -1.18665  -1.09097
 Alpha  occ. eigenvalues --   -1.08043  -1.05173  -1.04137  -0.95913  -0.94855
 Alpha  occ. eigenvalues --   -0.86556  -0.85528  -0.82747  -0.81719  -0.77788
 Alpha  occ. eigenvalues --   -0.76708  -0.72267  -0.71375  -0.71179  -0.70844
 Alpha  occ. eigenvalues --   -0.70209  -0.69837  -0.65391  -0.65175  -0.64357
 Alpha  occ. eigenvalues --   -0.64193  -0.62540  -0.61493  -0.55647  -0.54677
 Alpha  occ. eigenvalues --   -0.53483  -0.53267  -0.52399  -0.52275  -0.49024
 Alpha  occ. eigenvalues --   -0.48999  -0.47941  -0.47906  -0.44973  -0.43865
 Alpha  occ. eigenvalues --   -0.37714  -0.36807  -0.36626  -0.35675
 Alpha virt. eigenvalues --    0.04735   0.05895   0.10840   0.11955   0.16234
 Alpha virt. eigenvalues --    0.17253   0.20067   0.22030   0.25440   0.27336
 Alpha virt. eigenvalues --    0.28314   0.29183   0.30612   0.31324   0.32040

 Mulliken charges:
               1
     1  C   -0.170772
     2  C   -0.219061
     3  C   -0.168755
     4  C    0.163697
     5  C   -0.153604
     6  C   -0.222186
     7  H    0.221350
     8  H    0.220973
     9  H    0.275188
    10  H    0.271198
    11  H    0.212464
    12  N    0.490600
    13  O   -0.458710
    14  O   -0.462982
    15  C   -0.170983
    16  C   -0.218363
    17  C   -0.170615
    18  C    0.159637
    19  C   -0.172016
    20  C   -0.220115
    21  H    0.226365
    22  H    0.224741
    23  H    0.277159
    24  H    0.271151
    25  H    0.222229
    26  N    0.489342
    27  O   -0.459413
    28  O   -0.458521
 Sum of Mulliken charges =  -0.00000

 Dipole moment (field-independent basis, Debye):
    X=              5.8143    Y=              7.2744    Z=              0.1666  Tot=              9.3140
 Quadrupole moment (field-independent basis, Debye-Ang):
   XX=            -92.5571   YY=           -107.9098   ZZ=           -100.8796
   XY=             -7.1611   XZ=             -9.9030   YZ=             -0.3165

 Normal termination of Gaussian 16 at Fri May  7 06:26:11 2021.
