 Gaussian 16, Revision A.03,
 Gaussian 16:  EM64L-G16RevA.03 25-Dec-2016

 -------------
 #p 6-31g* mp2
 -------------

 ------------------------------------------------------
 Input file generated by CHIRIPA (05-May-2021 14:55:24)
 ------------------------------------------------------
 Symbolic Z-matrix:
 Charge =  0 Multiplicity = 1

                         Standard orientation:
 ---------------------------------------------------------------------
 Center     Atomic      Atomic             Coordinates (Angstroms)
 Number     Number       Type             X           Y           Z
 ---------------------------------------------------------------------
      1          6           0       -0.845975   -1.384686    0.729432
      2          6           0       -0.776439   -0.159363    0.058411
      3          6           0       -1.943989    0.513594   -0.313750
      4          6           0       -3.169748   -0.070241    0.002384
      5          6           0       -3.271832   -1.289684    0.670087
      6          6           0       -2.091254   -1.944948    1.032594
      7          1           0        0.066067   -1.900583    1.014786
      8          1           0        0.189279    0.278115   -0.178332
      9          1           0       -1.919103    1.463413   -0.833985
     10          1           0       -4.249071   -1.700803    0.892356
     11          1           0       -2.148290   -2.896422    1.553640
     12          7           0       -4.412678    0.632823   -0.386496
     13          8           0       -5.480278    0.097374   -0.096391
     14          8           0       -4.295750    1.706022   -0.974042
     15          6           0        4.029060   -0.462490    0.109016
     16          6           0        3.746022   -1.515044   -0.963367
     17          6           0        4.219895   -2.911779   -0.560418
     18          1           0        5.107797   -0.439793    0.315794
     19          1           0        3.537577   -0.761556    1.045178
     20          1           0        4.236745   -1.213383   -1.897609
     21          1           0        2.667857   -1.535104   -1.167754
     22          1           0        3.721232   -3.237679    0.358127
     23          1           0        5.299033   -2.914131   -0.375875
     24          1           0        4.007661   -3.648573   -1.341412
     25          6           0        3.561080    0.938943   -0.279195
     26          6           0        3.844119    1.991496    0.793188
     27          6           0        3.370246    3.388232    0.390239
     28          1           0        4.052563    1.238008   -1.215357
     29          1           0        2.482343    0.916245   -0.485973
     30          1           0        4.922284    2.011556    0.997575
     31          1           0        3.353396    1.689836    1.727430
     32          1           0        2.291107    3.390583    0.205695
     33          1           0        3.868909    3.714131   -0.528306
     34          1           0        3.582478    4.125026    1.171233
 ---------------------------------------------------------------------

 SCF Done:  E(RHF) =  -669.535470889     A.U. after   15 cycles
 E2 =    -0.2091612337D+01 EUMP2 =    -0.67162708322590D+03

 The electronic state is 1-A.
 Alpha  occ. eigenvalues --  -20.60759 -20.60753 -15.85812 -11.31185 -11.27755
 Alpha  occ. eigenvalues --  -11.27751 -11.27503 -11.26773 -11.26754 -11.22594
 Alpha  occ. eigenvalues --  -11.22486 -11.22417 -11.22381 -11.21961 -11.21768
 Alpha  occ. eigenvalues --   -1.59834  -1.39387  -1.19359  -1.09417  -1.08753
 Alpha  occ. eigenvalues --   -1.04764  -1.04419  -0.96867  -0.95586  -0.87875
 Alpha  occ. eigenvalues --   -0.86165  -0.82420  -0.80476  -0.79239  -0.77464
 Alpha  occ. eigenvalues --   -0.72031  -0.71157  -0.70470  -0.66134  -0.65011
 Alpha  occ. eigenvalues --   -0.64730  -0.62120  -0.61817  -0.60226  -0.58469
 Alpha  occ. eigenvalues --   -0.56175  -0.55263  -0.53516  -0.53294  -0.53091
 Alpha  occ. eigenvalues --   -0.52858  -0.50812  -0.48806  -0.48785  -0.48773
 Alpha  occ. eigenvalues --   -0.47529  -0.46753  -0.46694  -0.44791  -0.44700
 Alpha  occ. eigenvalues --   -0.37341  -0.36366
 Alpha virt. eigenvalues --    0.05070   0.11259   0.16558   0.17871   0.22614
 Alpha virt. eigenvalues --    0.23267   0.24741   0.25912   0.27102   0.28135
 Alpha virt. eigenvalues --    0.29399   0.30564   0.31065   0.31459   0.31916

 Mulliken charges:
               1
     1  C   -0.174707
     2  C   -0.227202
     3  C   -0.173636
     4  C    0.159039
     5  C   -0.171115
     6  C   -0.218466
     7  H    0.226363
     8  H    0.236290
     9  H    0.276295
    10  H    0.275618
    11  H    0.223483
    12  N    0.488029
    13  O   -0.460513
    14  O   -0.460300
    15  C   -0.299058
    16  C   -0.301149
    17  C   -0.475606
    18  H    0.154835
    19  H    0.145285
    20  H    0.156721
    21  H    0.146203
    22  H    0.151284
    23  H    0.158891
    24  H    0.163500
    25  C   -0.303940
    26  C   -0.300434
    27  C   -0.475536
    28  H    0.155171
    29  H    0.142926
    30  H    0.155565
    31  H    0.151828
    32  H    0.152505
    33  H    0.157661
    34  H    0.164171
 Sum of Mulliken charges =  -0.00000

 Dipole moment (field-independent basis, Debye):
    X=              4.6240    Y=             -2.4342    Z=              1.3513  Tot=              5.3975
 Quadrupole moment (field-independent basis, Debye-Ang):
   XX=           -119.4943   YY=            -92.7274   ZZ=            -94.4638
   XY=             10.5464   XZ=             -6.2014   YZ=             -1.6858

 Normal termination of Gaussian 16 at Thu May  6 17:39:45 2021.
