 Gaussian 16, Revision A.03,
 Gaussian 16:  EM64L-G16RevA.03 25-Dec-2016

 -------------
 #p 6-31g* mp2
 -------------

 ------------------------------------------------------
 Input file generated by CHIRIPA (05-May-2021 14:55:22)
 ------------------------------------------------------
 Symbolic Z-matrix:
 Charge =  0 Multiplicity = 1

                         Standard orientation:
 ---------------------------------------------------------------------
 Center     Atomic      Atomic             Coordinates (Angstroms)
 Number     Number       Type             X           Y           Z
 ---------------------------------------------------------------------
      1          6           0       -2.828268   -2.623127    0.155643
      2          6           0       -3.971096   -1.816638    0.149261
      3          6           0       -3.858875   -0.427017    0.044822
      4          6           0       -2.582521    0.125107   -0.051973
      5          6           0       -1.425000   -0.651694   -0.048374
      6          6           0       -1.561101   -2.039111    0.056979
      7          1           0       -2.924719   -3.701762    0.237129
      8          1           0       -4.956474   -2.267442    0.225745
      9          1           0       -4.726943    0.220920    0.037446
     10          1           0       -0.456218   -0.173321   -0.126086
     11          1           0       -0.671818   -2.662969    0.061681
     12          7           0       -2.451078    1.595070   -0.163022
     13          8           0       -1.315217    2.057018   -0.247060
     14          8           0       -3.486402    2.257445   -0.163923
     15          6           0        3.450613    0.878734   -0.153318
     16          6           0        2.484124    1.851928    0.522536
     17          6           0        2.731287    3.306008    0.119603
     18          1           0        4.481758    1.160710    0.100010
     19          1           0        3.358081    0.978853   -1.243643
     20          1           0        2.577459    1.749018    1.611257
     21          1           0        1.455154    1.567487    0.267726
     22          1           0        2.618368    3.430503   -0.962226
     23          1           0        3.747050    3.613066    0.388940
     24          1           0        2.029341    3.984550    0.614286
     25          6           0        3.216101   -0.578804    0.239515
     26          6           0        4.182589   -1.551998   -0.436337
     27          6           0        3.935426   -3.006079   -0.033404
     28          1           0        3.308632   -0.678923    1.329841
     29          1           0        2.184956   -0.860779   -0.013811
     30          1           0        5.211560   -1.267557   -0.181527
     31          1           0        4.089254   -1.449088   -1.525059
     32          1           0        2.919663   -3.313135   -0.302742
     33          1           0        4.048345   -3.130573    1.048423
     34          1           0        4.637374   -3.684619   -0.528088
 ---------------------------------------------------------------------

 SCF Done:  E(RHF) =  -669.535808246     A.U. after   15 cycles
 E2 =    -0.2092413342D+01 EUMP2 =    -0.67162822158830D+03

 The electronic state is 1-A.
 Alpha  occ. eigenvalues --  -20.60876 -20.60870 -15.85915 -11.31230 -11.27796
 Alpha  occ. eigenvalues --  -11.27786 -11.27532 -11.26804 -11.26790 -11.21907
 Alpha  occ. eigenvalues --  -11.21711 -11.21537 -11.21248 -11.21041 -11.20350
 Alpha  occ. eigenvalues --   -1.59942  -1.39499  -1.19401  -1.08806  -1.08460
 Alpha  occ. eigenvalues --   -1.04797  -1.03421  -0.95909  -0.95649  -0.86925
 Alpha  occ. eigenvalues --   -0.86200  -0.82486  -0.79564  -0.78243  -0.77506
 Alpha  occ. eigenvalues --   -0.72144  -0.71256  -0.70516  -0.65135  -0.65055
 Alpha  occ. eigenvalues --   -0.64782  -0.62148  -0.60803  -0.59330  -0.57477
 Alpha  occ. eigenvalues --   -0.55313  -0.55213  -0.53128  -0.52900  -0.52553
 Alpha  occ. eigenvalues --   -0.52331  -0.49880  -0.48931  -0.48886  -0.47838
 Alpha  occ. eigenvalues --   -0.46627  -0.45733  -0.45589  -0.44896  -0.43705
 Alpha  occ. eigenvalues --   -0.37381  -0.36397
 Alpha virt. eigenvalues --    0.04992   0.11253   0.16494   0.18927   0.23116
 Alpha virt. eigenvalues --    0.23589   0.24649   0.26980   0.27142   0.28275
 Alpha virt. eigenvalues --    0.29254   0.31066   0.31647   0.31960   0.32590

 Mulliken charges:
               1
     1  C   -0.170213
     2  C   -0.219130
     3  C   -0.169797
     4  C    0.156559
     5  C   -0.176075
     6  C   -0.222979
     7  H    0.225955
     8  H    0.223634
     9  H    0.275632
    10  H    0.287530
    11  H    0.224676
    12  N    0.491590
    13  O   -0.466579
    14  O   -0.459483
    15  C   -0.298560
    16  C   -0.313516
    17  C   -0.473336
    18  H    0.149881
    19  H    0.150197
    20  H    0.148485
    21  H    0.171955
    22  H    0.156549
    23  H    0.149658
    24  H    0.168380
    25  C   -0.297904
    26  C   -0.299629
    27  C   -0.474493
    28  H    0.151007
    29  H    0.136484
    30  H    0.155109
    31  H    0.153191
    32  H    0.146857
    33  H    0.156087
    34  H    0.162280
 Sum of Mulliken charges =  -0.00000

 Dipole moment (field-independent basis, Debye):
    X=             -0.5102    Y=             -5.0304    Z=              0.3870  Tot=              5.0710
 Quadrupole moment (field-independent basis, Debye-Ang):
   XX=            -86.7716   YY=            -97.5447   ZZ=            -95.1678
   XY=             13.0262   XZ=             -0.7707   YZ=              0.5827

 Normal termination of Gaussian 16 at Thu May  6 12:33:24 2021.
