 Gaussian 16, Revision A.03,
 Gaussian 16:  EM64L-G16RevA.03 25-Dec-2016

 -------------
 #p 6-31g* mp2
 -------------

 ------------------------------------------------------
 Input file generated by CHIRIPA (05-May-2021 14:53:15)
 ------------------------------------------------------
 Symbolic Z-matrix:
 Charge =  0 Multiplicity = 1

                         Standard orientation:
 ---------------------------------------------------------------------
 Center     Atomic      Atomic             Coordinates (Angstroms)
 Number     Number       Type             X           Y           Z
 ---------------------------------------------------------------------
      1          6           0        3.574118    0.402201    0.127008
      2          6           0        3.680137   -0.851424   -0.741997
      3          6           0        5.118174   -1.350180   -0.887205
      4          1           0        4.196839    1.195892   -0.307983
      5          1           0        3.990773    0.187304    1.120796
      6          1           0        3.262144   -0.634636   -1.733410
      7          1           0        3.056940   -1.642162   -0.304991
      8          1           0        5.542192   -1.593787    0.092318
      9          1           0        5.748562   -0.580537   -1.344218
     10          1           0        5.170846   -2.247066   -1.512250
     11          6           0        2.142678    0.912900    0.281589
     12          6           0        2.036659    2.166525    1.150594
     13          6           0        0.598622    2.665281    1.295802
     14          1           0        1.726024    1.127797   -0.712199
     15          1           0        1.519957    0.119210    0.716580
     16          1           0        2.659857    2.957264    0.713588
     17          1           0        2.454652    1.949738    2.142007
     18          1           0       -0.031766    1.895638    1.752815
     19          1           0        0.174604    2.908889    0.316279
     20          1           0        0.545950    3.562167    1.920847
     21          6           0       -1.127709   -2.533783    0.871552
     22          6           0       -0.422824   -1.737623   -0.037177
     23          6           0       -1.025294   -0.615996   -0.614697
     24          6           0       -2.339990   -0.318419   -0.259297
     25          6           0       -3.068481   -1.092095    0.642932
     26          6           0       -2.445964   -2.209050    1.208112
     27          1           0       -0.651909   -3.403276    1.315390
     28          1           0        0.601070   -1.987414   -0.300411
     29          1           0       -0.502711    0.017622   -1.320992
     30          1           0       -4.087895   -0.817789    0.885771
     31          1           0       -2.995810   -2.825550    1.913551
     32          7           0       -2.988411    0.866526   -0.864159
     33          8           0       -4.147719    1.107330   -0.534534
     34          8           0       -2.325056    1.532043   -1.656425
 ---------------------------------------------------------------------

 SCF Done:  E(RHF) =  -669.533882750     A.U. after   15 cycles
 E2 =    -0.2095044712D+01 EUMP2 =    -0.67162892746162D+03

 The electronic state is 1-A.
 Alpha  occ. eigenvalues --  -20.60763 -20.60757 -15.85804 -11.31134 -11.27710
 Alpha  occ. eigenvalues --  -11.27667 -11.27452 -11.26722 -11.26642 -11.22469
 Alpha  occ. eigenvalues --  -11.21931 -11.21800 -11.21739 -11.21714 -11.20936
 Alpha  occ. eigenvalues --   -1.59827  -1.39383  -1.19319  -1.08949  -1.08714
 Alpha  occ. eigenvalues --   -1.04720  -1.03940  -0.96353  -0.95556  -0.87376
 Alpha  occ. eigenvalues --   -0.86117  -0.82411  -0.80065  -0.78858  -0.77362
 Alpha  occ. eigenvalues --   -0.72026  -0.71141  -0.70425  -0.65667  -0.64965
 Alpha  occ. eigenvalues --   -0.64650  -0.62081  -0.61329  -0.59771  -0.57975
 Alpha  occ. eigenvalues --   -0.55625  -0.55226  -0.53167  -0.53071  -0.52843
 Alpha  occ. eigenvalues --   -0.52663  -0.50305  -0.48788  -0.48780  -0.48337
 Alpha  occ. eigenvalues --   -0.47104  -0.46248  -0.46155  -0.44774  -0.44201
 Alpha  occ. eigenvalues --   -0.37305  -0.36185
 Alpha virt. eigenvalues --    0.05082   0.11210   0.16472   0.20033   0.22903
 Alpha virt. eigenvalues --    0.23471   0.24940   0.25333   0.27503   0.28555
 Alpha virt. eigenvalues --    0.29855   0.30201   0.31417   0.31517   0.32059

 Mulliken charges:
               1
     1  C   -0.296911
     2  C   -0.304619
     3  C   -0.475133
     4  H    0.153580
     5  H    0.150648
     6  H    0.152515
     7  H    0.142729
     8  H    0.156559
     9  H    0.159300
    10  H    0.160734
    11  C   -0.309719
    12  C   -0.298355
    13  C   -0.481965
    14  H    0.147734
    15  H    0.153760
    16  H    0.153640
    17  H    0.150897
    18  H    0.153677
    19  H    0.166766
    20  H    0.161825
    21  C   -0.174126
    22  C   -0.226964
    23  C   -0.168166
    24  C    0.158163
    25  C   -0.171437
    26  C   -0.218862
    27  H    0.225445
    28  H    0.234057
    29  H    0.278571
    30  H    0.275358
    31  H    0.223084
    32  N    0.488620
    33  O   -0.460112
    34  O   -0.461296
 Sum of Mulliken charges =  -0.00000

 Dipole moment (field-independent basis, Debye):
    X=              2.3510    Y=             -4.0470    Z=              2.1184  Tot=              5.1374
 Quadrupole moment (field-independent basis, Debye-Ang):
   XX=           -102.6917   YY=            -92.2835   ZZ=            -94.5473
   XY=             10.6629   XZ=             -8.0810   YZ=             -0.8133

 Normal termination of Gaussian 16 at Thu May  6 09:01:08 2021.
