 Gaussian 16, Revision A.03,
 Gaussian 16:  EM64L-G16RevA.03 25-Dec-2016

 -------------
 #p 6-31g* mp2
 -------------

 ------------------------------------------------------
 Input file generated by CHIRIPA (05-May-2021 14:55:25)
 ------------------------------------------------------
 Symbolic Z-matrix:
 Charge =  0 Multiplicity = 1

                         Standard orientation:
 ---------------------------------------------------------------------
 Center     Atomic      Atomic             Coordinates (Angstroms)
 Number     Number       Type             X           Y           Z
 ---------------------------------------------------------------------
      1          6           0       -1.282353   -1.513796    1.569387
      2          6           0       -1.085326   -1.465123    0.185431
      3          6           0       -1.937149   -0.710772   -0.626912
      4          6           0       -2.980619   -0.014258   -0.019188
      5          6           0       -3.202882   -0.042855    1.356701
      6          6           0       -2.338640   -0.803759    2.149582
      7          1           0       -0.615813   -2.102339    2.192875
      8          1           0       -0.265826   -2.015538   -0.267899
      9          1           0       -1.807524   -0.655534   -1.700953
     10          1           0       -4.028507    0.516462    1.779697
     11          1           0       -2.494055   -0.839719    3.224104
     12          7           0       -3.888979    0.787807   -0.868877
     13          8           0       -4.800926    1.392457   -0.309066
     14          8           0       -3.671805    0.796630   -2.078586
     15          6           0        3.927428   -0.511401   -0.206655
     16          6           0        2.932611   -1.571445   -0.680610
     17          6           0        3.555367   -2.964349   -0.779538
     18          1           0        4.781565   -0.484538   -0.897072
     19          1           0        4.327053   -0.805859    0.773645
     20          1           0        2.533945   -1.274382   -1.659095
     21          1           0        2.080653   -1.595654    0.010908
     22          1           0        3.937079   -3.285771    0.194929
     23          1           0        4.392946   -2.962674   -1.484563
     24          1           0        2.826729   -3.706615   -1.120109
     25          6           0        3.319701    0.886309   -0.102723
     26          6           0        4.314518    1.946353    0.371231
     27          6           0        3.691762    3.339257    0.470159
     28          1           0        2.920076    1.180767   -1.083024
     29          1           0        2.465565    0.859447    0.587693
     30          1           0        5.166477    1.970562   -0.320287
     31          1           0        4.713185    1.649290    1.349717
     32          1           0        2.854184    3.337582    1.175185
     33          1           0        3.310051    3.660679   -0.504307
     34          1           0        4.420400    4.081523    0.810731
 ---------------------------------------------------------------------

 SCF Done:  E(RHF) =  -669.535448836     A.U. after   15 cycles
 E2 =    -0.2091392625D+01 EUMP2 =    -0.67162684146078D+03

 The electronic state is 1-A.
 Alpha  occ. eigenvalues --  -20.60748 -20.60743 -15.85801 -11.31169 -11.27737
 Alpha  occ. eigenvalues --  -11.27722 -11.27484 -11.26759 -11.26703 -11.22525
 Alpha  occ. eigenvalues --  -11.22040 -11.21974 -11.21910 -11.21848 -11.21325
 Alpha  occ. eigenvalues --   -1.59824  -1.39377  -1.19339  -1.09037  -1.08736
 Alpha  occ. eigenvalues --   -1.04740  -1.04132  -0.96549  -0.95571  -0.87565
 Alpha  occ. eigenvalues --   -0.86143  -0.82402  -0.80238  -0.78823  -0.77441
 Alpha  occ. eigenvalues --   -0.72020  -0.71146  -0.70452  -0.65693  -0.64990
 Alpha  occ. eigenvalues --   -0.64744  -0.62124  -0.61500  -0.59945  -0.58164
 Alpha  occ. eigenvalues --   -0.55820  -0.55247  -0.53271  -0.53072  -0.52979
 Alpha  occ. eigenvalues --   -0.52822  -0.50484  -0.48798  -0.48775  -0.48496
 Alpha  occ. eigenvalues --   -0.47263  -0.46350  -0.46260  -0.44782  -0.44370
 Alpha  occ. eigenvalues --   -0.37321  -0.36329
 Alpha virt. eigenvalues --    0.05084   0.11206   0.16570   0.20270   0.22561
 Alpha virt. eigenvalues --    0.23742   0.25736   0.26095   0.27123   0.28158
 Alpha virt. eigenvalues --    0.28656   0.30167   0.30905   0.31574   0.31931

 Mulliken charges:
               1
     1  C   -0.173052
     2  C   -0.220447
     3  C   -0.172117
     4  C    0.158699
     5  C   -0.171171
     6  C   -0.218418
     7  H    0.225222
     8  H    0.230218
     9  H    0.275694
    10  H    0.275515
    11  H    0.223222
    12  N    0.488071
    13  O   -0.460506
    14  O   -0.460409
    15  C   -0.297934
    16  C   -0.304371
    17  C   -0.476486
    18  H    0.152706
    19  H    0.149691
    20  H    0.153225
    21  H    0.144382
    22  H    0.156152
    23  H    0.160188
    24  H    0.157654
    25  C   -0.299380
    26  C   -0.300151
    27  C   -0.476097
    28  H    0.151537
    29  H    0.149727
    30  H    0.152988
    31  H    0.151401
    32  H    0.155572
    33  H    0.157289
    34  H    0.161384
 Sum of Mulliken charges =  -0.00000

 Dipole moment (field-independent basis, Debye):
    X=              3.3386    Y=             -2.7555    Z=              2.9628  Tot=              5.2457
 Quadrupole moment (field-independent basis, Debye-Ang):
   XX=           -112.6165   YY=            -96.0646   ZZ=            -90.8224
   XY=              8.0401   XZ=            -11.8413   YZ=              0.9617

 Normal termination of Gaussian 16 at Wed May  5 16:08:03 2021.
