 Gaussian 16, Revision A.03,
 Gaussian 16:  EM64L-G16RevA.03 25-Dec-2016

 -------------
 #p 6-31g* mp2
 -------------

 ------------------------------------------------------
 Input file generated by CHIRIPA (05-May-2021 14:55:20)
 ------------------------------------------------------
 Symbolic Z-matrix:
 Charge =  0 Multiplicity = 1

                         Standard orientation:
 ---------------------------------------------------------------------
 Center     Atomic      Atomic             Coordinates (Angstroms)
 Number     Number       Type             X           Y           Z
 ---------------------------------------------------------------------
      1          6           0       -2.751563   -2.685215    0.302869
      2          6           0       -1.496913   -2.105203    0.088488
      3          6           0       -1.376119   -0.725965   -0.105577
      4          6           0       -2.536020    0.046829   -0.078923
      5          6           0       -3.800147   -0.501474    0.132348
      6          6           0       -3.897156   -1.882914    0.324078
      7          1           0       -2.836160   -3.757496    0.452717
      8          1           0       -0.605517   -2.725824    0.071506
      9          1           0       -0.417242   -0.250840   -0.273593
     10          1           0       -4.670688    0.143075    0.143894
     11          1           0       -4.872837   -2.330624    0.490355
     12          7           0       -2.420731    1.508132   -0.283135
     13          8           0       -3.457841    2.167112   -0.255109
     14          8           0       -1.295441    1.966850   -0.467355
     15          6           0        3.133287    0.859048    0.495724
     16          6           0        2.480512    2.014870   -0.263187
     17          6           0        2.212406    3.229398    0.626102
     18          1           0        2.485261    0.566226    1.333139
     19          1           0        4.077347    1.206569    0.937735
     20          1           0        1.538645    1.664894   -0.704795
     21          1           0        3.130077    2.304847   -1.099008
     22          1           0        3.146293    3.605758    1.055997
     23          1           0        1.545819    2.962168    1.452449
     24          1           0        1.745529    4.043781    0.063371
     25          6           0        3.407566   -0.362379   -0.379842
     26          6           0        4.060340   -1.518200    0.379070
     27          6           0        4.328446   -2.732728   -0.510218
     28          1           0        2.463505   -0.709900   -0.821852
     29          1           0        4.055591   -0.069556   -1.217257
     30          1           0        3.410776   -1.808178    1.214891
     31          1           0        5.002208   -1.168224    0.820678
     32          1           0        4.995034   -2.465499   -1.336567
     33          1           0        3.394560   -3.109088   -0.940114
     34          1           0        4.795323   -3.547112    0.052511
 ---------------------------------------------------------------------

 SCF Done:  E(RHF) =  -669.535851573     A.U. after   15 cycles
 E2 =    -0.2092206865D+01 EUMP2 =    -0.67162805843779D+03

 The electronic state is 1-A.
 Alpha  occ. eigenvalues --  -20.60906 -20.60899 -15.85946 -11.31275 -11.27843
 Alpha  occ. eigenvalues --  -11.27836 -11.27576 -11.26850 -11.26840 -11.21874
 Alpha  occ. eigenvalues --  -11.21576 -11.21428 -11.21208 -11.20916 -11.20191
 Alpha  occ. eigenvalues --   -1.59971  -1.39527  -1.19445  -1.08847  -1.08380
 Alpha  occ. eigenvalues --   -1.04844  -1.03324  -0.95802  -0.95684  -0.86817
 Alpha  occ. eigenvalues --   -0.86244  -0.82524  -0.79466  -0.78122  -0.77559
 Alpha  occ. eigenvalues --   -0.72176  -0.71287  -0.70557  -0.65126  -0.65059
 Alpha  occ. eigenvalues --   -0.64811  -0.62190  -0.60705  -0.59232  -0.57362
 Alpha  occ. eigenvalues --   -0.55350  -0.55101  -0.53174  -0.52937  -0.52449
 Alpha  occ. eigenvalues --   -0.52216  -0.49780  -0.48951  -0.48915  -0.47738
 Alpha  occ. eigenvalues --   -0.46539  -0.45639  -0.45496  -0.44931  -0.43608
 Alpha  occ. eigenvalues --   -0.37424  -0.36445
 Alpha virt. eigenvalues --    0.04952   0.11205   0.16451   0.18883   0.22967
 Alpha virt. eigenvalues --    0.23837   0.25437   0.27253   0.27742   0.28031
 Alpha virt. eigenvalues --    0.29663   0.30809   0.31731   0.31850   0.32539

 Mulliken charges:
               1
     1  C   -0.170290
     2  C   -0.220979
     3  C   -0.174730
     4  C    0.156907
     5  C   -0.170134
     6  C   -0.218885
     7  H    0.226063
     8  H    0.224150
     9  H    0.283377
    10  H    0.275800
    11  H    0.223814
    12  N    0.492589
    13  O   -0.459266
    14  O   -0.466491
    15  C   -0.299455
    16  C   -0.309527
    17  C   -0.471235
    18  H    0.145949
    19  H    0.149970
    20  H    0.169424
    21  H    0.148994
    22  H    0.147940
    23  H    0.156922
    24  H    0.168208
    25  C   -0.297390
    26  C   -0.299512
    27  C   -0.474590
    28  H    0.138692
    29  H    0.153026
    30  H    0.148164
    31  H    0.154977
    32  H    0.157824
    33  H    0.149179
    34  H    0.160514
 Sum of Mulliken charges =  -0.00000

 Dipole moment (field-independent basis, Debye):
    X=             -0.5198    Y=             -5.0010    Z=              0.6918  Tot=              5.0753
 Quadrupole moment (field-independent basis, Debye-Ang):
   XX=            -86.8978   YY=            -96.3216   ZZ=            -96.0266
   XY=             13.3472   XZ=             -2.6019   YZ=             -0.2380

 Normal termination of Gaussian 16 at Thu May  6 07:44:36 2021.
