 Gaussian 16, Revision A.03,
 Gaussian 16:  EM64L-G16RevA.03 25-Dec-2016

 -------------
 #p 6-31g* mp2
 -------------

 ------------------------------------------------------
 Input file generated by CHIRIPA (05-May-2021 14:57:23)
 ------------------------------------------------------
 Symbolic Z-matrix:
 Charge =  0 Multiplicity = 1

                         Standard orientation:
 ---------------------------------------------------------------------
 Center     Atomic      Atomic             Coordinates (Angstroms)
 Number     Number       Type             X           Y           Z
 ---------------------------------------------------------------------
      1          6           0        5.871188   -0.339684   -0.200923
      2          6           0        5.208234    0.823613   -0.605590
      3          6           0        3.816122    0.915384   -0.515315
      4          6           0        3.115169   -0.180069   -0.013380
      5          6           0        3.746906   -1.352704    0.397867
      6          6           0        5.139698   -1.422221    0.298633
      7          1           0        6.952878   -0.402330   -0.274531
      8          1           0        5.773743    1.665888   -0.993941
      9          1           0        3.277490    1.803956   -0.821475
     10          1           0        3.156038   -2.175862    0.780887
     11          1           0        5.651894   -2.326911    0.613648
     12          7           0        1.641042   -0.094695    0.086932
     13          8           0        1.046416   -1.073691    0.532605
     14          8           0        1.108161    0.949600   -0.282016
     15          6           0       -1.932805    2.163266    0.705884
     16          6           0       -2.396513    1.268884    1.676232
     17          6           0       -3.186937    0.174371    1.313161
     18          6           0       -3.495917    0.003771   -0.035438
     19          6           0       -3.049044    0.877409   -1.025565
     20          6           0       -2.259974    1.965023   -0.639546
     21          1           0       -1.319310    3.010829    0.996839
     22          1           0       -2.144000    1.420351    2.721861
     23          1           0       -3.559276   -0.533434    2.043773
     24          1           0       -3.317316    0.700189   -2.059993
     25          1           0       -1.901251    2.657997   -1.395291
     26          7           0       -4.331987   -1.151288   -0.431951
     27          8           0       -4.590224   -1.279441   -1.626743
     28          8           0       -4.713233   -1.906599    0.459560
 ---------------------------------------------------------------------

 SCF Done:  E(RHF) =  -868.337940395     A.U. after   16 cycles
 E2 =    -0.2600092264D+01 EUMP2 =    -0.87093803265848D+03

 The electronic state is 1-A.
 Alpha  occ. eigenvalues --  -20.61315 -20.61256 -20.59509 -20.59503 -15.86336
 Alpha  occ. eigenvalues --  -15.84555 -11.31617 -11.29597 -11.28204 -11.28147
 Alpha  occ. eigenvalues --  -11.27888 -11.27179 -11.27143 -11.26200 -11.26172
 Alpha  occ. eigenvalues --  -11.25870 -11.25142 -11.25099  -1.60356  -1.58588
 Alpha  occ. eigenvalues --   -1.39918  -1.38153  -1.19779  -1.17743  -1.09187
 Alpha  occ. eigenvalues --   -1.07199  -1.05170  -1.03143  -0.96038  -0.94100
 Alpha  occ. eigenvalues --   -0.86571  -0.84575  -0.82876  -0.80974  -0.77936
 Alpha  occ. eigenvalues --   -0.76058  -0.72568  -0.71680  -0.70884  -0.70795
 Alpha  occ. eigenvalues --   -0.69897  -0.68921  -0.65434  -0.65168  -0.63441
 Alpha  occ. eigenvalues --   -0.63211  -0.62520  -0.60554  -0.55668  -0.53689
 Alpha  occ. eigenvalues --   -0.53502  -0.53260  -0.51514  -0.51299  -0.49305
 Alpha  occ. eigenvalues --   -0.49185  -0.47557  -0.47520  -0.45345  -0.43635
 Alpha  occ. eigenvalues --   -0.37752  -0.36770  -0.35574  -0.34688
 Alpha virt. eigenvalues --    0.04576   0.06526   0.10886   0.12963   0.16092
 Alpha virt. eigenvalues --    0.18122   0.21046   0.22822   0.26952   0.27924
 Alpha virt. eigenvalues --    0.28676   0.29693   0.30618   0.32122   0.32318

 Mulliken charges:
               1
     1  C   -0.170427
     2  C   -0.218337
     3  C   -0.171344
     4  C    0.158055
     5  C   -0.170605
     6  C   -0.218405
     7  H    0.226999
     8  H    0.223830
     9  H    0.272360
    10  H    0.277362
    11  H    0.225288
    12  N    0.488857
    13  O   -0.455534
    14  O   -0.466461
    15  C   -0.150931
    16  C   -0.216922
    17  C   -0.166808
    18  C    0.159402
    19  C   -0.171707
    20  C   -0.205683
    21  H    0.219494
    22  H    0.216275
    23  H    0.270320
    24  H    0.269550
    25  H    0.217004
    26  N    0.488503
    27  O   -0.465421
    28  O   -0.464716
 Sum of Mulliken charges =  -0.00000

 Dipole moment (field-independent basis, Debye):
    X=              8.5781    Y=              3.7573    Z=              1.0758  Tot=              9.4265
 Quadrupole moment (field-independent basis, Debye-Ang):
   XX=            -95.4285   YY=           -100.8023   ZZ=           -100.7811
   XY=            -16.3104   XZ=             -6.6086   YZ=             -3.7698

 Normal termination of Gaussian 16 at Fri May  7 03:24:37 2021.
