 Gaussian 16, Revision A.03,
 Gaussian 16:  EM64L-G16RevA.03 25-Dec-2016

 -------------
 #p 6-31g* mp2
 -------------

 ------------------------------------------------------
 Input file generated by CHIRIPA (05-May-2021 14:57:27)
 ------------------------------------------------------
 Symbolic Z-matrix:
 Charge =  0 Multiplicity = 1

                         Standard orientation:
 ---------------------------------------------------------------------
 Center     Atomic      Atomic             Coordinates (Angstroms)
 Number     Number       Type             X           Y           Z
 ---------------------------------------------------------------------
      1          6           0        5.157764   -0.095525    0.653861
      2          6           0        4.593602    1.093856    0.180981
      3          6           0        3.275611    1.118550   -0.284678
      4          6           0        2.547234   -0.069848   -0.263071
      5          6           0        3.081195   -1.270663    0.201924
      6          6           0        4.401094   -1.271914    0.662808
      7          1           0        6.182352   -0.105602    1.013741
      8          1           0        5.178882    2.008966    0.172858
      9          1           0        2.814037    2.025383   -0.656191
     10          1           0        2.472896   -2.166973    0.197650
     11          1           0        4.836628   -2.197064    1.029485
     12          7           0        1.150926   -0.056115   -0.753516
     13          8           0        0.530217   -1.116534   -0.724036
     14          8           0        0.703649    1.014808   -1.158119
     15          6           0       -2.514171    2.569541    0.426171
     16          6           0       -2.615259    1.761898    1.563718
     17          6           0       -2.761368    0.376973    1.440502
     18          6           0       -2.802807   -0.169330    0.158658
     19          6           0       -2.704675    0.608765   -0.993830
     20          6           0       -2.559122    1.991416   -0.846729
     21          1           0       -2.400887    3.644501    0.531165
     22          1           0       -2.580659    2.208130    2.553529
     23          1           0       -2.841906   -0.271731    2.304282
     24          1           0       -2.742427    0.134997   -1.967244
     25          1           0       -2.480855    2.616184   -1.731931
     26          7           0       -2.957191   -1.634285    0.015571
     27          8           0       -2.990945   -2.091143   -1.124945
     28          8           0       -3.041520   -2.297919    1.046647
 ---------------------------------------------------------------------

 SCF Done:  E(RHF) =  -868.338058860     A.U. after   16 cycles
 E2 =    -0.2602090975D+01 EUMP2 =    -0.87094014983490D+03

 The electronic state is 1-A.
 Alpha  occ. eigenvalues --  -20.61054 -20.61014 -20.59241 -20.59185 -15.86052
 Alpha  occ. eigenvalues --  -15.84266 -11.31343 -11.29522 -11.27940 -11.27855
 Alpha  occ. eigenvalues --  -11.27638 -11.26927 -11.26870 -11.26212 -11.26029
 Alpha  occ. eigenvalues --  -11.25953 -11.25293 -11.25099  -1.60096  -1.58266
 Alpha  occ. eigenvalues --   -1.39651  -1.37834  -1.19510  -1.17716  -1.08924
 Alpha  occ. eigenvalues --   -1.07155  -1.04899  -1.03141  -0.95771  -0.94011
 Alpha  occ. eigenvalues --   -0.86301  -0.84569  -0.82605  -0.80872  -0.77658
 Alpha  occ. eigenvalues --   -0.75902  -0.72300  -0.71412  -0.70617  -0.70527
 Alpha  occ. eigenvalues --   -0.69514  -0.68936  -0.65164  -0.64903  -0.63420
 Alpha  occ. eigenvalues --   -0.63227  -0.62244  -0.60534  -0.55417  -0.53746
 Alpha  occ. eigenvalues --   -0.53242  -0.52990  -0.51583  -0.51300  -0.49046
 Alpha  occ. eigenvalues --   -0.48902  -0.47278  -0.47251  -0.45081  -0.43267
 Alpha  occ. eigenvalues --   -0.37491  -0.36501  -0.35687  -0.34607
 Alpha virt. eigenvalues --    0.04854   0.06714   0.11156   0.12941   0.16372
 Alpha virt. eigenvalues --    0.18169   0.21307   0.22755   0.27220   0.28203
 Alpha virt. eigenvalues --    0.28654   0.29650   0.30862   0.32200   0.32454

 Mulliken charges:
               1
     1  C   -0.170563
     2  C   -0.218747
     3  C   -0.171305
     4  C    0.158428
     5  C   -0.170528
     6  C   -0.218768
     7  H    0.226095
     8  H    0.222774
     9  H    0.272739
    10  H    0.280284
    11  H    0.225275
    12  N    0.489384
    13  O   -0.456859
    14  O   -0.464971
    15  C   -0.172518
    16  C   -0.221160
    17  C   -0.175968
    18  C    0.165171
    19  C   -0.150914
    20  C   -0.203828
    21  H    0.217278
    22  H    0.214673
    23  H    0.268761
    24  H    0.273852
    25  H    0.218365
    26  N    0.492621
    27  O   -0.459200
    28  O   -0.470371
 Sum of Mulliken charges =  -0.00000

 Dipole moment (field-independent basis, Debye):
    X=              5.7785    Y=              4.9198    Z=              1.9032  Tot=              7.8241
 Quadrupole moment (field-independent basis, Debye-Ang):
   XX=            -84.9642   YY=           -102.9598   ZZ=           -101.6109
   XY=            -14.6865   XZ=              2.6524   YZ=             -1.2436

 Normal termination of Gaussian 16 at Thu May  6 14:49:22 2021.
