 Gaussian 16, Revision A.03,
 Gaussian 16:  EM64L-G16RevA.03 25-Dec-2016

 -------------
 #p 6-31g* mp2
 -------------

 ------------------------------------------------------
 Input file generated by CHIRIPA (05-May-2021 14:57:24)
 ------------------------------------------------------
 Symbolic Z-matrix:
 Charge =  0 Multiplicity = 1

                         Standard orientation:
 ---------------------------------------------------------------------
 Center     Atomic      Atomic             Coordinates (Angstroms)
 Number     Number       Type             X           Y           Z
 ---------------------------------------------------------------------
      1          6           0       -4.130094    2.430829   -0.017089
      2          6           0       -2.807357    2.066014    0.254570
      3          6           0       -2.408847    0.728406    0.173689
      4          6           0       -3.363478   -0.222650   -0.183327
      5          6           0       -4.688812    0.109400   -0.459957
      6          6           0       -5.064951    1.453082   -0.372858
      7          1           0       -4.430978    3.472275    0.048157
      8          1           0       -2.079188    2.823210    0.531102
      9          1           0       -1.391409    0.418251    0.378731
     10          1           0       -5.392067   -0.667921   -0.733129
     11          1           0       -6.092896    1.733495   -0.584385
     12          7           0       -2.953434   -1.641931   -0.272244
     13          8           0       -3.813563   -2.460808   -0.588876
     14          8           0       -1.779678   -1.908612   -0.023620
     15          6           0        1.442970   -0.900922    1.442225
     16          6           0        1.729216    0.468134    1.458650
     17          6           0        2.828156    0.972201    0.756658
     18          6           0        3.623260    0.074745    0.045550
     19          6           0        3.364070   -1.294501    0.009814
     20          6           0        2.259870   -1.776327    0.719134
     21          1           0        0.587243   -1.283854    1.990396
     22          1           0        1.096538    1.150322    2.019349
     23          1           0        3.072703    2.027471    0.752279
     24          1           0        4.013071   -1.949914   -0.558209
     25          1           0        2.039973   -2.840037    0.704587
     26          7           0        4.789443    0.596604   -0.701497
     27          8           0        5.474464   -0.214847   -1.320310
     28          8           0        4.996394    1.807207   -0.654074
 ---------------------------------------------------------------------

 SCF Done:  E(RHF) =  -868.339128982     A.U. after   16 cycles
 E2 =    -0.2600069603D+01 EUMP2 =    -0.87093919858536D+03

 The electronic state is 1-A.
 Alpha  occ. eigenvalues --  -20.61581 -20.61525 -20.60628 -20.60610 -15.86599
 Alpha  occ. eigenvalues --  -15.85676 -11.31820 -11.30979 -11.28386 -11.28351
 Alpha  occ. eigenvalues --  -11.28078 -11.27659 -11.27497 -11.27381 -11.27327
 Alpha  occ. eigenvalues --  -11.27193 -11.26666 -11.26368  -1.60621  -1.59700
 Alpha  occ. eigenvalues --   -1.40183  -1.39255  -1.19980  -1.19154  -1.09397
 Alpha  occ. eigenvalues --   -1.08532  -1.05368  -1.04559  -0.96260  -0.95373
 Alpha  occ. eigenvalues --   -0.86771  -0.85945  -0.83104  -0.82217  -0.78174
 Alpha  occ. eigenvalues --   -0.77299  -0.72840  -0.71934  -0.71895  -0.71084
 Alpha  occ. eigenvalues --   -0.71023  -0.70170  -0.65637  -0.65376  -0.64797
 Alpha  occ. eigenvalues --   -0.64557  -0.62723  -0.61905  -0.55859  -0.54951
 Alpha  occ. eigenvalues --   -0.53698  -0.53487  -0.52833  -0.52639  -0.49583
 Alpha  occ. eigenvalues --   -0.49558  -0.48653  -0.48645  -0.45618  -0.44675
 Alpha  occ. eigenvalues --   -0.37943  -0.37066  -0.36966  -0.36168
 Alpha virt. eigenvalues --    0.04348   0.05245   0.10685   0.11318   0.15870
 Alpha virt. eigenvalues --    0.16742   0.20127   0.22062   0.25953   0.27401
 Alpha virt. eigenvalues --    0.28015   0.29201   0.30314   0.31484   0.32179

 Mulliken charges:
               1
     1  C   -0.169624
     2  C   -0.219749
     3  C   -0.175544
     4  C    0.157469
     5  C   -0.169718
     6  C   -0.218613
     7  H    0.227941
     8  H    0.222523
     9  H    0.275455
    10  H    0.276921
    11  H    0.225749
    12  N    0.489662
    13  O   -0.456321
    14  O   -0.469497
    15  C   -0.164391
    16  C   -0.228955
    17  C   -0.171119
    18  C    0.157638
    19  C   -0.170768
    20  C   -0.216102
    21  H    0.236069
    22  H    0.215034
    23  H    0.272497
    24  H    0.276329
    25  H    0.231455
    26  N    0.488268
    27  O   -0.459686
    28  O   -0.462922
 Sum of Mulliken charges =  -0.00000

 Dipole moment (field-independent basis, Debye):
    X=             -5.7490    Y=              2.9258    Z=              2.8834  Tot=              7.0658
 Quadrupole moment (field-independent basis, Debye-Ang):
   XX=           -120.3585   YY=           -102.8992   ZZ=           -105.4756
   XY=            -24.2479   XZ=              9.7816   YZ=              0.8950

 Normal termination of Gaussian 16 at Thu May  6 05:04:12 2021.
