 Gaussian 16, Revision A.03,
 Gaussian 16:  EM64L-G16RevA.03 25-Dec-2016

 -------------
 #p 6-31g* mp2
 -------------

 ------------------------------------------------------
 Input file generated by CHIRIPA (05-May-2021 14:51:09)
 ------------------------------------------------------
 Symbolic Z-matrix:
 Charge =  0 Multiplicity = 1

                         Standard orientation:
 ---------------------------------------------------------------------
 Center     Atomic      Atomic             Coordinates (Angstroms)
 Number     Number       Type             X           Y           Z
 ---------------------------------------------------------------------
      1          6           0        2.400015   -0.503565    0.481094
      2          6           0        2.403285   -2.014656    0.714708
      3          6           0        1.075494   -2.529699    1.271031
      4          1           0        2.174673    0.006867    1.427469
      5          1           0        1.587084   -0.248608   -0.212834
      6          1           0        3.216840   -2.266851    1.406909
      7          1           0        2.628835   -2.521543   -0.232292
      8          1           0        0.255968   -2.306823    0.580159
      9          1           0        0.847315   -2.050684    2.228674
     10          1           0        1.099903   -3.612216    1.430473
     11          6           0        3.720531    0.026344   -0.074930
     12          6           0        3.717260    1.537436   -0.308544
     13          6           0        5.045051    2.052478   -0.864868
     14          1           0        4.533461   -0.228613    0.618998
     15          1           0        3.945872   -0.484088   -1.021305
     16          1           0        3.491711    2.044323    0.638456
     17          1           0        2.903705    1.789630   -1.000745
     18          1           0        5.273230    1.573463   -1.822510
     19          1           0        5.864577    1.829603   -0.173995
     20          1           0        5.020643    3.134995   -1.024309
     21          6           0       -3.408884    0.760398    0.232394
     22          6           0       -2.942973    2.190213   -0.044266
     23          6           0       -3.649496    3.222693    0.834713
     24          1           0       -4.494171    0.697989    0.073641
     25          1           0       -3.233698    0.523451    1.290960
     26          1           0       -3.117712    2.423915   -1.102314
     27          1           0       -1.858639    2.249179    0.114979
     28          1           0       -3.465204    3.017341    1.894179
     29          1           0       -4.731431    3.193069    0.669968
     30          1           0       -3.301359    4.237932    0.620358
     31          6           0       -2.711661   -0.283177   -0.638558
     32          6           0       -3.177573   -1.712991   -0.361897
     33          6           0       -2.471049   -2.745472   -1.240876
     34          1           0       -2.886847   -0.046230   -1.697124
     35          1           0       -1.626375   -0.220768   -0.479804
     36          1           0       -4.261906   -1.771959   -0.521142
     37          1           0       -3.002833   -1.946693    0.696150
     38          1           0       -1.389115   -2.715848   -1.076132
     39          1           0       -2.655341   -2.540120   -2.300342
     40          1           0       -2.819187   -3.760712   -1.026522
 ---------------------------------------------------------------------

 SCF Done:  E(RHF) =  -470.733307513     A.U. after   11 cycles
 E2 =    -0.1583032079D+01 EUMP2 =    -0.47231633959185D+03

 The electronic state is 1-A.
 Alpha  occ. eigenvalues --  -11.21649 -11.21626 -11.21588 -11.21586 -11.21454
 Alpha  occ. eigenvalues --  -11.21401 -11.21390 -11.21339 -11.21114 -11.21087
 Alpha  occ. eigenvalues --  -11.21059 -11.21058  -1.08474  -1.08420  -1.03578
 Alpha  occ. eigenvalues --   -1.03512  -0.96034  -0.95958  -0.87052  -0.86973
 Alpha  occ. eigenvalues --   -0.79649  -0.79564  -0.78303  -0.78218  -0.65171
 Alpha  occ. eigenvalues --   -0.64997  -0.61126  -0.60787  -0.59391  -0.59331
 Alpha  occ. eigenvalues --   -0.57650  -0.57563  -0.55498  -0.55090  -0.52709
 Alpha  occ. eigenvalues --   -0.52661  -0.52487  -0.52350  -0.50118  -0.49757
 Alpha  occ. eigenvalues --   -0.48030  -0.47831  -0.46784  -0.46500  -0.45964
 Alpha  occ. eigenvalues --   -0.45789  -0.45734  -0.45495  -0.43823  -0.43775
 Alpha virt. eigenvalues --    0.19989   0.23171   0.23631   0.24817   0.25464
 Alpha virt. eigenvalues --    0.26838   0.27051   0.27530   0.28446   0.29227
 Alpha virt. eigenvalues --    0.30513   0.31536   0.31702   0.31823   0.31935

 Mulliken charges:
               1
     1  C   -0.299910
     2  C   -0.299459
     3  C   -0.483623
     4  H    0.149583
     5  H    0.150183
     6  H    0.152329
     7  H    0.152227
     8  H    0.162325
     9  H    0.155091
    10  H    0.160945
    11  C   -0.298302
    12  C   -0.299804
    13  C   -0.475740
    14  H    0.149758
    15  H    0.149932
    16  H    0.151866
    17  H    0.152162
    18  H    0.155301
    19  H    0.155205
    20  H    0.160375
    21  C   -0.298117
    22  C   -0.299887
    23  C   -0.475691
    24  H    0.149639
    25  H    0.149925
    26  H    0.151704
    27  H    0.152428
    28  H    0.155215
    29  H    0.155108
    30  H    0.160215
    31  C   -0.301158
    32  C   -0.299926
    33  C   -0.480060
    34  H    0.149379
    35  H    0.151132
    36  H    0.152127
    37  H    0.153160
    38  H    0.158638
    39  H    0.155024
    40  H    0.160700
 Sum of Mulliken charges =  -0.00000

 Dipole moment (field-independent basis, Debye):
    X=              0.0123    Y=             -0.0068    Z=              0.0079  Tot=              0.0162
 Quadrupole moment (field-independent basis, Debye-Ang):
   XX=            -85.0573   YY=            -85.7557   ZZ=            -83.8499
   XY=             -0.1191   XZ=              1.4171   YZ=             -0.2170

 Normal termination of Gaussian 16 at Thu May  6 03:44:34 2021.
