 Gaussian 16, Revision A.03,
 Gaussian 16:  EM64L-G16RevA.03 25-Dec-2016

 -------------
 #p 6-31g* mp2
 -------------

 ------------------------------------------------------
 Input file generated by CHIRIPA (05-May-2021 14:57:26)
 ------------------------------------------------------
 Symbolic Z-matrix:
 Charge =  0 Multiplicity = 1

                         Standard orientation:
 ---------------------------------------------------------------------
 Center     Atomic      Atomic             Coordinates (Angstroms)
 Number     Number       Type             X           Y           Z
 ---------------------------------------------------------------------
      1          6           0       -0.591713   -0.487405    1.117838
      2          6           0       -1.132753   -1.440587    0.248793
      3          6           0       -2.447411   -1.317425   -0.210614
      4          6           0       -3.196067   -0.223632    0.221150
      5          6           0       -2.685372    0.742612    1.086513
      6          6           0       -1.368380    0.599237    1.533192
      7          1           0        0.430452   -0.590931    1.469773
      8          1           0       -0.531910   -2.285518   -0.075435
      9          1           0       -2.891287   -2.040731   -0.883830
     10          1           0       -3.308838    1.574020    1.392239
     11          1           0       -0.950823    1.341023    2.208059
     12          7           0       -4.589072   -0.082546   -0.258467
     13          8           0       -5.227941    0.890257    0.136675
     14          8           0       -5.015663   -0.947438   -1.020450
     15          6           0        1.559783    2.240535   -0.942440
     16          6           0        1.284007    0.983509   -1.490488
     17          6           0        2.056839   -0.128118   -1.141827
     18          6           0        3.102478    0.054146   -0.238107
     19          6           0        3.402136    1.293651    0.325029
     20          6           0        2.616105    2.391328   -0.038026
     21          1           0        0.954302    3.098654   -1.218879
     22          1           0        0.464283    0.863440   -2.193112
     23          1           0        1.865311   -1.112647   -1.551017
     24          1           0        4.225907    1.382133    1.022876
     25          1           0        2.832578    3.366356    0.389177
     26          7           0        3.927627   -1.115300    0.138624
     27          8           0        4.843240   -0.928376    0.936966
     28          8           0        3.643142   -2.196691   -0.371570
 ---------------------------------------------------------------------

 SCF Done:  E(RHF) =  -868.336757929     A.U. after   16 cycles
 E2 =    -0.2603375851D+01 EUMP2 =    -0.87094013377981D+03

 The electronic state is 1-A.
 Alpha  occ. eigenvalues --  -20.61716 -20.61695 -20.61097 -20.61090 -15.86761
 Alpha  occ. eigenvalues --  -15.86154 -11.32127 -11.31503 -11.28647 -11.28623
 Alpha  occ. eigenvalues --  -11.28283 -11.28129 -11.28111 -11.27756 -11.27647
 Alpha  occ. eigenvalues --  -11.27548 -11.27046 -11.27020  -1.60793  -1.60177
 Alpha  occ. eigenvalues --   -1.40342  -1.39730  -1.20286  -1.19695  -1.09648
 Alpha  occ. eigenvalues --   -1.09070  -1.05646  -1.05101  -0.96491  -0.95902
 Alpha  occ. eigenvalues --   -0.87035  -0.86482  -0.83299  -0.82742  -0.78377
 Alpha  occ. eigenvalues --   -0.77802  -0.72958  -0.72367  -0.72157  -0.71510
 Alpha  occ. eigenvalues --   -0.71319  -0.70761  -0.65887  -0.65609  -0.65329
 Alpha  occ. eigenvalues --   -0.65076  -0.62983  -0.62434  -0.56083  -0.55677
 Alpha  occ. eigenvalues --   -0.54253  -0.53701  -0.53167  -0.53084  -0.49731
 Alpha  occ. eigenvalues --   -0.49716  -0.49125  -0.49123  -0.45740  -0.45140
 Alpha  occ. eigenvalues --   -0.38428  -0.38168  -0.36794  -0.36402
 Alpha virt. eigenvalues --    0.04009   0.04822   0.10190   0.11032   0.15625
 Alpha virt. eigenvalues --    0.16269   0.20286   0.21323   0.25654   0.27017
 Alpha virt. eigenvalues --    0.27732   0.28040   0.30048   0.30597   0.31654

 Mulliken charges:
               1
     1  C   -0.162355
     2  C   -0.228503
     3  C   -0.173085
     4  C    0.156164
     5  C   -0.172713
     6  C   -0.221779
     7  H    0.230745
     8  H    0.227901
     9  H    0.276339
    10  H    0.274980
    11  H    0.222556
    12  N    0.488052
    13  O   -0.460901
    14  O   -0.460011
    15  C   -0.172101
    16  C   -0.208936
    17  C   -0.178739
    18  C    0.153648
    19  C   -0.175312
    20  C   -0.220653
    21  H    0.229903
    22  H    0.229476
    23  H    0.273507
    24  H    0.277400
    25  H    0.226071
    26  N    0.487060
    27  O   -0.457241
    28  O   -0.461470
 Sum of Mulliken charges =  -0.00000

 Dipole moment (field-independent basis, Debye):
    X=              2.1045    Y=              3.7298    Z=              0.3066  Tot=              4.2935
 Quadrupole moment (field-independent basis, Debye-Ang):
   XX=           -154.2707   YY=            -99.2904   ZZ=           -101.1447
   XY=             14.7696   XZ=             -6.1959   YZ=              2.8469

 Normal termination of Gaussian 16 at Wed May  5 19:34:20 2021.
