 Gaussian 16, Revision A.03,
 Gaussian 16:  EM64L-G16RevA.03 25-Dec-2016

 -------------
 #p 6-31g* mp2
 -------------

 ------------------------------------------------------
 Input file generated by CHIRIPA (05-May-2021 14:57:25)
 ------------------------------------------------------
 Symbolic Z-matrix:
 Charge =  0 Multiplicity = 1

                         Standard orientation:
 ---------------------------------------------------------------------
 Center     Atomic      Atomic             Coordinates (Angstroms)
 Number     Number       Type             X           Y           Z
 ---------------------------------------------------------------------
      1          6           0       -3.265062   -2.255584    0.588327
      2          6           0       -4.426298   -1.534690    0.291067
      3          6           0       -4.356752   -0.173669   -0.020916
      4          6           0       -3.103837    0.437448   -0.026387
      5          6           0       -1.928883   -0.253668    0.265391
      6          6           0       -2.022252   -1.613904    0.574564
      7          1           0       -3.328341   -3.312553    0.829592
      8          1           0       -5.392838   -2.030419    0.300994
      9          1           0       -5.239872    0.408361   -0.254918
     10          1           0       -0.979688    0.267988    0.247464
     11          1           0       -1.118758   -2.171250    0.805014
     12          7           0       -3.017601    1.877884   -0.355182
     13          8           0       -1.901709    2.393072   -0.353222
     14          8           0       -4.067534    2.464436   -0.608627
     15          6           0        4.019788    2.001828    0.811567
     16          6           0        3.419637    1.105891    1.702430
     17          6           0        2.916529   -0.116959    1.248483
     18          6           0        3.030873   -0.412916   -0.108949
     19          6           0        3.623413    0.458792   -1.021261
     20          6           0        4.119585    1.675992   -0.545045
     21          1           0        4.407920    2.949573    1.172853
     22          1           0        3.340754    1.356287    2.756529
     23          1           0        2.447142   -0.829035    1.916346
     24          1           0        3.687512    0.181234   -2.066380
     25          1           0        4.585170    2.369852   -1.239187
     26          7           0        2.501926   -1.704502   -0.601311
     27          8           0        2.614934   -1.941642   -1.801990
     28          8           0        1.984345   -2.455251    0.222778
 ---------------------------------------------------------------------

 SCF Done:  E(RHF) =  -868.340136103     A.U. after   16 cycles
 E2 =    -0.2598818318D+01 EUMP2 =    -0.87093895442055D+03

 The electronic state is 1-A.
 Alpha  occ. eigenvalues --  -20.61467 -20.61386 -20.60518 -20.60507 -15.86450
 Alpha  occ. eigenvalues --  -15.85559 -11.31537 -11.30748 -11.28100 -11.28015
 Alpha  occ. eigenvalues --  -11.27699 -11.27292 -11.27242 -11.27005 -11.26955
 Alpha  occ. eigenvalues --  -11.26924 -11.26288 -11.26077  -1.60490  -1.59592
 Alpha  occ. eigenvalues --   -1.40053  -1.39152  -1.19662  -1.18875  -1.09102
 Alpha  occ. eigenvalues --   -1.08297  -1.05017  -1.04236  -0.95988  -0.95173
 Alpha  occ. eigenvalues --   -0.86430  -0.85637  -0.82832  -0.82001  -0.77924
 Alpha  occ. eigenvalues --   -0.77079  -0.72673  -0.71804  -0.71781  -0.70910
 Alpha  occ. eigenvalues --   -0.70754  -0.69983  -0.65314  -0.65009  -0.64518
 Alpha  occ. eigenvalues --   -0.64196  -0.62376  -0.61576  -0.55506  -0.54731
 Alpha  occ. eigenvalues --   -0.53357  -0.53103  -0.52592  -0.52292  -0.49449
 Alpha  occ. eigenvalues --   -0.49396  -0.48549  -0.48520  -0.45507  -0.44597
 Alpha  occ. eigenvalues --   -0.37603  -0.36841  -0.36601  -0.35836
 Alpha virt. eigenvalues --    0.04552   0.05421   0.11027   0.11819   0.16093
 Alpha virt. eigenvalues --    0.16979   0.21139   0.22051   0.26929   0.27510
 Alpha virt. eigenvalues --    0.28398   0.28766   0.30804   0.31604   0.32494

 Mulliken charges:
               1
     1  C   -0.171462
     2  C   -0.218280
     3  C   -0.172623
     4  C    0.158502
     5  C   -0.173862
     6  C   -0.223765
     7  H    0.226928
     8  H    0.221801
     9  H    0.273443
    10  H    0.270714
    11  H    0.241904
    12  N    0.488242
    13  O   -0.463857
    14  O   -0.461704
    15  C   -0.167991
    16  C   -0.216456
    17  C   -0.174748
    18  C    0.156339
    19  C   -0.169026
    20  C   -0.216539
    21  H    0.228815
    22  H    0.225215
    23  H    0.271701
    24  H    0.276924
    25  H    0.226526
    26  N    0.488432
    27  O   -0.454372
    28  O   -0.470801
 Sum of Mulliken charges =  -0.00000

 Dipole moment (field-independent basis, Debye):
    X=              1.8910    Y=             -0.4872    Z=              2.8371  Tot=              3.4442
 Quadrupole moment (field-independent basis, Debye-Ang):
   XX=            -86.5948   YY=           -113.7585   ZZ=           -101.6233
   XY=             30.1421   XZ=              0.4049   YZ=             -1.7115

 Normal termination of Gaussian 16 at Thu May  6 13:03:24 2021.
