 Gaussian 16, Revision A.03,
 Gaussian 16:  EM64L-G16RevA.03 25-Dec-2016

 -------------
 #p 6-31g* mp2
 -------------

 ------------------------------------------------------
 Input file generated by CHIRIPA (05-May-2021 14:51:13)
 ------------------------------------------------------
 Symbolic Z-matrix:
 Charge =  0 Multiplicity = 1

                         Standard orientation:
 ---------------------------------------------------------------------
 Center     Atomic      Atomic             Coordinates (Angstroms)
 Number     Number       Type             X           Y           Z
 ---------------------------------------------------------------------
      1          6           0        3.476886   -0.425561   -0.227549
      2          6           0        4.625095   -1.373916    0.119181
      3          6           0        4.296743   -2.835876   -0.185209
      4          1           0        2.580267   -0.725628    0.331896
      5          1           0        3.230951   -0.532913   -1.293094
      6          1           0        4.869713   -1.263803    1.183443
      7          1           0        5.519137   -1.071440   -0.441009
      8          1           0        4.073335   -2.967126   -1.248912
      9          1           0        3.420221   -3.160582    0.384770
     10          1           0        5.131248   -3.496352    0.070198
     11          6           0        3.790020    1.039522    0.071127
     12          6           0        2.641810    1.987878   -0.275603
     13          6           0        2.970163    3.449837    0.028787
     14          1           0        4.035955    1.146875    1.136672
     15          1           0        4.686639    1.339589   -0.488318
     16          1           0        1.747768    1.685402    0.284587
     17          1           0        2.397192    1.877765   -1.339865
     18          1           0        3.846684    3.774544   -0.541192
     19          1           0        3.193570    3.581088    1.092490
     20          1           0        2.135658    4.110313   -0.226620
     21          6           0       -4.293176   -0.385984   -0.298559
     22          6           0       -5.452320    0.378693    0.341471
     23          6           0       -6.765366    0.210827   -0.423725
     24          1           0       -4.162519   -0.042017   -1.333721
     25          1           0       -4.552648   -1.452289   -0.353898
     26          1           0       -5.190174    1.443038    0.396848
     27          1           0       -5.580109    0.033001    1.375290
     28          1           0       -7.053569   -0.844459   -0.467440
     29          1           0       -6.661419    0.573590   -1.451441
     30          1           0       -7.580513    0.765742    0.051108
     31          6           0       -2.973729   -0.227977    0.454981
     32          6           0       -1.814586   -0.992655   -0.185049
     33          6           0       -0.501539   -0.824789    0.580147
     34          1           0       -2.714258    0.838329    0.510320
     35          1           0       -3.104386   -0.571945    1.490143
     36          1           0       -1.686797   -0.646963   -1.218868
     37          1           0       -2.076732   -2.056998   -0.240426
     38          1           0       -0.605487   -1.187550    1.607863
     39          1           0       -0.213336    0.230497    0.623862
     40          1           0        0.313607   -1.379704    0.105314
 ---------------------------------------------------------------------

 SCF Done:  E(RHF) =  -470.732593782     A.U. after   11 cycles
 E2 =    -0.1583426826D+01 EUMP2 =    -0.47231602060794D+03

 The electronic state is 1-A.
 Alpha  occ. eigenvalues --  -11.21606 -11.21604 -11.21556 -11.21552 -11.21411
 Alpha  occ. eigenvalues --  -11.21351 -11.21339 -11.21253 -11.21074 -11.21058
 Alpha  occ. eigenvalues --  -11.21054 -11.21053  -1.08441  -1.08376  -1.03538
 Alpha  occ. eigenvalues --   -1.03496  -0.96007  -0.95931  -0.87025  -0.86957
 Alpha  occ. eigenvalues --   -0.79627  -0.79560  -0.78281  -0.78153  -0.65101
 Alpha  occ. eigenvalues --   -0.64991  -0.61001  -0.60844  -0.59411  -0.59285
 Alpha  occ. eigenvalues --   -0.57664  -0.57492  -0.55288  -0.55237  -0.52799
 Alpha  occ. eigenvalues --   -0.52622  -0.52456  -0.52281  -0.49997  -0.49854
 Alpha  occ. eigenvalues --   -0.48034  -0.47768  -0.46758  -0.46496  -0.45856
 Alpha  occ. eigenvalues --   -0.45755  -0.45695  -0.45511  -0.43759  -0.43667
 Alpha virt. eigenvalues --    0.21925   0.23036   0.23817   0.24054   0.25719
 Alpha virt. eigenvalues --    0.26704   0.27057   0.27431   0.27927   0.29004
 Alpha virt. eigenvalues --    0.29634   0.31528   0.31769   0.31880   0.32384

 Mulliken charges:
               1
     1  C   -0.306382
     2  C   -0.298970
     3  C   -0.476169
     4  H    0.160301
     5  H    0.148270
     6  H    0.151729
     7  H    0.151602
     8  H    0.154937
     9  H    0.154928
    10  H    0.160323
    11  C   -0.297435
    12  C   -0.305383
    13  C   -0.475290
    14  H    0.149185
    15  H    0.149269
    16  H    0.157670
    17  H    0.151410
    18  H    0.155165
    19  H    0.155122
    20  H    0.159666
    21  C   -0.298283
    22  C   -0.299629
    23  C   -0.475704
    24  H    0.149710
    25  H    0.149554
    26  H    0.151929
    27  H    0.151907
    28  H    0.155192
    29  H    0.155199
    30  H    0.160260
    31  C   -0.298721
    32  C   -0.299375
    33  C   -0.483832
    34  H    0.149509
    35  H    0.149521
    36  H    0.152390
    37  H    0.151879
    38  H    0.154387
    39  H    0.159509
    40  H    0.164652
 Sum of Mulliken charges =  -0.00000

 Dipole moment (field-independent basis, Debye):
    X=             -0.0224    Y=             -0.0107    Z=              0.0076  Tot=              0.0260
 Quadrupole moment (field-independent basis, Debye-Ang):
   XX=            -85.8382   YY=            -85.3869   ZZ=            -83.7965
   XY=              0.0899   XZ=             -0.8982   YZ=             -0.7727

 Normal termination of Gaussian 16 at Wed May  5 19:56:36 2021.
