 Gaussian 16, Revision A.03,
 Gaussian 16:  EM64L-G16RevA.03 25-Dec-2016

 -------------
 #p 6-31g* mp2
 -------------

 ------------------------------------------------------
 Input file generated by CHIRIPA (05-May-2021 14:55:20)
 ------------------------------------------------------
 Symbolic Z-matrix:
 Charge =  0 Multiplicity = 1

                         Standard orientation:
 ---------------------------------------------------------------------
 Center     Atomic      Atomic             Coordinates (Angstroms)
 Number     Number       Type             X           Y           Z
 ---------------------------------------------------------------------
      1          6           0       -1.266201   -2.153871   -0.755658
      2          6           0       -0.854250   -0.819257   -0.680661
      3          6           0       -1.753145    0.180840   -0.298113
      4          6           0       -3.062335   -0.190859    0.003800
      5          6           0       -3.502994   -1.511783   -0.061528
      6          6           0       -2.586930   -2.495272   -0.446397
      7          1           0       -0.561249   -2.924319   -1.053732
      8          1           0        0.170827   -0.551202   -0.920262
      9          1           0       -1.460893    1.221803   -0.231764
     10          1           0       -4.531355   -1.748245    0.183372
     11          1           0       -2.909651   -3.530938   -0.503771
     12          7           0       -4.023043    0.859108    0.410015
     13          8           0       -5.170941    0.505681    0.670890
     14          8           0       -3.609956    2.015617    0.459839
     15          6           0        3.104145    0.921336    0.094313
     16          6           0        3.385299    2.331759   -0.424958
     17          6           0        2.149327    3.231239   -0.391739
     18          1           0        2.303466    0.469020   -0.506742
     19          1           0        2.724090    0.985952    1.123283
     20          1           0        3.766019    2.264420   -1.452155
     21          1           0        4.185535    2.780699    0.177281
     22          1           0        1.770747    3.328110    0.630950
     23          1           0        1.348848    2.808899   -1.007745
     24          1           0        2.372854    4.234687   -0.767226
     25          6           0        4.330092    0.010263    0.067348
     26          6           0        4.048938   -1.400160    0.586620
     27          6           0        5.284910   -2.299640    0.553402
     28          1           0        4.710149   -0.054353   -0.961620
     29          1           0        5.130773    0.462578    0.668405
     30          1           0        3.248702   -1.849100   -0.015620
     31          1           0        3.668218   -1.332821    1.613817
     32          1           0        6.085390   -1.877299    1.169407
     33          1           0        5.663490   -2.396511   -0.469288
     34          1           0        5.061384   -3.303087    0.928888
 ---------------------------------------------------------------------

 SCF Done:  E(RHF) =  -669.535515940     A.U. after   15 cycles
 E2 =    -0.2091479788D+01 EUMP2 =    -0.67162699572798D+03

 The electronic state is 1-A.
 Alpha  occ. eigenvalues --  -20.60711 -20.60705 -15.85763 -11.31123 -11.27695
 Alpha  occ. eigenvalues --  -11.27677 -11.27437 -11.26714 -11.26674 -11.22388
 Alpha  occ. eigenvalues --  -11.22306 -11.22237 -11.22119 -11.21715 -11.21662
 Alpha  occ. eigenvalues --   -1.59786  -1.39340  -1.19295  -1.09201  -1.08693
 Alpha  occ. eigenvalues --   -1.04696  -1.04225  -0.96670  -0.95528  -0.87681
 Alpha  occ. eigenvalues --   -0.86098  -0.82363  -0.80288  -0.79046  -0.77402
 Alpha  occ. eigenvalues --   -0.71982  -0.71110  -0.70406  -0.65865  -0.64947
 Alpha  occ. eigenvalues --   -0.64692  -0.62062  -0.61605  -0.60035  -0.58286
 Alpha  occ. eigenvalues --   -0.55965  -0.55204  -0.53329  -0.53153  -0.53026
 Alpha  occ. eigenvalues --   -0.52745  -0.50606  -0.48747  -0.48737  -0.48600
 Alpha  occ. eigenvalues --   -0.47329  -0.46564  -0.46470  -0.44747  -0.44500
 Alpha  occ. eigenvalues --   -0.37279  -0.36297
 Alpha virt. eigenvalues --    0.05125   0.11342   0.16610   0.18861   0.22723
 Alpha virt. eigenvalues --    0.23285   0.24610   0.26181   0.26434   0.28344
 Alpha virt. eigenvalues --    0.29635   0.30624   0.31160   0.31328   0.31623

 Mulliken charges:
               1
     1  C   -0.172784
     2  C   -0.224309
     3  C   -0.175209
     4  C    0.158780
     5  C   -0.171129
     6  C   -0.218579
     7  H    0.225686
     8  H    0.233299
     9  H    0.277174
    10  H    0.275341
    11  H    0.223105
    12  N    0.488059
    13  O   -0.460813
    14  O   -0.460291
    15  C   -0.303729
    16  C   -0.299962
    17  C   -0.476709
    18  H    0.141231
    19  H    0.153776
    20  H    0.153092
    21  H    0.155862
    22  H    0.159208
    23  H    0.149177
    24  H    0.165603
    25  C   -0.298349
    26  C   -0.298655
    27  C   -0.476137
    28  H    0.150503
    29  H    0.153756
    30  H    0.143333
    31  H    0.154816
    32  H    0.158028
    33  H    0.155820
    34  H    0.161005
 Sum of Mulliken charges =  -0.00000

 Dipole moment (field-independent basis, Debye):
    X=              3.6089    Y=             -3.5963    Z=             -1.3500  Tot=              5.2707
 Quadrupole moment (field-independent basis, Debye-Ang):
   XX=           -113.0006   YY=            -91.3177   ZZ=            -94.6757
   XY=             14.5846   XZ=              4.4476   YZ=              0.2276

 Normal termination of Gaussian 16 at Wed May  5 22:11:30 2021.
