 Gaussian 16, Revision A.03,
 Gaussian 16:  EM64L-G16RevA.03 25-Dec-2016

 -------------
 #p 6-31g* mp2
 -------------

 ------------------------------------------------------
 Input file generated by CHIRIPA (05-May-2021 14:53:17)
 ------------------------------------------------------
 Symbolic Z-matrix:
 Charge =  0 Multiplicity = 1

                         Standard orientation:
 ---------------------------------------------------------------------
 Center     Atomic      Atomic             Coordinates (Angstroms)
 Number     Number       Type             X           Y           Z
 ---------------------------------------------------------------------
      1          6           0        3.632136   -0.259229    0.817283
      2          6           0        2.248714   -0.781130    0.427733
      3          6           0        1.320586   -0.950878    1.630877
      4          1           0        4.087971   -0.950654    1.539149
      5          1           0        3.520775    0.703882    1.334402
      6          1           0        2.362746   -1.742303   -0.089722
      7          1           0        1.796198   -0.088482   -0.293436
      8          1           0        1.177266    0.005144    2.144767
      9          1           0        1.747033   -1.658074    2.349638
     10          1           0        0.337111   -1.324893    1.329629
     11          6           0        4.571385   -0.084303   -0.374748
     12          6           0        5.954807    0.437598    0.014802
     13          6           0        6.882936    0.607346   -1.188342
     14          1           0        4.682747   -1.047414   -0.891867
     15          1           0        4.115550    0.607122   -1.096614
     16          1           0        6.407323   -0.255050    0.735971
     17          1           0        5.840775    1.398771    0.532257
     18          1           0        6.456488    1.314542   -1.907103
     19          1           0        7.026255   -0.348676   -1.702232
     20          1           0        7.866410    0.981361   -0.887094
     21          6           0       -3.127744    2.636046    0.144559
     22          6           0       -4.359331    1.980864    0.042325
     23          6           0       -4.413853    0.595009   -0.133695
     24          6           0       -3.211921   -0.107677   -0.203553
     25          6           0       -1.969285    0.516380   -0.105079
     26          6           0       -1.938748    1.903005    0.070661
     27          1           0       -3.094707    3.712911    0.281187
     28          1           0       -5.284322    2.547594    0.099368
     29          1           0       -5.353562    0.062450   -0.215827
     30          1           0       -1.064074   -0.075521   -0.165614
     31          1           0       -0.980842    2.409174    0.149744
     32          7           0       -3.256945   -1.575228   -0.389749
     33          8           0       -2.183802   -2.171538   -0.448193
     34          8           0       -4.364525   -2.101396   -0.473721
 ---------------------------------------------------------------------

 SCF Done:  E(RHF) =  -669.535698929     A.U. after   15 cycles
 E2 =    -0.2091694139D+01 EUMP2 =    -0.67162739306786D+03

 The electronic state is 1-A.
 Alpha  occ. eigenvalues --  -20.60824 -20.60818 -15.85860 -11.31175 -11.27754
 Alpha  occ. eigenvalues --  -11.27708 -11.27497 -11.26763 -11.26748 -11.21844
 Alpha  occ. eigenvalues --  -11.21749 -11.21598 -11.21523 -11.21190 -11.21187
 Alpha  occ. eigenvalues --   -1.59887  -1.39443  -1.19353  -1.08760  -1.08617
 Alpha  occ. eigenvalues --   -1.04752  -1.03706  -0.96149  -0.95596  -0.87159
 Alpha  occ. eigenvalues --   -0.86151  -0.82432  -0.79763  -0.78426  -0.77488
 Alpha  occ. eigenvalues --   -0.72083  -0.71202  -0.70478  -0.65264  -0.65006
 Alpha  occ. eigenvalues --   -0.64770  -0.62178  -0.61084  -0.59472  -0.57742
 Alpha  occ. eigenvalues --   -0.55458  -0.55232  -0.53103  -0.52999  -0.52709
 Alpha  occ. eigenvalues --   -0.52452  -0.50087  -0.48842  -0.48834  -0.48069
 Alpha  occ. eigenvalues --   -0.46815  -0.45969  -0.45893  -0.44858  -0.43934
 Alpha  occ. eigenvalues --   -0.37339  -0.36343
 Alpha virt. eigenvalues --    0.05020   0.11267   0.16525   0.20047   0.22864
 Alpha virt. eigenvalues --    0.23838   0.26134   0.26762   0.27490   0.27782
 Alpha virt. eigenvalues --    0.29413   0.29956   0.31443   0.31600   0.31959

 Mulliken charges:
               1
     1  C   -0.297859
     2  C   -0.300976
     3  C   -0.488412
     4  H    0.152246
     5  H    0.146429
     6  H    0.160692
     7  H    0.141990
     8  H    0.148857
     9  H    0.160905
    10  H    0.173630
    11  C   -0.298283
    12  C   -0.299696
    13  C   -0.475768
    14  H    0.152099
    15  H    0.147690
    16  H    0.152979
    17  H    0.150647
    18  H    0.154534
    19  H    0.156410
    20  H    0.160532
    21  C   -0.170453
    22  C   -0.218956
    23  C   -0.170192
    24  C    0.157096
    25  C   -0.175785
    26  C   -0.221554
    27  H    0.225496
    28  H    0.223387
    29  H    0.275476
    30  H    0.287281
    31  H    0.223275
    32  N    0.488439
    33  O   -0.462625
    34  O   -0.459531
 Sum of Mulliken charges =  -0.00000

 Dipole moment (field-independent basis, Debye):
    X=              0.1930    Y=              5.0450    Z=              0.6674  Tot=              5.0926
 Quadrupole moment (field-independent basis, Debye-Ang):
   XX=            -90.9278   YY=            -95.3866   ZZ=            -96.5391
   XY=            -17.7705   XZ=             -1.4473   YZ=             -1.2019

 Normal termination of Gaussian 16 at Wed May  5 20:25:34 2021.
