 Gaussian 16, Revision A.03,
 Gaussian 16:  EM64L-G16RevA.03 25-Dec-2016

 -------------
 #p 6-31g* mp2
 -------------

 ------------------------------------------------------
 Input file generated by CHIRIPA (05-May-2021 14:51:13)
 ------------------------------------------------------
 Symbolic Z-matrix:
 Charge =  0 Multiplicity = 1

                         Standard orientation:
 ---------------------------------------------------------------------
 Center     Atomic      Atomic             Coordinates (Angstroms)
 Number     Number       Type             X           Y           Z
 ---------------------------------------------------------------------
      1          6           0       -4.104993   -0.594002   -0.310263
      2          6           0       -5.465376    0.098201   -0.219718
      3          6           0       -6.432441   -0.353320   -1.314573
      4          1           0       -3.663895   -0.394075   -1.296370
      5          1           0       -4.249785   -1.681412   -0.247267
      6          1           0       -5.317935    1.184048   -0.281476
      7          1           0       -5.903201   -0.103238    0.766359
      8          1           0       -6.608940   -1.431982   -1.251821
      9          1           0       -6.020348   -0.137381   -2.305609
     10          1           0       -7.398634    0.153975   -1.231017
     11          6           0       -3.127289   -0.153037    0.777566
     12          6           0       -1.766907   -0.845240    0.687020
     13          6           0       -0.799842   -0.393718    1.781876
     14          1           0       -2.982498    0.934374    0.714570
     15          1           0       -3.568388   -0.352964    1.763673
     16          1           0       -1.329081   -0.643800   -0.299056
     17          1           0       -1.914348   -1.931086    0.748778
     18          1           0       -1.211935   -0.609657    2.772912
     19          1           0       -0.623343    0.684943    1.719123
     20          1           0        0.166351   -0.901014    1.698319
     21          6           0        3.394049    1.102662   -0.283233
     22          6           0        1.910587    1.307039    0.025887
     23          6           0        1.481414    2.770911   -0.077455
     24          1           0        3.993273    1.711564    0.407503
     25          1           0        3.605760    1.477296   -1.294283
     26          1           0        1.701455    0.930866    1.035527
     27          1           0        1.314832    0.697432   -0.665541
     28          1           0        1.661626    3.154865   -1.086763
     29          1           0        2.050446    3.389626    0.623970
     30          1           0        0.417421    2.894173    0.147457
     31          6           0        3.838233   -0.355624   -0.184071
     32          6           0        5.321696   -0.560000   -0.493189
     33          6           0        5.750869   -2.023873   -0.389848
     34          1           0        3.626523   -0.730258    0.826981
     35          1           0        3.239011   -0.964525   -0.874806
     36          1           0        5.917451    0.049607    0.198238
     37          1           0        5.530828   -0.183828   -1.502830
     38          1           0        5.181837   -2.642587   -1.091272
     39          1           0        5.570657   -2.407827    0.619461
     40          1           0        6.814862   -2.147135   -0.614760
 ---------------------------------------------------------------------

 SCF Done:  E(RHF) =  -470.732117767     A.U. after   11 cycles
 E2 =    -0.1583624419D+01 EUMP2 =    -0.47231574218627D+03

 The electronic state is 1-A.
 Alpha  occ. eigenvalues --  -11.21599 -11.21596 -11.21580 -11.21477 -11.21400
 Alpha  occ. eigenvalues --  -11.21386 -11.21341 -11.21314 -11.21080 -11.21070
 Alpha  occ. eigenvalues --  -11.21068 -11.20979  -1.08442  -1.08386  -1.03584
 Alpha  occ. eigenvalues --   -1.03443  -0.96024  -0.95914  -0.87032  -0.86945
 Alpha  occ. eigenvalues --   -0.79695  -0.79475  -0.78252  -0.78202  -0.65067
 Alpha  occ. eigenvalues --   -0.65033  -0.61013  -0.60875  -0.59445  -0.59220
 Alpha  occ. eigenvalues --   -0.57608  -0.57569  -0.55303  -0.55171  -0.52748
 Alpha  occ. eigenvalues --   -0.52624  -0.52444  -0.52311  -0.50014  -0.49829
 Alpha  occ. eigenvalues --   -0.47901  -0.47837  -0.46827  -0.46417  -0.45807
 Alpha  occ. eigenvalues --   -0.45773  -0.45697  -0.45544  -0.43786  -0.43696
 Alpha virt. eigenvalues --    0.21062   0.23015   0.23580   0.24971   0.25808
 Alpha virt. eigenvalues --    0.26047   0.26515   0.27551   0.27940   0.29295
 Alpha virt. eigenvalues --    0.30506   0.30863   0.31398   0.32037   0.32436

 Mulliken charges:
               1
     1  C   -0.298287
     2  C   -0.299645
     3  C   -0.475700
     4  H    0.149518
     5  H    0.149548
     6  H    0.151924
     7  H    0.151953
     8  H    0.155171
     9  H    0.155149
    10  H    0.160257
    11  C   -0.298457
    12  C   -0.301208
    13  C   -0.477717
    14  H    0.149181
    15  H    0.149748
    16  H    0.152834
    17  H    0.151811
    18  H    0.153834
    19  H    0.158747
    20  H    0.161910
    21  C   -0.297818
    22  C   -0.304071
    23  C   -0.477404
    24  H    0.149316
    25  H    0.148802
    26  H    0.159240
    27  H    0.152301
    28  H    0.155160
    29  H    0.155358
    30  H    0.159351
    31  C   -0.298615
    32  C   -0.299515
    33  C   -0.475723
    34  H    0.149109
    35  H    0.149429
    36  H    0.151988
    37  H    0.151996
    38  H    0.155139
    39  H    0.155135
    40  H    0.160252
 Sum of Mulliken charges =  -0.00000

 Dipole moment (field-independent basis, Debye):
    X=              0.0035    Y=             -0.0080    Z=              0.0191  Tot=              0.0210
 Quadrupole moment (field-independent basis, Debye-Ang):
   XX=            -85.6242   YY=            -85.3597   ZZ=            -83.9770
   XY=              0.5622   XZ=             -0.5204   YZ=             -0.4191

 Normal termination of Gaussian 16 at Wed May  5 23:13:41 2021.
