 Gaussian 16, Revision A.03,
 Gaussian 16:  EM64L-G16RevA.03 25-Dec-2016

 -------------
 #p 6-31g* mp2
 -------------

 ------------------------------------------------------
 Input file generated by CHIRIPA (05-May-2021 14:53:14)
 ------------------------------------------------------
 Symbolic Z-matrix:
 Charge =  0 Multiplicity = 1

                         Standard orientation:
 ---------------------------------------------------------------------
 Center     Atomic      Atomic             Coordinates (Angstroms)
 Number     Number       Type             X           Y           Z
 ---------------------------------------------------------------------
      1          6           0        3.733144   -0.125381   -0.322096
      2          6           0        4.070141   -1.456637    0.350344
      3          6           0        4.896685   -2.379175   -0.546062
      4          1           0        3.185139   -0.320945   -1.253970
      5          1           0        4.666232    0.379444   -0.608263
      6          1           0        3.136729   -1.958163    0.636401
      7          1           0        4.617241   -1.257874    1.280823
      8          1           0        5.843016   -1.902391   -0.821258
      9          1           0        4.354093   -2.606659   -1.469342
     10          1           0        5.126286   -3.325077   -0.045649
     11          6           0        2.907164    0.807699    0.561560
     12          6           0        2.570166    2.138955   -0.110880
     13          6           0        1.743623    3.061493    0.785526
     14          1           0        1.974075    0.302874    0.847727
     15          1           0        3.455169    1.003263    1.493434
     16          1           0        2.023067    1.940192   -1.041359
     17          1           0        3.503579    2.640481   -0.396937
     18          1           0        2.286215    3.288976    1.708806
     19          1           0        0.797291    2.584708    1.060722
     20          1           0        1.514021    4.007395    0.285113
     21          6           0       -2.498581    2.219550   -0.513359
     22          6           0       -1.340483    1.444414   -0.633751
     23          6           0       -1.381543    0.066067   -0.403482
     24          6           0       -2.603082   -0.506875   -0.052954
     25          6           0       -3.774088    0.238562    0.074942
     26          6           0       -3.709553    1.615216   -0.160021
     27          1           0       -2.457565    3.289625   -0.694060
     28          1           0       -0.398637    1.911050   -0.908019
     29          1           0       -0.500129   -0.557709   -0.489672
     30          1           0       -4.698331   -0.255033    0.349820
     31          1           0       -4.610534    2.214713   -0.065788
     32          7           0       -2.658978   -1.965173    0.193306
     33          8           0       -3.747511   -2.445935    0.500877
     34          8           0       -1.613197   -2.599812    0.074090
 ---------------------------------------------------------------------

 SCF Done:  E(RHF) =  -669.534737748     A.U. after   15 cycles
 E2 =    -0.2093049437D+01 EUMP2 =    -0.67162778718422D+03

 The electronic state is 1-A.
 Alpha  occ. eigenvalues --  -20.60790 -20.60784 -15.85842 -11.31207 -11.27769
 Alpha  occ. eigenvalues --  -11.27765 -11.27493 -11.26784 -11.26707 -11.22519
 Alpha  occ. eigenvalues --  -11.22010 -11.21913 -11.21796 -11.21717 -11.21106
 Alpha  occ. eigenvalues --   -1.59864  -1.39418  -1.19375  -1.08982  -1.08762
 Alpha  occ. eigenvalues --   -1.04789  -1.04033  -0.96483  -0.95602  -0.87500
 Alpha  occ. eigenvalues --   -0.86169  -0.82440  -0.80135  -0.78710  -0.77498
 Alpha  occ. eigenvalues --   -0.72060  -0.71187  -0.70478  -0.65789  -0.65018
 Alpha  occ. eigenvalues --   -0.64759  -0.62294  -0.61196  -0.59886  -0.58061
 Alpha  occ. eigenvalues --   -0.55828  -0.55238  -0.53185  -0.53119  -0.52928
 Alpha  occ. eigenvalues --   -0.52716  -0.50424  -0.48818  -0.48816  -0.48405
 Alpha  occ. eigenvalues --   -0.47208  -0.46253  -0.46150  -0.44824  -0.44282
 Alpha  occ. eigenvalues --   -0.37341  -0.36352
 Alpha virt. eigenvalues --    0.05026   0.11185   0.16437   0.18937   0.22912
 Alpha virt. eigenvalues --    0.23912   0.25282   0.26305   0.27196   0.28739
 Alpha virt. eigenvalues --    0.29647   0.30650   0.31028   0.31325   0.32286

 Mulliken charges:
               1
     1  C   -0.298866
     2  C   -0.301562
     3  C   -0.476052
     4  H    0.147773
     5  H    0.150732
     6  H    0.157974
     7  H    0.152488
     8  H    0.154061
     9  H    0.156639
    10  H    0.163199
    11  C   -0.301073
    12  C   -0.305352
    13  C   -0.485591
    14  H    0.149450
    15  H    0.154355
    16  H    0.143043
    17  H    0.158295
    18  H    0.162284
    19  H    0.158651
    20  H    0.157286
    21  C   -0.173780
    22  C   -0.224066
    23  C   -0.176903
    24  C    0.159312
    25  C   -0.170824
    26  C   -0.218229
    27  H    0.226589
    28  H    0.237631
    29  H    0.276268
    30  H    0.275654
    31  H    0.223547
    32  N    0.488152
    33  O   -0.460258
    34  O   -0.460825
 Sum of Mulliken charges =  -0.00000

 Dipole moment (field-independent basis, Debye):
    X=              0.3218    Y=              5.0797    Z=             -0.7854  Tot=              5.1501
 Quadrupole moment (field-independent basis, Debye-Ang):
   XX=            -89.8891   YY=           -100.9306   ZZ=            -95.4249
   XY=            -13.4071   XZ=              2.0543   YZ=              0.0779

 Normal termination of Gaussian 16 at Wed May  5 17:05:26 2021.
