 Gaussian 16, Revision A.03,
 Gaussian 16:  EM64L-G16RevA.03 25-Dec-2016

 -------------
 #p 6-31g* mp2
 -------------

 ------------------------------------------------------
 Input file generated by CHIRIPA (05-May-2021 14:57:27)
 ------------------------------------------------------
 Symbolic Z-matrix:
 Charge =  0 Multiplicity = 1

                         Standard orientation:
 ---------------------------------------------------------------------
 Center     Atomic      Atomic             Coordinates (Angstroms)
 Number     Number       Type             X           Y           Z
 ---------------------------------------------------------------------
      1          6           0        0.899125   -0.071793    1.097534
      2          6           0        1.546971    1.125645    0.776661
      3          6           0        2.860759    1.116162    0.298731
      4          6           0        3.499646   -0.114258    0.153195
      5          6           0        2.881035   -1.324144    0.464300
      6          6           0        1.567048   -1.290717    0.940606
      7          1           0       -0.121535   -0.055127    1.468171
      8          1           0        1.030712    2.073754    0.897533
      9          1           0        3.385994    2.028312    0.042743
     10          1           0        3.421572   -2.253696    0.333269
     11          1           0        1.066406   -2.222221    1.189006
     12          7           0        4.890601   -0.136971   -0.351909
     13          8           0        5.431591   -1.234117   -0.471227
     14          8           0        5.413503    0.942803   -0.618927
     15          6           0       -4.139604   -2.257453   -0.180430
     16          6           0       -4.866754   -1.230249    0.429999
     17          6           0       -4.394736    0.085475    0.405167
     18          6           0       -3.186369    0.339440   -0.241857
     19          6           0       -2.438943   -0.662339   -0.859177
     20          6           0       -2.930151   -1.970726   -0.821940
     21          1           0       -4.513731   -3.276690   -0.156321
     22          1           0       -5.806341   -1.449993    0.928932
     23          1           0       -4.937424    0.899806    0.869680
     24          1           0       -1.505592   -0.412384   -1.348866
     25          1           0       -2.363315   -2.766463   -1.296852
     26          7           0       -2.676507    1.728455   -0.274713
     27          8           0       -1.609169    1.926109   -0.851218
     28          8           0       -3.353870    2.593210    0.276663
 ---------------------------------------------------------------------

 SCF Done:  E(RHF) =  -868.339062809     A.U. after   16 cycles
 E2 =    -0.2600715932D+01 EUMP2 =    -0.87093977874128D+03

 The electronic state is 1-A.
 Alpha  occ. eigenvalues --  -20.61850 -20.61837 -20.60500 -20.60482 -15.86870
 Alpha  occ. eigenvalues --  -15.85541 -11.32136 -11.30848 -11.28668 -11.28656
 Alpha  occ. eigenvalues --  -11.28376 -11.27644 -11.27628 -11.27447 -11.27279
 Alpha  occ. eigenvalues --  -11.27093 -11.26516 -11.26199  -1.60923  -1.59570
 Alpha  occ. eigenvalues --   -1.40471  -1.39125  -1.20297  -1.18995  -1.09705
 Alpha  occ. eigenvalues --   -1.08404  -1.05660  -1.04367  -0.96551  -0.95254
 Alpha  occ. eigenvalues --   -0.87058  -0.85763  -0.83369  -0.82075  -0.78439
 Alpha  occ. eigenvalues --   -0.77130  -0.73081  -0.72281  -0.71759  -0.71361
 Alpha  occ. eigenvalues --   -0.70892  -0.70097  -0.65928  -0.65632  -0.64635
 Alpha  occ. eigenvalues --   -0.64334  -0.62984  -0.61696  -0.56143  -0.54937
 Alpha  occ. eigenvalues --   -0.53979  -0.53727  -0.52716  -0.52433  -0.49850
 Alpha  occ. eigenvalues --   -0.49836  -0.48521  -0.48511  -0.45886  -0.44544
 Alpha  occ. eigenvalues --   -0.38278  -0.37369  -0.36869  -0.35952
 Alpha virt. eigenvalues --    0.04015   0.05367   0.10344   0.11663   0.15566
 Alpha virt. eigenvalues --    0.16881   0.20643   0.21771   0.26534   0.27531
 Alpha virt. eigenvalues --    0.27821   0.28272   0.30249   0.31326   0.31740

 Mulliken charges:
               1
     1  C   -0.175037
     2  C   -0.210601
     3  C   -0.173115
     4  C    0.158559
     5  C   -0.173260
     6  C   -0.223097
     7  H    0.222708
     8  H    0.238251
     9  H    0.276851
    10  H    0.272628
    11  H    0.217624
    12  N    0.488025
    13  O   -0.462880
    14  O   -0.459474
    15  C   -0.170299
    16  C   -0.218688
    17  C   -0.171074
    18  C    0.152681
    19  C   -0.176489
    20  C   -0.221149
    21  H    0.228794
    22  H    0.226619
    23  H    0.277573
    24  H    0.281041
    25  H    0.226416
    26  N    0.486266
    27  O   -0.462053
    28  O   -0.456819
 Sum of Mulliken charges =  -0.00000

 Dipole moment (field-independent basis, Debye):
    X=             -6.9905    Y=             -4.6241    Z=              1.8434  Tot=              8.5818
 Quadrupole moment (field-independent basis, Debye-Ang):
   XX=           -124.9646   YY=           -102.9533   ZZ=           -104.4126
   XY=             15.2699   XZ=              3.1728   YZ=              1.7770

 Normal termination of Gaussian 16 at Thu May  6 11:31:57 2021.
