 Gaussian 16, Revision A.03,
 Gaussian 16:  EM64L-G16RevA.03 25-Dec-2016

 -------------
 #p 6-31g* mp2
 -------------

 ------------------------------------------------------
 Input file generated by CHIRIPA (05-May-2021 14:53:18)
 ------------------------------------------------------
 Symbolic Z-matrix:
 Charge =  0 Multiplicity = 1

                         Standard orientation:
 ---------------------------------------------------------------------
 Center     Atomic      Atomic             Coordinates (Angstroms)
 Number     Number       Type             X           Y           Z
 ---------------------------------------------------------------------
      1          6           0       -3.983241    0.213074   -0.111116
      2          6           0       -3.979938   -1.261429   -0.515855
      3          6           0       -5.344313   -1.741384   -1.011756
      4          1           0       -4.736028    0.369655    0.673574
      5          1           0       -4.296696    0.821384   -0.970825
      6          1           0       -3.665248   -1.866662    0.343958
      7          1           0       -3.226938   -1.414554   -1.299539
      8          1           0       -5.662177   -1.162695   -1.885073
      9          1           0       -6.102978   -1.617372   -0.232238
     10          1           0       -5.319273   -2.798065   -1.295760
     11          6           0       -2.626340    0.707658    0.386815
     12          6           0       -2.629644    2.182162    0.791554
     13          6           0       -1.265269    2.662117    1.287455
     14          1           0       -2.312885    0.099348    1.246524
     15          1           0       -1.873554    0.551078   -0.397875
     16          1           0       -3.382644    2.335287    1.575238
     17          1           0       -2.944333    2.787395   -0.068259
     18          1           0       -0.506603    2.538105    0.507937
     19          1           0       -0.947404    2.083428    2.160772
     20          1           0       -1.290308    3.718798    1.571459
     21          6           0        3.246012    1.886842   -1.044743
     22          6           0        4.229961    0.974981   -0.648667
     23          6           0        3.873545   -0.272632   -0.128115
     24          6           0        2.517660   -0.576845   -0.017104
     25          6           0        1.513976    0.310274   -0.403016
     26          6           0        1.893544    1.552168   -0.920871
     27          1           0        3.531878    2.853797   -1.448073
     28          1           0        5.281082    1.232190   -0.743721
     29          1           0        4.614680   -0.997439    0.186198
     30          1           0        0.474340    0.025386   -0.296171
     31          1           0        1.127237    2.258353   -1.227663
     32          7           0        2.128084   -1.894610    0.532554
     33          8           0        0.926647   -2.138571    0.620146
     34          8           0        3.031545   -2.658562    0.865376
 ---------------------------------------------------------------------

 SCF Done:  E(RHF) =  -669.534579264     A.U. after   15 cycles
 E2 =    -0.2093106017D+01 EUMP2 =    -0.67162768528114D+03

 The electronic state is 1-A.
 Alpha  occ. eigenvalues --  -20.60729 -20.60723 -15.85780 -11.31125 -11.27718
 Alpha  occ. eigenvalues --  -11.27661 -11.27462 -11.26727 -11.26706 -11.21991
 Alpha  occ. eigenvalues --  -11.21709 -11.21598 -11.21482 -11.21407 -11.20918
 Alpha  occ. eigenvalues --   -1.59803  -1.39356  -1.19313  -1.08712  -1.08621
 Alpha  occ. eigenvalues --   -1.04726  -1.03689  -0.96172  -0.95546  -0.87195
 Alpha  occ. eigenvalues --   -0.86114  -0.82393  -0.79778  -0.78421  -0.77404
 Alpha  occ. eigenvalues --   -0.72000  -0.71126  -0.70427  -0.65288  -0.64957
 Alpha  occ. eigenvalues --   -0.64751  -0.62144  -0.61033  -0.59540  -0.57763
 Alpha  occ. eigenvalues --   -0.55511  -0.55224  -0.53115  -0.52934  -0.52802
 Alpha  occ. eigenvalues --   -0.52442  -0.50106  -0.48761  -0.48753  -0.48059
 Alpha  occ. eigenvalues --   -0.46802  -0.45934  -0.45813  -0.44765  -0.43949
 Alpha  occ. eigenvalues --   -0.37297  -0.36284
 Alpha virt. eigenvalues --    0.05087   0.11302   0.16468   0.19832   0.23072
 Alpha virt. eigenvalues --    0.24098   0.25442   0.26657   0.27077   0.28311
 Alpha virt. eigenvalues --    0.29479   0.30254   0.31484   0.31820   0.32202

 Mulliken charges:
               1
     1  C   -0.297848
     2  C   -0.300372
     3  C   -0.476210
     4  H    0.151158
     5  H    0.147612
     6  H    0.159380
     7  H    0.152723
     8  H    0.153199
     9  H    0.154819
    10  H    0.162615
    11  C   -0.303062
    12  C   -0.300013
    13  C   -0.479422
    14  H    0.160669
    15  H    0.139957
    16  H    0.155760
    17  H    0.150007
    18  H    0.145432
    19  H    0.161860
    20  H    0.161553
    21  C   -0.171196
    22  C   -0.219321
    23  C   -0.169931
    24  C    0.157258
    25  C   -0.177094
    26  C   -0.222580
    27  H    0.225572
    28  H    0.223279
    29  H    0.275436
    30  H    0.289087
    31  H    0.223532
    32  N    0.487151
    33  O   -0.460279
    34  O   -0.460730
 Sum of Mulliken charges =  -0.00000

 Dipole moment (field-independent basis, Debye):
    X=              1.2584    Y=              4.5373    Z=             -1.8171  Tot=              5.0470
 Quadrupole moment (field-independent basis, Debye-Ang):
   XX=            -83.6242   YY=           -100.7329   ZZ=            -94.5689
   XY=              9.6079   XZ=             -5.2705   YZ=              0.4845

 Normal termination of Gaussian 16 at Wed May  5 15:48:26 2021.
