 Gaussian 16, Revision A.03,
 Gaussian 16:  EM64L-G16RevA.03 25-Dec-2016

 -------------
 #p 6-31g* mp2
 -------------

 ------------------------------------------------------
 Input file generated by CHIRIPA (05-May-2021 14:53:12)
 ------------------------------------------------------
 Symbolic Z-matrix:
 Charge =  0 Multiplicity = 1

                         Standard orientation:
 ---------------------------------------------------------------------
 Center     Atomic      Atomic             Coordinates (Angstroms)
 Number     Number       Type             X           Y           Z
 ---------------------------------------------------------------------
      1          6           0        4.567651   -0.146991    0.253232
      2          6           0        5.730910   -0.014390   -0.730247
      3          6           0        7.012042    0.490725   -0.065903
      4          1           0        4.379209    0.828515    0.722085
      5          1           0        4.856893   -0.831972    1.062266
      6          1           0        5.439059    0.669059   -1.537920
      7          1           0        5.916479   -0.990282   -1.196954
      8          1           0        7.330166   -0.193419    0.727409
      9          1           0        6.850033    1.475349    0.384506
     10          1           0        7.830689    0.578081   -0.787045
     11          6           0        3.279896   -0.650904   -0.395988
     12          6           0        2.116638   -0.783504    0.587491
     13          6           0        0.835505   -1.288619   -0.076853
     14          1           0        2.990654    0.034077   -1.205022
     15          1           0        3.468338   -1.626410   -0.864841
     16          1           0        1.931068    0.192387    1.054198
     17          1           0        2.408488   -1.466954    1.395164
     18          1           0        0.997514   -2.273244   -0.527262
     19          1           0        0.517381   -0.604475   -0.870165
     20          1           0        0.016858   -1.375975    0.644289
     21          6           0       -1.832196    2.492010    0.357695
     22          6           0       -2.760739    2.350715   -0.678819
     23          6           0       -3.449877    1.147220   -0.855557
     24          6           0       -3.184674    0.100891    0.026574
     25          6           0       -2.265473    0.210803    1.068820
     26          6           0       -1.587957    1.423487    1.226676
     27          1           0       -1.301372    3.430483    0.487654
     28          1           0       -2.952441    3.178855   -1.355193
     29          1           0       -4.173956    1.010600   -1.649573
     30          1           0       -2.095680   -0.632530    1.727135
     31          1           0       -0.867386    1.530365    2.032529
     32          7           0       -3.908082   -1.178060   -0.150534
     33          8           0       -3.656451   -2.084845    0.640073
     34          8           0       -4.713021   -1.249498   -1.076604
 ---------------------------------------------------------------------

 SCF Done:  E(RHF) =  -669.534368447     A.U. after   15 cycles
 E2 =    -0.2092626609D+01 EUMP2 =    -0.67162699505581D+03

 The electronic state is 1-A.
 Alpha  occ. eigenvalues --  -20.60758 -20.60752 -15.85812 -11.31175 -11.27772
 Alpha  occ. eigenvalues --  -11.27764 -11.27518 -11.26772 -11.26762 -11.21951
 Alpha  occ. eigenvalues --  -11.21853 -11.21696 -11.21636 -11.21308 -11.21190
 Alpha  occ. eigenvalues --   -1.59831  -1.39386  -1.19370  -1.08758  -1.08714
 Alpha  occ. eigenvalues --   -1.04789  -1.03787  -0.96228  -0.95591  -0.87243
 Alpha  occ. eigenvalues --   -0.86174  -0.82428  -0.79861  -0.78534  -0.77474
 Alpha  occ. eigenvalues --   -0.72032  -0.71153  -0.70500  -0.65349  -0.65024
 Alpha  occ. eigenvalues --   -0.64788  -0.62177  -0.61188  -0.59609  -0.57854
 Alpha  occ. eigenvalues --   -0.55524  -0.55283  -0.53382  -0.52909  -0.52693
 Alpha  occ. eigenvalues --   -0.52514  -0.50132  -0.48790  -0.48786  -0.48173
 Alpha  occ. eigenvalues --   -0.46895  -0.46071  -0.46000  -0.44795  -0.44053
 Alpha  occ. eigenvalues --   -0.37345  -0.36292
 Alpha virt. eigenvalues --    0.05054   0.11197   0.16490   0.20696   0.22703
 Alpha virt. eigenvalues --    0.24055   0.26038   0.26534   0.27052   0.28005
 Alpha virt. eigenvalues --    0.28569   0.29797   0.31262   0.31530   0.32006

 Mulliken charges:
               1
     1  C   -0.298020
     2  C   -0.299796
     3  C   -0.475740
     4  H    0.146885
     5  H    0.150357
     6  H    0.151517
     7  H    0.153385
     8  H    0.155805
     9  H    0.154163
    10  H    0.161056
    11  C   -0.298376
    12  C   -0.300111
    13  C   -0.474442
    14  H    0.149072
    15  H    0.152405
    16  H    0.143147
    17  H    0.152943
    18  H    0.159128
    19  H    0.156356
    20  H    0.157521
    21  C   -0.171467
    22  C   -0.218895
    23  C   -0.171219
    24  C    0.159013
    25  C   -0.168876
    26  C   -0.216449
    27  H    0.225452
    28  H    0.223301
    29  H    0.275662
    30  H    0.275152
    31  H    0.223953
    32  N    0.488460
    33  O   -0.460905
    34  O   -0.460438
 Sum of Mulliken charges =  -0.00000

 Dipole moment (field-independent basis, Debye):
    X=              2.5565    Y=              4.4608    Z=              0.5707  Tot=              5.1730
 Quadrupole moment (field-independent basis, Debye-Ang):
   XX=           -111.3347   YY=            -92.7950   ZZ=            -92.0814
   XY=            -16.0199   XZ=             -0.0898   YZ=             -1.8493

 Normal termination of Gaussian 16 at Thu May  6 10:24:00 2021.
