 Gaussian 16, Revision A.03,
 Gaussian 16:  EM64L-G16RevA.03 25-Dec-2016

 -------------
 #p 6-31g* mp2
 -------------

 ------------------------------------------------------
 Input file generated by CHIRIPA (05-May-2021 14:55:22)
 ------------------------------------------------------
 Symbolic Z-matrix:
 Charge =  0 Multiplicity = 1

                         Standard orientation:
 ---------------------------------------------------------------------
 Center     Atomic      Atomic             Coordinates (Angstroms)
 Number     Number       Type             X           Y           Z
 ---------------------------------------------------------------------
      1          6           0       -2.498794   -2.276654    0.036012
      2          6           0       -2.161300   -1.519845    1.162892
      3          6           0       -2.382238   -0.139513    1.183346
      4          6           0       -2.944919    0.454082    0.054486
      5          6           0       -3.291874   -0.272787   -1.083307
      6          6           0       -3.062010   -1.651811   -1.081521
      7          1           0       -2.323697   -3.348421    0.028761
      8          1           0       -1.723757   -2.002428    2.032210
      9          1           0       -2.130404    0.470347    2.042455
     10          1           0       -3.726543    0.236491   -1.934845
     11          1           0       -3.325102   -2.237047   -1.958063
     12          7           0       -3.183541    1.914686    0.064368
     13          8           0       -3.680526    2.413823   -0.942858
     14          8           0       -2.869069    2.532713    1.079152
     15          6           0        3.095088   -0.570645   -0.392366
     16          6           0        2.390554   -1.606409    0.484451
     17          6           0        1.143861   -2.192587   -0.178834
     18          1           0        2.390781    0.237854   -0.631587
     19          1           0        3.371960   -1.036945   -1.348034
     20          1           0        2.116325   -1.138671    1.438723
     21          1           0        3.096676   -2.412441    0.721771
     22          1           0        1.404238   -2.684309   -1.121709
     23          1           0        0.418317   -1.403302   -0.400683
     24          1           0        0.655859   -2.930717    0.465276
     25          6           0        4.343226    0.024450    0.257050
     26          6           0        5.047761    1.060215   -0.619767
     27          6           0        6.294453    1.646392    0.043518
     28          1           0        4.066354    0.490751    1.212717
     29          1           0        5.047533   -0.784049    0.496271
     30          1           0        4.341638    1.866246   -0.857087
     31          1           0        5.321989    0.592476   -1.574039
     32          1           0        7.019997    0.857106    0.265367
     33          1           0        6.034076    2.138114    0.986393
     34          1           0        6.782455    2.384522   -0.600592
 ---------------------------------------------------------------------

 SCF Done:  E(RHF) =  -669.534381586     A.U. after   15 cycles
 E2 =    -0.2092547439D+01 EUMP2 =    -0.67162692902469D+03

 The electronic state is 1-A.
 Alpha  occ. eigenvalues --  -20.60786 -20.60780 -15.85840 -11.31204 -11.27770
 Alpha  occ. eigenvalues --  -11.27751 -11.27471 -11.26771 -11.26742 -11.21962
 Alpha  occ. eigenvalues --  -11.21668 -11.21608 -11.21509 -11.21478 -11.21106
 Alpha  occ. eigenvalues --   -1.59862  -1.39415  -1.19377  -1.08775  -1.08625
 Alpha  occ. eigenvalues --   -1.04777  -1.03750  -0.96214  -0.95595  -0.87238
 Alpha  occ. eigenvalues --   -0.86163  -0.82431  -0.79825  -0.78429  -0.77483
 Alpha  occ. eigenvalues --   -0.72057  -0.71188  -0.70471  -0.65262  -0.65021
 Alpha  occ. eigenvalues --   -0.64777  -0.62125  -0.61157  -0.59605  -0.57815
 Alpha  occ. eigenvalues --   -0.55568  -0.55262  -0.53361  -0.52883  -0.52756
 Alpha  occ. eigenvalues --   -0.52522  -0.50076  -0.48816  -0.48812  -0.48131
 Alpha  occ. eigenvalues --   -0.46833  -0.45973  -0.45885  -0.44822  -0.44023
 Alpha  occ. eigenvalues --   -0.37263  -0.36355
 Alpha virt. eigenvalues --    0.05030   0.11244   0.16490   0.20787   0.22769
 Alpha virt. eigenvalues --    0.24150   0.26442   0.26599   0.27313   0.27775
 Alpha virt. eigenvalues --    0.28479   0.30805   0.31152   0.31449   0.31907

 Mulliken charges:
               1
     1  C   -0.166707
     2  C   -0.215060
     3  C   -0.173338
     4  C    0.158051
     5  C   -0.171472
     6  C   -0.219192
     7  H    0.225931
     8  H    0.223406
     9  H    0.275337
    10  H    0.275655
    11  H    0.223675
    12  N    0.488092
    13  O   -0.460382
    14  O   -0.460611
    15  C   -0.299032
    16  C   -0.299593
    17  C   -0.476396
    18  H    0.152452
    19  H    0.149502
    20  H    0.149738
    21  H    0.151436
    22  H    0.153642
    23  H    0.165545
    24  H    0.147193
    25  C   -0.298474
    26  C   -0.300183
    27  C   -0.475903
    28  H    0.150193
    29  H    0.149052
    30  H    0.154172
    31  H    0.151617
    32  H    0.154545
    33  H    0.155947
    34  H    0.161160
 Sum of Mulliken charges =  -0.00000

 Dipole moment (field-independent basis, Debye):
    X=              0.8434    Y=             -5.1031    Z=             -0.0752  Tot=              5.1728
 Quadrupole moment (field-independent basis, Debye-Ang):
   XX=           -100.2249   YY=           -100.0191   ZZ=            -90.5658
   XY=             15.2254   XZ=              1.5744   YZ=              0.1838

 Normal termination of Gaussian 16 at Thu May  6 17:32:52 2021.
