 Gaussian 16, Revision A.03,
 Gaussian 16:  EM64L-G16RevA.03 25-Dec-2016

 -------------
 #p 6-31g* mp2
 -------------

 ------------------------------------------------------
 Input file generated by CHIRIPA (05-May-2021 14:53:17)
 ------------------------------------------------------
 Symbolic Z-matrix:
 Charge =  0 Multiplicity = 1

                         Standard orientation:
 ---------------------------------------------------------------------
 Center     Atomic      Atomic             Coordinates (Angstroms)
 Number     Number       Type             X           Y           Z
 ---------------------------------------------------------------------
      1          6           0       -3.071946    0.561983   -0.754466
      2          6           0       -2.510864    1.917975   -0.324982
      3          6           0       -1.385164    2.407502   -1.236551
      4          1           0       -2.259265   -0.177192   -0.765233
      5          1           0       -3.440854    0.635987   -1.786854
      6          1           0       -2.144384    1.841804    0.706767
      7          1           0       -3.325012    2.653965   -0.315051
      8          1           0       -1.741314    2.511730   -2.266549
      9          1           0       -0.553977    1.694955   -1.238925
     10          1           0       -0.998732    3.378454   -0.911311
     11          6           0       -4.198072    0.059266    0.147112
     12          6           0       -4.759154   -1.296727   -0.282372
     13          6           0       -5.884853   -1.786253    0.629198
     14          1           0       -3.829163   -0.014738    1.179500
     15          1           0       -5.010752    0.798441    0.157879
     16          1           0       -3.945006   -2.032716   -0.292303
     17          1           0       -5.125634   -1.220556   -1.314121
     18          1           0       -6.716040   -1.073706    0.631571
     19          1           0       -5.528704   -1.890481    1.659195
     20          1           0       -6.271285   -2.757206    0.303957
     21          6           0        5.095689   -0.734915   -0.780012
     22          6           0        4.993614    0.140300    0.306312
     23          6           0        3.748877    0.420362    0.877929
     24          6           0        2.621764   -0.195087    0.335592
     25          6           0        2.690933   -1.071574   -0.746201
     26          6           0        3.946050   -1.336997   -1.301882
     27          1           0        6.066661   -0.946787   -1.217868
     28          1           0        5.884747    0.609326    0.713673
     29          1           0        3.641150    1.093964    1.719400
     30          1           0        1.784773   -1.523937   -1.130464
     31          1           0        4.022314   -2.017114   -2.145486
     32          7           0        1.298523    0.093653    0.932302
     33          8           0        0.320593   -0.461378    0.436085
     34          8           0        1.264352    0.869531    1.884921
 ---------------------------------------------------------------------

 SCF Done:  E(RHF) =  -669.536544703     A.U. after   15 cycles
 E2 =    -0.2092256439D+01 EUMP2 =    -0.67162880114192D+03

 The electronic state is 1-A.
 Alpha  occ. eigenvalues --  -20.61126 -20.61117 -15.86127 -11.31378 -11.27932
 Alpha  occ. eigenvalues --  -11.27927 -11.27657 -11.26923 -11.26913 -11.20606
 Alpha  occ. eigenvalues --  -11.20251 -11.20128 -11.20087 -11.19830 -11.19805
 Alpha  occ. eigenvalues --   -1.60166  -1.39728  -1.19538  -1.08958  -1.07118
 Alpha  occ. eigenvalues --   -1.04924  -1.02318  -0.95812  -0.94800  -0.86328
 Alpha  occ. eigenvalues --   -0.85830  -0.82653  -0.78418  -0.77717  -0.76906
 Alpha  occ. eigenvalues --   -0.72367  -0.71481  -0.70649  -0.65201  -0.64929
 Alpha  occ. eigenvalues --   -0.63703  -0.62272  -0.59691  -0.58188  -0.56416
 Alpha  occ. eigenvalues --   -0.55432  -0.54081  -0.53254  -0.53015  -0.51556
 Alpha  occ. eigenvalues --   -0.51245  -0.49143  -0.49111  -0.48716  -0.46756
 Alpha  occ. eigenvalues --   -0.45516  -0.45122  -0.44445  -0.44196  -0.42551
 Alpha  occ. eigenvalues --   -0.37512  -0.36520
 Alpha virt. eigenvalues --    0.04784   0.11131   0.16256   0.21230   0.24197
 Alpha virt. eigenvalues --    0.25484   0.27168   0.27659   0.28372   0.28879
 Alpha virt. eigenvalues --    0.29018   0.30828   0.32099   0.32728   0.32870

 Mulliken charges:
               1
     1  C   -0.303760
     2  C   -0.296817
     3  C   -0.477530
     4  H    0.169558
     5  H    0.139391
     6  H    0.165849
     7  H    0.143407
     8  H    0.147077
     9  H    0.157615
    10  H    0.155222
    11  C   -0.298061
    12  C   -0.298976
    13  C   -0.475037
    14  H    0.154660
    15  H    0.144244
    16  H    0.152943
    17  H    0.147807
    18  H    0.153086
    19  H    0.155620
    20  H    0.156307
    21  C   -0.170307
    22  C   -0.218587
    23  C   -0.170258
    24  C    0.157479
    25  C   -0.170614
    26  C   -0.218476
    27  H    0.226371
    28  H    0.224154
    29  H    0.276063
    30  H    0.275732
    31  H    0.224242
    32  N    0.492577
    33  O   -0.463597
    34  O   -0.457383
 Sum of Mulliken charges =  -0.00000

 Dipole moment (field-independent basis, Debye):
    X=              5.0703    Y=             -1.1347    Z=             -1.9071  Tot=              5.5347
 Quadrupole moment (field-independent basis, Debye-Ang):
   XX=            -71.2636   YY=            -93.6727   ZZ=            -94.6144
   XY=             -2.7310   XZ=             -2.0177   YZ=              2.9105

 Normal termination of Gaussian 16 at Thu May  6 18:58:10 2021.
