 Gaussian 16, Revision A.03,
 Gaussian 16:  EM64L-G16RevA.03 25-Dec-2016

 -------------
 #p 6-31g* mp2
 -------------

 ------------------------------------------------------
 Input file generated by CHIRIPA (05-May-2021 14:53:18)
 ------------------------------------------------------
 Symbolic Z-matrix:
 Charge =  0 Multiplicity = 1

                         Standard orientation:
 ---------------------------------------------------------------------
 Center     Atomic      Atomic             Coordinates (Angstroms)
 Number     Number       Type             X           Y           Z
 ---------------------------------------------------------------------
      1          6           0        2.133778    0.589945   -0.636602
      2          6           0        2.663856    2.022246   -0.562329
      3          6           0        1.647107    3.054894   -1.049826
      4          1           0        1.848472    0.364625   -1.673316
      5          1           0        1.216433    0.514303   -0.036476
      6          1           0        3.580691    2.094822   -1.161296
      7          1           0        2.948112    2.244118    0.474294
      8          1           0        0.734574    3.011633   -0.446490
      9          1           0        1.370747    2.861489   -2.091373
     10          1           0        2.046726    4.071926   -0.988103
     11          6           0        3.138787   -0.453826   -0.152631
     12          6           0        2.608709   -1.886127   -0.226904
     13          6           0        3.625459   -2.918775    0.260592
     14          1           0        4.056132   -0.378185   -0.752757
     15          1           0        3.424093   -0.228506    0.884083
     16          1           0        2.324453   -2.107999   -1.263527
     17          1           0        1.691874   -1.958704    0.372063
     18          1           0        3.901818   -2.725371    1.302140
     19          1           0        4.537991   -2.875515   -0.342743
     20          1           0        3.225839   -3.935808    0.198870
     21          6           0       -0.835334    1.256394    2.083723
     22          6           0       -1.395370    1.918891    0.986463
     23          6           0       -2.075899    1.203445   -0.003267
     24          6           0       -2.177953   -0.179775    0.136652
     25          6           0       -1.630776   -0.868527    1.218090
     26          6           0       -0.954614   -0.132751    2.195837
     27          1           0       -0.308379    1.820066    2.847914
     28          1           0       -1.304287    2.997642    0.896783
     29          1           0       -2.518989    1.691012   -0.863133
     30          1           0       -1.737931   -1.944679    1.279987
     31          1           0       -0.520682   -0.649908    3.046893
     32          7           0       -2.896087   -0.947946   -0.904787
     33          8           0       -2.972184   -2.165891   -0.758300
     34          8           0       -3.369264   -0.317550   -1.847835
 ---------------------------------------------------------------------

 SCF Done:  E(RHF) =  -669.534400407     A.U. after   15 cycles
 E2 =    -0.2095305583D+01 EUMP2 =    -0.67162970598963D+03

 The electronic state is 1-A.
 Alpha  occ. eigenvalues --  -20.60858 -20.60853 -15.85914 -11.31345 -11.27933
 Alpha  occ. eigenvalues --  -11.27906 -11.27659 -11.26960 -11.26920 -11.21910
 Alpha  occ. eigenvalues --  -11.21726 -11.21552 -11.21440 -11.21402 -11.21220
 Alpha  occ. eigenvalues --   -1.59931  -1.39483  -1.19540  -1.08926  -1.08599
 Alpha  occ. eigenvalues --   -1.04952  -1.03758  -0.96210  -0.95732  -0.87242
 Alpha  occ. eigenvalues --   -0.86331  -0.82564  -0.79826  -0.78413  -0.77601
 Alpha  occ. eigenvalues --   -0.72131  -0.71252  -0.70620  -0.65304  -0.65179
 Alpha  occ. eigenvalues --   -0.64940  -0.62317  -0.61167  -0.59575  -0.57815
 Alpha  occ. eigenvalues --   -0.55564  -0.55394  -0.53392  -0.53071  -0.52891
 Alpha  occ. eigenvalues --   -0.52597  -0.50164  -0.48895  -0.48881  -0.48132
 Alpha  occ. eigenvalues --   -0.46860  -0.45941  -0.45749  -0.44874  -0.43982
 Alpha  occ. eigenvalues --   -0.37470  -0.36479
 Alpha virt. eigenvalues --    0.04910   0.11008   0.16289   0.20774   0.22894
 Alpha virt. eigenvalues --    0.23950   0.26268   0.26595   0.27158   0.28122
 Alpha virt. eigenvalues --    0.28485   0.30407   0.31355   0.31732   0.32118

 Mulliken charges:
               1
     1  C   -0.307534
     2  C   -0.297743
     3  C   -0.479809
     4  H    0.151435
     5  H    0.160349
     6  H    0.153562
     7  H    0.146333
     8  H    0.149975
     9  H    0.158482
    10  H    0.158649
    11  C   -0.297158
    12  C   -0.300148
    13  C   -0.475911
    14  H    0.150072
    15  H    0.144789
    16  H    0.156105
    17  H    0.148049
    18  H    0.152071
    19  H    0.156333
    20  H    0.161777
    21  C   -0.173148
    22  C   -0.217505
    23  C   -0.169432
    24  C    0.160182
    25  C   -0.170569
    26  C   -0.218590
    27  H    0.226861
    28  H    0.225635
    29  H    0.277024
    30  H    0.276710
    31  H    0.224643
    32  N    0.488166
    33  O   -0.459863
    34  O   -0.459793
 Sum of Mulliken charges =  -0.00000

 Dipole moment (field-independent basis, Debye):
    X=              2.3663    Y=              2.6396    Z=              3.6465  Tot=              5.0856
 Quadrupole moment (field-independent basis, Debye-Ang):
   XX=           -106.8731   YY=            -93.3343   ZZ=            -92.0732
   XY=             -6.9710   XZ=             -7.8975   YZ=             -2.2106

 Normal termination of Gaussian 16 at Thu May  6 01:15:03 2021.
