 Gaussian 16, Revision A.03,
 Gaussian 16:  EM64L-G16RevA.03 25-Dec-2016

 -------------
 #p 6-31g* mp2
 -------------

 ------------------------------------------------------
 Input file generated by CHIRIPA (05-May-2021 14:57:25)
 ------------------------------------------------------
 Symbolic Z-matrix:
 Charge =  0 Multiplicity = 1

                         Standard orientation:
 ---------------------------------------------------------------------
 Center     Atomic      Atomic             Coordinates (Angstroms)
 Number     Number       Type             X           Y           Z
 ---------------------------------------------------------------------
      1          6           0        1.640040   -1.557750   -0.235459
      2          6           0        2.835162   -1.889957   -0.881867
      3          6           0        3.939996   -1.035938   -0.814465
      4          6           0        3.814136    0.147548   -0.088648
      5          6           0        2.636979    0.506426    0.566177
      6          6           0        1.544930   -0.362725    0.485229
      7          1           0        0.786744   -2.227050   -0.293080
      8          1           0        2.911902   -2.817367   -1.442282
      9          1           0        4.877195   -1.268510   -1.305368
     10          1           0        2.590790    1.437880    1.117248
     11          1           0        0.618038   -0.102149    0.988236
     12          7           0        4.977007    1.059669   -0.010123
     13          8           0        4.840536    2.096442    0.635722
     14          8           0        6.002917    0.720546   -0.595906
     15          6           0       -5.026448    1.714152   -1.109200
     16          6           0       -4.729706    0.492180   -1.721779
     17          6           0       -3.952709   -0.463467   -1.060297
     18          6           0       -3.486751   -0.162668    0.218645
     19          6           0       -3.765323    1.045680    0.855500
     20          6           0       -4.544159    1.986521    0.175220
     21          1           0       -5.630752    2.450771   -1.630356
     22          1           0       -5.102911    0.277933   -2.719206
     23          1           0       -3.707911   -1.417534   -1.511129
     24          1           0       -3.379106    1.230569    1.850523
     25          1           0       -4.773034    2.934674    0.653410
     26          7           0       -2.663206   -1.166533    0.928877
     27          8           0       -2.264674   -0.877311    2.055002
     28          8           0       -2.431835   -2.223574    0.345981
 ---------------------------------------------------------------------

 SCF Done:  E(RHF) =  -868.340736782     A.U. after   16 cycles
 E2 =    -0.2598760679D+01 EUMP2 =    -0.87093949746054D+03

 The electronic state is 1-A.
 Alpha  occ. eigenvalues --  -20.62116 -20.62100 -20.60234 -20.60229 -15.87105
 Alpha  occ. eigenvalues --  -15.85282 -11.32095 -11.30465 -11.28619 -11.28612
 Alpha  occ. eigenvalues --  -11.28269 -11.27534 -11.27523 -11.27040 -11.27003
 Alpha  occ. eigenvalues --  -11.26542 -11.25968 -11.25850  -1.61170  -1.59314
 Alpha  occ. eigenvalues --   -1.40728  -1.38873  -1.20231  -1.18603  -1.09693
 Alpha  occ. eigenvalues --   -1.07996  -1.05571  -1.03984  -0.96586  -0.94869
 Alpha  occ. eigenvalues --   -0.86987  -0.85368  -0.83429  -0.81717  -0.78525
 Alpha  occ. eigenvalues --   -0.76823  -0.73318  -0.72484  -0.71501  -0.71323
 Alpha  occ. eigenvalues --   -0.70637  -0.69610  -0.65880  -0.65562  -0.64235
 Alpha  occ. eigenvalues --   -0.63950  -0.62922  -0.61339  -0.56074  -0.54356
 Alpha  occ. eigenvalues --   -0.53922  -0.53652  -0.52324  -0.52053  -0.50104
 Alpha  occ. eigenvalues --   -0.50049  -0.48270  -0.48243  -0.46183  -0.44320
 Alpha  occ. eigenvalues --   -0.38182  -0.37156  -0.36528  -0.35609
 Alpha virt. eigenvalues --    0.03927   0.05712   0.10500   0.12059   0.15477
 Alpha virt. eigenvalues --    0.17272   0.20679   0.22357   0.26638   0.27407
 Alpha virt. eigenvalues --    0.28085   0.29241   0.30448   0.31401   0.32377

 Mulliken charges:
               1
     1  C   -0.176443
     2  C   -0.219809
     3  C   -0.172218
     4  C    0.157485
     5  C   -0.172748
     6  C   -0.224279
     7  H    0.241522
     8  H    0.221576
     9  H    0.272713
    10  H    0.272514
    11  H    0.230938
    12  N    0.488254
    13  O   -0.462857
    14  O   -0.462657
    15  C   -0.169131
    16  C   -0.218202
    17  C   -0.170402
    18  C    0.156255
    19  C   -0.171511
    20  C   -0.218151
    21  H    0.229292
    22  H    0.226347
    23  H    0.275298
    24  H    0.276139
    25  H    0.226909
    26  N    0.486291
    27  O   -0.460009
    28  O   -0.463115
 Sum of Mulliken charges =  -0.00000

 Dipole moment (field-independent basis, Debye):
    X=             -7.5624    Y=              0.3377    Z=             -2.8028  Tot=              8.0722
 Quadrupole moment (field-independent basis, Debye-Ang):
   XX=           -115.5024   YY=           -103.6208   ZZ=           -101.9274
   XY=            -27.3298   XZ=              6.5661   YZ=              6.1896

 Normal termination of Gaussian 16 at Thu May  6 18:05:56 2021.
