 Gaussian 16, Revision A.03,
 Gaussian 16:  EM64L-G16RevA.03 25-Dec-2016

 -------------
 #p 6-31g* mp2
 -------------

 ------------------------------------------------------
 Input file generated by CHIRIPA (05-May-2021 14:53:17)
 ------------------------------------------------------
 Symbolic Z-matrix:
 Charge =  0 Multiplicity = 1

                         Standard orientation:
 ---------------------------------------------------------------------
 Center     Atomic      Atomic             Coordinates (Angstroms)
 Number     Number       Type             X           Y           Z
 ---------------------------------------------------------------------
      1          6           0        2.855653    0.807407   -0.288564
      2          6           0        3.368867    2.247704   -0.300371
      3          6           0        2.442892    3.199012   -1.058907
      4          1           0        2.737317    0.458556   -1.323573
      5          1           0        1.855006    0.785791    0.164904
      6          1           0        4.368825    2.266401   -0.752423
      7          1           0        3.486177    2.593102    0.734789
      8          1           0        1.446524    3.210011   -0.605329
      9          1           0        2.334187    2.881453   -2.100991
     10          1           0        2.828828    4.223169   -1.054837
     11          6           0        3.770580   -0.155561    0.465976
     12          6           0        3.257365   -1.595859    0.477783
     13          6           0        4.183341   -2.547167    1.236319
     14          1           0        4.771227   -0.133946    0.012508
     15          1           0        3.888915    0.193290    1.500986
     16          1           0        3.140056   -1.941256   -0.557376
     17          1           0        2.257408   -1.614555    0.929836
     18          1           0        4.292045   -2.229608    2.278404
     19          1           0        5.179708   -2.558165    0.782742
     20          1           0        3.797405   -3.571323    1.232249
     21          6           0       -4.294039    1.005729    1.297492
     22          6           0       -2.930208    1.154294    1.570279
     23          6           0       -1.976298    0.460887    0.819420
     24          6           0       -2.423474   -0.376474   -0.201439
     25          6           0       -3.775175   -0.545461   -0.497479
     26          6           0       -4.711434    0.157820    0.266302
     27          1           0       -5.028203    1.548220    1.885796
     28          1           0       -2.603157    1.812104    2.370510
     29          1           0       -0.914183    0.557398    1.009198
     30          1           0       -4.070675   -1.208442   -1.301565
     31          1           0       -5.769945    0.040504    0.052209
     32          7           0       -1.422955   -1.115780   -1.003179
     33          8           0       -1.842686   -1.847380   -1.897173
     34          8           0       -0.237964   -0.949649   -0.722408
 ---------------------------------------------------------------------

 SCF Done:  E(RHF) =  -669.535515812     A.U. after   15 cycles
 E2 =    -0.2092263291D+01 EUMP2 =    -0.67162777910287D+03

 The electronic state is 1-A.
 Alpha  occ. eigenvalues --  -20.60906 -20.60899 -15.85935 -11.31289 -11.27864
 Alpha  occ. eigenvalues --  -11.27848 -11.27591 -11.26867 -11.26856 -11.21000
 Alpha  occ. eigenvalues --  -11.20660 -11.20516 -11.20402 -11.20373 -11.20213
 Alpha  occ. eigenvalues --   -1.59970  -1.39525  -1.19458  -1.08857  -1.07555
 Alpha  occ. eigenvalues --   -1.04860  -1.02740  -0.95698  -0.95220  -0.86261
 Alpha  occ. eigenvalues --   -0.86244  -0.82536  -0.78775  -0.77689  -0.77186
 Alpha  occ. eigenvalues --   -0.72149  -0.71282  -0.70568  -0.65116  -0.64868
 Alpha  occ. eigenvalues --   -0.64205  -0.62210  -0.60158  -0.58590  -0.56797
 Alpha  occ. eigenvalues --   -0.55361  -0.54538  -0.53188  -0.52954  -0.51947
 Alpha  occ. eigenvalues --   -0.51637  -0.49211  -0.48930  -0.48920  -0.47105
 Alpha  occ. eigenvalues --   -0.45824  -0.44942  -0.44766  -0.44740  -0.42966
 Alpha  occ. eigenvalues --   -0.37435  -0.36461
 Alpha virt. eigenvalues --    0.04932   0.11185   0.16418   0.20489   0.23122
 Alpha virt. eigenvalues --    0.24892   0.25562   0.27541   0.27921   0.28574
 Alpha virt. eigenvalues --    0.29378   0.31310   0.31943   0.32455   0.32492

 Mulliken charges:
               1
     1  C   -0.298219
     2  C   -0.299886
     3  C   -0.473004
     4  H    0.158107
     5  H    0.154208
     6  H    0.150673
     7  H    0.146232
     8  H    0.148566
     9  H    0.158057
    10  H    0.156930
    11  C   -0.299535
    12  C   -0.297762
    13  C   -0.475996
    14  H    0.146073
    15  H    0.142283
    16  H    0.159988
    17  H    0.158690
    18  H    0.149717
    19  H    0.152124
    20  H    0.159578
    21  C   -0.170366
    22  C   -0.219761
    23  C   -0.171646
    24  C    0.156857
    25  C   -0.170379
    26  C   -0.218666
    27  H    0.226020
    28  H    0.224036
    29  H    0.278498
    30  H    0.275871
    31  H    0.223829
    32  N    0.492819
    33  O   -0.459622
    34  O   -0.464313
 Sum of Mulliken charges =  -0.00000

 Dipole moment (field-independent basis, Debye):
    X=             -3.7668    Y=              2.4598    Z=              2.6627  Tot=              5.2277
 Quadrupole moment (field-independent basis, Debye-Ang):
   XX=            -76.1333   YY=            -97.7641   ZZ=            -94.5940
   XY=             -3.2339   XZ=             -5.3268   YZ=              0.5463

 Normal termination of Gaussian 16 at Thu May  6 12:17:40 2021.
