 Gaussian 16, Revision A.03,
 Gaussian 16:  EM64L-G16RevA.03 25-Dec-2016

 -------------
 #p 6-31g* mp2
 -------------

 ------------------------------------------------------
 Input file generated by CHIRIPA (05-May-2021 14:57:27)
 ------------------------------------------------------
 Symbolic Z-matrix:
 Charge =  0 Multiplicity = 1

                         Standard orientation:
 ---------------------------------------------------------------------
 Center     Atomic      Atomic             Coordinates (Angstroms)
 Number     Number       Type             X           Y           Z
 ---------------------------------------------------------------------
      1          6           0       -5.022707    1.729219   -0.741422
      2          6           0       -5.183801    0.379057   -1.069496
      3          6           0       -4.313463   -0.585731   -0.553507
      4          6           0       -3.288321   -0.163253    0.291410
      5          6           0       -3.101852    1.174342    0.636895
      6          6           0       -3.984078    2.121860    0.109227
      7          1           0       -5.703424    2.471982   -1.146791
      8          1           0       -5.989520    0.071234   -1.729880
      9          1           0       -4.415264   -1.637692   -0.791064
     10          1           0       -2.289247    1.450710    1.297737
     11          1           0       -3.856568    3.169710    0.365735
     12          7           0       -2.360641   -1.175490    0.843847
     13          8           0       -1.465445   -0.777549    1.586077
     14          8           0       -2.546286   -2.347655    0.524156
     15          6           0        5.193607    1.760545    0.227326
     16          6           0        3.841190    2.114395    0.179576
     17          6           0        2.861632    1.145278   -0.056696
     18          6           0        3.271799   -0.174125   -0.241709
     19          6           0        4.611269   -0.558005   -0.199917
     20          6           0        5.573660    0.427824    0.037761
     21          1           0        5.947883    2.519871    0.411414
     22          1           0        3.543121    3.148625    0.326438
     23          1           0        1.807598    1.391570   -0.098764
     24          1           0        4.877688   -1.597183   -0.350073
     25          1           0        6.623227    0.150122    0.074309
     26          7           0        2.243872   -1.208932   -0.492585
     27          8           0        2.631156   -2.364398   -0.652409
     28          8           0        1.070360   -0.844953   -0.524646
 ---------------------------------------------------------------------

 SCF Done:  E(RHF) =  -868.336024340     A.U. after   16 cycles
 E2 =    -0.2600519251D+01 EUMP2 =    -0.87093654359133D+03

 The electronic state is 1-A.
 Alpha  occ. eigenvalues --  -20.59994 -20.59919 -20.59697 -20.59662 -15.85020
 Alpha  occ. eigenvalues --  -15.84750 -11.30657 -11.30489 -11.27275 -11.27254
 Alpha  occ. eigenvalues --  -11.27140 -11.27079 -11.27071 -11.26933 -11.26362
 Alpha  occ. eigenvalues --  -11.26334 -11.26246 -11.26195  -1.59015  -1.58715
 Alpha  occ. eigenvalues --   -1.38568  -1.38275  -1.18858  -1.18696  -1.08203
 Alpha  occ. eigenvalues --   -1.08020  -1.04309  -1.04169  -0.94996  -0.94796
 Alpha  occ. eigenvalues --   -0.85694  -0.85548  -0.81838  -0.81641  -0.76835
 Alpha  occ. eigenvalues --   -0.76618  -0.71306  -0.70977  -0.70355  -0.70009
 Alpha  occ. eigenvalues --   -0.69915  -0.69821  -0.64512  -0.64353  -0.64325
 Alpha  occ. eigenvalues --   -0.64189  -0.61659  -0.61522  -0.54809  -0.54666
 Alpha  occ. eigenvalues --   -0.52615  -0.52462  -0.52413  -0.52278  -0.48036
 Alpha  occ. eigenvalues --   -0.47979  -0.47731  -0.47701  -0.44048  -0.43428
 Alpha  occ. eigenvalues --   -0.36853  -0.36687  -0.35923  -0.35789
 Alpha virt. eigenvalues --    0.05670   0.06021   0.11730   0.11862   0.17120
 Alpha virt. eigenvalues --    0.17422   0.21714   0.21956   0.27509   0.27828
 Alpha virt. eigenvalues --    0.28526   0.28995   0.31080   0.31573   0.32673

 Mulliken charges:
               1
     1  C   -0.172157
     2  C   -0.218440
     3  C   -0.170420
     4  C    0.163271
     5  C   -0.170829
     6  C   -0.218741
     7  H    0.222519
     8  H    0.221555
     9  H    0.276319
    10  H    0.271420
    11  H    0.218913
    12  N    0.492736
    13  O   -0.457561
    14  O   -0.458287
    15  C   -0.171641
    16  C   -0.218475
    17  C   -0.169155
    18  C    0.160303
    19  C   -0.171006
    20  C   -0.218518
    21  H    0.223322
    22  H    0.219899
    23  H    0.273642
    24  H    0.275682
    25  H    0.221934
    26  N    0.489040
    27  O   -0.460930
    28  O   -0.454395
 Sum of Mulliken charges =  -0.00000

 Dipole moment (field-independent basis, Debye):
    X=              0.3793    Y=              6.9408    Z=             -1.0414  Tot=              7.0287
 Quadrupole moment (field-independent basis, Debye-Ang):
   XX=            -58.2041   YY=           -103.1901   ZZ=           -106.8696
   XY=             -0.4661   XZ=              8.8822   YZ=              2.5751

 Normal termination of Gaussian 16 at Wed May  5 22:52:14 2021.
