 Gaussian 16, Revision A.03,
 Gaussian 16:  EM64L-G16RevA.03 25-Dec-2016

 -------------
 #p 6-31g* mp2
 -------------

 ------------------------------------------------------
 Input file generated by CHIRIPA (05-May-2021 14:53:14)
 ------------------------------------------------------
 Symbolic Z-matrix:
 Charge =  0 Multiplicity = 1

                         Standard orientation:
 ---------------------------------------------------------------------
 Center     Atomic      Atomic             Coordinates (Angstroms)
 Number     Number       Type             X           Y           Z
 ---------------------------------------------------------------------
      1          6           0       -3.827623   -0.418766   -0.164605
      2          6           0       -5.167809   -1.128662    0.030159
      3          6           0       -5.138310   -2.585078   -0.434359
      4          1           0       -3.548487   -0.460911   -1.226327
      5          1           0       -3.048314   -0.964298    0.385365
      6          1           0       -5.944608   -0.581169   -0.518886
      7          1           0       -5.443879   -1.084655    1.091509
      8          1           0       -4.383852   -3.151422    0.121204
      9          1           0       -4.887426   -2.645075   -1.498341
     10          1           0       -6.106467   -3.073469   -0.286019
     11          6           0       -3.841287    1.038015    0.295103
     12          6           0       -2.501101    1.747911    0.100339
     13          6           0       -2.530600    3.204327    0.564856
     14          1           0       -4.620596    1.583547   -0.254868
     15          1           0       -4.120423    1.080160    1.356824
     16          1           0       -2.225031    1.703904   -0.961012
     17          1           0       -1.724302    1.200418    0.649383
     18          1           0       -2.781484    3.264325    1.628839
     19          1           0       -3.285058    3.770671    0.009294
     20          1           0       -1.562443    3.692718    0.416516
     21          6           0        5.514621   -0.165933    0.071620
     22          6           0        4.815889   -1.217555    0.673603
     23          6           0        3.420176   -1.269857    0.611977
     24          6           0        2.752145   -0.249238   -0.062828
     25          6           0        3.419926    0.811663   -0.672620
     26          6           0        4.815641    0.843541   -0.598390
     27          1           0        6.598845   -0.133237    0.124387
     28          1           0        5.356101   -2.002899    1.194613
     29          1           0        2.854199   -2.072390    1.069171
     30          1           0        2.853758    1.580056   -1.184913
     31          1           0        5.355660    1.661461   -1.066825
     32          7           0        1.274565   -0.293795   -0.134740
     33          8           0        0.709379    0.617593   -0.735216
     34          8           0        0.709602   -1.239266    0.410733
 ---------------------------------------------------------------------

 SCF Done:  E(RHF) =  -669.535918195     A.U. after   15 cycles
 E2 =    -0.2091608802D+01 EUMP2 =    -0.67162752699663D+03

 The electronic state is 1-A.
 Alpha  occ. eigenvalues --  -20.60997 -20.60992 -15.86018 -11.31333 -11.27893
 Alpha  occ. eigenvalues --  -11.27890 -11.27628 -11.26897 -11.26887 -11.20454
 Alpha  occ. eigenvalues --  -11.20072 -11.19920 -11.19845 -11.19750 -11.19653
 Alpha  occ. eigenvalues --   -1.60053  -1.39608  -1.19499  -1.08905  -1.06972
 Alpha  occ. eigenvalues --   -1.04893  -1.02150  -0.95748  -0.94667  -0.86294
 Alpha  occ. eigenvalues --   -0.85691  -0.82583  -0.78192  -0.77637  -0.76706
 Alpha  occ. eigenvalues --   -0.72224  -0.71367  -0.70607  -0.65153  -0.64895
 Alpha  occ. eigenvalues --   -0.63619  -0.62240  -0.59564  -0.58033  -0.56240
 Alpha  occ. eigenvalues --   -0.55396  -0.53983  -0.53225  -0.52984  -0.51406
 Alpha  occ. eigenvalues --   -0.51081  -0.49080  -0.48995  -0.48626  -0.46457
 Alpha  occ. eigenvalues --   -0.45252  -0.44996  -0.44247  -0.44087  -0.42392
 Alpha  occ. eigenvalues --   -0.37476  -0.36493
 Alpha virt. eigenvalues --    0.04874   0.11162   0.16375   0.21300   0.24222
 Alpha virt. eigenvalues --    0.25563   0.27219   0.28073   0.28157   0.29014
 Alpha virt. eigenvalues --    0.29287   0.30882   0.32381   0.32644   0.33107

 Mulliken charges:
               1
     1  C   -0.298775
     2  C   -0.298623
     3  C   -0.474691
     4  H    0.149697
     5  H    0.161200
     6  H    0.147834
     7  H    0.148641
     8  H    0.156374
     9  H    0.153987
    10  H    0.155353
    11  C   -0.299025
    12  C   -0.295762
    13  C   -0.476154
    14  H    0.142358
    15  H    0.143578
    16  H    0.156959
    17  H    0.166943
    18  H    0.149025
    19  H    0.148808
    20  H    0.157164
    21  C   -0.170525
    22  C   -0.218580
    23  C   -0.170694
    24  C    0.158494
    25  C   -0.170808
    26  C   -0.218548
    27  H    0.226137
    28  H    0.223934
    29  H    0.275817
    30  H    0.275826
    31  H    0.223971
    32  N    0.488463
    33  O   -0.457860
    34  O   -0.460521
 Sum of Mulliken charges =  -0.00000

 Dipole moment (field-independent basis, Debye):
    X=              5.6565    Y=              0.0349    Z=              0.1953  Tot=              5.6600
 Quadrupole moment (field-independent basis, Debye-Ang):
   XX=            -68.4582   YY=            -93.3511   ZZ=            -93.3692
   XY=             -0.7747   XZ=              0.7649   YZ=             -3.5616

 Normal termination of Gaussian 16 at Thu May  6 18:48:24 2021.
