 Gaussian 16, Revision A.03,
 Gaussian 16:  EM64L-G16RevA.03 25-Dec-2016

 -------------
 #p 6-31g* mp2
 -------------

 ------------------------------------------------------
 Input file generated by CHIRIPA (05-May-2021 14:55:22)
 ------------------------------------------------------
 Symbolic Z-matrix:
 Charge =  0 Multiplicity = 1

                         Standard orientation:
 ---------------------------------------------------------------------
 Center     Atomic      Atomic             Coordinates (Angstroms)
 Number     Number       Type             X           Y           Z
 ---------------------------------------------------------------------
      1          6           0       -0.672932   -2.132627    0.811774
      2          6           0       -1.120884   -2.075417   -0.512078
      3          6           0       -2.036197   -1.096533   -0.910245
      4          6           0       -2.484773   -0.186630    0.045865
      5          6           0       -2.057222   -0.217727    1.372336
      6          6           0       -1.141704   -1.205234    1.748106
      7          1           0        0.038185   -2.896397    1.112381
      8          1           0       -0.758538   -2.794340   -1.241393
      9          1           0       -2.399536   -1.029387   -1.928525
     10          1           0       -2.436430    0.512656    2.076723
     11          1           0       -0.795553   -1.247268    2.776919
     12          7           0       -3.453882    0.854235   -0.363800
     13          8           0       -3.833879    1.644274    0.497639
     14          8           0       -3.815123    0.860319   -1.538579
     15          6           0        3.257240    1.142193    0.046942
     16          6           0        2.270706    2.288524   -0.178137
     17          6           0        2.847734    3.649990    0.210761
     18          1           0        3.556662    1.126768    1.103850
     19          1           0        4.170131    1.333985   -0.533782
     20          1           0        1.359398    2.093940    0.401753
     21          1           0        1.973450    2.301104   -1.234591
     22          1           0        3.745116    3.870042   -0.376507
     23          1           0        3.127575    3.661702    1.269134
     24          1           0        2.125836    4.455081    0.041788
     25          6           0        2.694894   -0.225259   -0.337204
     26          6           0        3.681427   -1.371590   -0.112124
     27          6           0        3.104399   -2.733056   -0.501023
     28          1           0        1.782002   -0.417051    0.243521
     29          1           0        2.395471   -0.209834   -1.394111
     30          1           0        3.978683   -1.384169    0.944331
     31          1           0        4.592736   -1.177006   -0.692014
     32          1           0        2.824558   -2.744768   -1.559395
     33          1           0        2.207018   -2.953108    0.086247
     34          1           0        3.826297   -3.538147   -0.332049
 ---------------------------------------------------------------------

 SCF Done:  E(RHF) =  -669.534983893     A.U. after   15 cycles
 E2 =    -0.2093272261D+01 EUMP2 =    -0.67162825615448D+03

 The electronic state is 1-A.
 Alpha  occ. eigenvalues --  -20.60800 -20.60794 -15.85854 -11.31243 -11.27826
 Alpha  occ. eigenvalues --  -11.27797 -11.27551 -11.26851 -11.26808 -11.22218
 Alpha  occ. eigenvalues --  -11.22006 -11.21745 -11.21719 -11.21634 -11.21145
 Alpha  occ. eigenvalues --   -1.59875  -1.39428  -1.19422  -1.08862  -1.08762
 Alpha  occ. eigenvalues --   -1.04822  -1.03950  -0.96413  -0.95648  -0.87439
 Alpha  occ. eigenvalues --   -0.86219  -0.82477  -0.80021  -0.78575  -0.77511
 Alpha  occ. eigenvalues --   -0.72073  -0.71197  -0.70566  -0.65452  -0.65074
 Alpha  occ. eigenvalues --   -0.64822  -0.62166  -0.61367  -0.59794  -0.58005
 Alpha  occ. eigenvalues --   -0.55860  -0.55226  -0.53233  -0.53072  -0.52918
 Alpha  occ. eigenvalues --   -0.52818  -0.50376  -0.48832  -0.48826  -0.48327
 Alpha  occ. eigenvalues --   -0.47047  -0.46119  -0.46016  -0.44829  -0.44163
 Alpha  occ. eigenvalues --   -0.37320  -0.36420
 Alpha virt. eigenvalues --    0.04985   0.11180   0.16370   0.20161   0.22776
 Alpha virt. eigenvalues --    0.24079   0.25836   0.26289   0.27239   0.27492
 Alpha virt. eigenvalues --    0.28847   0.30185   0.31226   0.31703   0.32444

 Mulliken charges:
               1
     1  C   -0.171900
     2  C   -0.216307
     3  C   -0.170809
     4  C    0.159129
     5  C   -0.171171
     6  C   -0.220043
     7  H    0.228553
     8  H    0.225107
     9  H    0.275853
    10  H    0.275842
    11  H    0.223830
    12  N    0.488081
    13  O   -0.460372
    14  O   -0.460191
    15  C   -0.298234
    16  C   -0.299907
    17  C   -0.476145
    18  H    0.147911
    19  H    0.149930
    20  H    0.152515
    21  H    0.153652
    22  H    0.155139
    23  H    0.154042
    24  H    0.163512
    25  C   -0.304153
    26  C   -0.299502
    27  C   -0.476354
    28  H    0.154936
    29  H    0.149379
    30  H    0.151032
    31  H    0.154930
    32  H    0.155933
    33  H    0.142794
    34  H    0.162990
 Sum of Mulliken charges =  -0.00000

 Dipole moment (field-independent basis, Debye):
    X=              3.3850    Y=             -3.6021    Z=              1.3998  Tot=              5.1374
 Quadrupole moment (field-independent basis, Debye-Ang):
   XX=           -112.5168   YY=            -94.4656   ZZ=            -89.4631
   XY=              8.3841   XZ=             -3.9925   YZ=              1.1275

 Normal termination of Gaussian 16 at Thu May  6 14:15:33 2021.
