 Gaussian 16, Revision A.03,
 Gaussian 16:  EM64L-G16RevA.03 25-Dec-2016

 -------------
 #p 6-31g* mp2
 -------------

 ------------------------------------------------------
 Input file generated by CHIRIPA (05-May-2021 14:53:15)
 ------------------------------------------------------
 Symbolic Z-matrix:
 Charge =  0 Multiplicity = 1

                         Standard orientation:
 ---------------------------------------------------------------------
 Center     Atomic      Atomic             Coordinates (Angstroms)
 Number     Number       Type             X           Y           Z
 ---------------------------------------------------------------------
      1          6           0        3.502859    1.036894   -0.471398
      2          6           0        2.091962    1.589387   -0.266196
      3          6           0        1.770990    2.753909   -1.203564
      4          1           0        4.231848    1.844397   -0.318238
      5          1           0        3.612996    0.710097   -1.514694
      6          1           0        1.984071    1.913769    0.776758
      7          1           0        1.366257    0.780430   -0.419673
      8          1           0        1.850952    2.439968   -2.249340
      9          1           0        2.472277    3.579746   -1.046111
     10          1           0        0.757596    3.133496   -1.039836
     11          6           0        3.838582   -0.127743    0.458462
     12          6           0        5.249478   -0.680236    0.253260
     13          6           0        5.570450   -1.844758    1.190629
     14          1           0        3.728444    0.199055    1.501759
     15          1           0        3.109592   -0.935246    0.305303
     16          1           0        5.975184    0.128721    0.406738
     17          1           0        5.357369   -1.004618   -0.789693
     18          1           0        4.869163   -2.670595    1.033176
     19          1           0        5.490488   -1.530816    2.236405
     20          1           0        6.583844   -2.224344    1.026901
     21          6           0       -3.878764    1.726924    1.009440
     22          6           0       -4.605342    0.531744    0.997199
     23          6           0       -4.055133   -0.628015    0.443322
     24          6           0       -2.770009   -0.556423   -0.092048
     25          6           0       -2.021030    0.619295   -0.094786
     26          6           0       -2.591198    1.766815    0.464370
     27          1           0       -4.313931    2.623099    1.441756
     28          1           0       -5.605495    0.497818    1.419795
     29          1           0       -4.595503   -1.566581    0.420667
     30          1           0       -1.026259    0.622076   -0.523554
     31          1           0       -2.024609    2.693614    0.472495
     32          7           0       -2.176963   -1.777730   -0.681206
     33          8           0       -1.042884   -1.688453   -1.146535
     34          8           0       -2.857443   -2.801140   -0.666504
 ---------------------------------------------------------------------

 SCF Done:  E(RHF) =  -669.535778232     A.U. after   15 cycles
 E2 =    -0.2091523701D+01 EUMP2 =    -0.67162730193278D+03

 The electronic state is 1-A.
 Alpha  occ. eigenvalues --  -20.60798 -20.60791 -15.85845 -11.31167 -11.27745
 Alpha  occ. eigenvalues --  -11.27708 -11.27487 -11.26756 -11.26740 -11.21897
 Alpha  occ. eigenvalues --  -11.21546 -11.21409 -11.21397 -11.21186 -11.20823
 Alpha  occ. eigenvalues --   -1.59868  -1.39424  -1.19344  -1.08749  -1.08421
 Alpha  occ. eigenvalues --   -1.04743  -1.03589  -0.96030  -0.95588  -0.87044
 Alpha  occ. eigenvalues --   -0.86146  -0.82422  -0.79677  -0.78200  -0.77467
 Alpha  occ. eigenvalues --   -0.72067  -0.71187  -0.70464  -0.65070  -0.64999
 Alpha  occ. eigenvalues --   -0.64727  -0.62143  -0.60946  -0.59438  -0.57638
 Alpha  occ. eigenvalues --   -0.55313  -0.55221  -0.53075  -0.52850  -0.52767
 Alpha  occ. eigenvalues --   -0.52452  -0.49943  -0.48825  -0.48819  -0.47976
 Alpha  occ. eigenvalues --   -0.46672  -0.45741  -0.45617  -0.44834  -0.43818
 Alpha  occ. eigenvalues --   -0.37329  -0.36340
 Alpha virt. eigenvalues --    0.05052   0.11297   0.16554   0.19491   0.23093
 Alpha virt. eigenvalues --    0.23870   0.26024   0.26200   0.27221   0.28171
 Alpha virt. eigenvalues --    0.29207   0.29734   0.31439   0.31677   0.32577

 Mulliken charges:
               1
     1  C   -0.296781
     2  C   -0.310989
     3  C   -0.476129
     4  H    0.148715
     5  H    0.153476
     6  H    0.150021
     7  H    0.159908
     8  H    0.161219
     9  H    0.157966
    10  H    0.148268
    11  C   -0.301122
    12  C   -0.299874
    13  C   -0.476250
    14  H    0.147333
    15  H    0.158844
    16  H    0.150068
    17  H    0.153680
    18  H    0.158652
    19  H    0.153874
    20  H    0.159801
    21  C   -0.170449
    22  C   -0.219033
    23  C   -0.170020
    24  C    0.157165
    25  C   -0.177709
    26  C   -0.223302
    27  H    0.225601
    28  H    0.223358
    29  H    0.275477
    30  H    0.289061
    31  H    0.224571
    32  N    0.487441
    33  O   -0.462863
    34  O   -0.459978
 Sum of Mulliken charges =  -0.00000

 Dipole moment (field-independent basis, Debye):
    X=             -1.9935    Y=              4.2034    Z=              2.0379  Tot=              5.0789
 Quadrupole moment (field-independent basis, Debye-Ang):
   XX=            -79.6382   YY=            -99.2135   ZZ=            -95.5814
   XY=             -8.0393   XZ=             -6.9892   YZ=             -1.1931

 Normal termination of Gaussian 16 at Wed May  5 23:31:32 2021.
