 Gaussian 16, Revision A.03,
 Gaussian 16:  EM64L-G16RevA.03 25-Dec-2016

 -------------
 #p 6-31g* mp2
 -------------

 ------------------------------------------------------
 Input file generated by CHIRIPA (05-May-2021 14:51:12)
 ------------------------------------------------------
 Symbolic Z-matrix:
 Charge =  0 Multiplicity = 1

                         Standard orientation:
 ---------------------------------------------------------------------
 Center     Atomic      Atomic             Coordinates (Angstroms)
 Number     Number       Type             X           Y           Z
 ---------------------------------------------------------------------
      1          6           0       -3.249436   -0.535259    0.041698
      2          6           0       -3.242913   -1.604546   -1.051264
      3          6           0       -2.580917   -2.906889   -0.600199
      4          1           0       -2.215839   -0.333613    0.354686
      5          1           0       -3.772730   -0.926894    0.924977
      6          1           0       -2.720995   -1.210511   -1.932713
      7          1           0       -4.276632   -1.803532   -1.361822
      8          1           0       -3.104965   -3.325922    0.264893
      9          1           0       -1.540489   -2.729531   -0.309242
     10          1           0       -2.587199   -3.657332   -1.396851
     11          6           0       -3.907901    0.772491   -0.394126
     12          6           0       -3.914424    1.841778    0.698836
     13          6           0       -4.576420    3.144120    0.247771
     14          1           0       -3.384607    1.164126   -1.277404
     15          1           0       -4.941497    0.570845   -0.707114
     16          1           0       -2.880705    2.040764    1.009394
     17          1           0       -4.436342    1.447743    1.580286
     18          1           0       -5.616848    2.966763   -0.043186
     19          1           0       -4.052371    3.563154   -0.617321
     20          1           0       -4.570138    3.894564    1.044423
     21          6           0        4.288506    0.009067   -0.075302
     22          6           0        4.611505    1.493153   -0.251787
     23          6           0        6.035162    1.732465   -0.755498
     24          1           0        5.007023   -0.435021    0.627169
     25          1           0        4.430345   -0.506573   -1.035193
     26          1           0        4.467763    2.006091    0.707822
     27          1           0        3.892018    1.933802   -0.953771
     28          1           0        6.187692    1.246531   -1.724623
     29          1           0        6.766709    1.319230   -0.053589
     30          1           0        6.244741    2.800061   -0.874565
     31          6           0        2.868831   -0.246299    0.427729
     32          6           0        2.545832   -1.730384    0.604215
     33          6           0        1.122175   -1.969698    1.107926
     34          1           0        2.726991    0.269342    1.387620
     35          1           0        2.150314    0.197789   -0.274741
     36          1           0        3.265318   -2.171034    1.306199
     37          1           0        2.689574   -2.243322   -0.355394
     38          1           0        0.390628   -1.556462    0.406017
     39          1           0        0.969645   -1.483763    2.077051
     40          1           0        0.912595   -3.037293    1.226992
 ---------------------------------------------------------------------

 SCF Done:  E(RHF) =  -470.733053701     A.U. after   11 cycles
 E2 =    -0.1582757757D+01 EUMP2 =    -0.47231581145786D+03

 The electronic state is 1-A.
 Alpha  occ. eigenvalues --  -11.21653 -11.21634 -11.21575 -11.21550 -11.21452
 Alpha  occ. eigenvalues --  -11.21390 -11.21368 -11.21307 -11.21134 -11.21096
 Alpha  occ. eigenvalues --  -11.21052 -11.20933  -1.08477  -1.08390  -1.03584
 Alpha  occ. eigenvalues --   -1.03478  -0.96044  -0.95917  -0.87073  -0.86925
 Alpha  occ. eigenvalues --   -0.79680  -0.79511  -0.78297  -0.78192  -0.65136
 Alpha  occ. eigenvalues --   -0.65005  -0.61087  -0.60797  -0.59398  -0.59300
 Alpha  occ. eigenvalues --   -0.57636  -0.57545  -0.55459  -0.55101  -0.52759
 Alpha  occ. eigenvalues --   -0.52623  -0.52462  -0.52313  -0.50117  -0.49742
 Alpha  occ. eigenvalues --   -0.48021  -0.47811  -0.46785  -0.46461  -0.45894
 Alpha  occ. eigenvalues --   -0.45766  -0.45709  -0.45533  -0.43822  -0.43739
 Alpha virt. eigenvalues --    0.21361   0.23041   0.23642   0.24811   0.25950
 Alpha virt. eigenvalues --    0.26768   0.27181   0.27422   0.27975   0.29073
 Alpha virt. eigenvalues --    0.30778   0.31506   0.31674   0.31828   0.32121

 Mulliken charges:
               1
     1  C   -0.300974
     2  C   -0.299235
     3  C   -0.483158
     4  H    0.151870
     5  H    0.149729
     6  H    0.150798
     7  H    0.151740
     8  H    0.154791
     9  H    0.163993
    10  H    0.159305
    11  C   -0.298114
    12  C   -0.299665
    13  C   -0.475667
    14  H    0.149121
    15  H    0.149650
    16  H    0.152076
    17  H    0.151940
    18  H    0.155129
    19  H    0.155061
    20  H    0.160176
    21  C   -0.298336
    22  C   -0.299683
    23  C   -0.475738
    24  H    0.149851
    25  H    0.149650
    26  H    0.151992
    27  H    0.151853
    28  H    0.155242
    29  H    0.155267
    30  H    0.160352
    31  C   -0.298600
    32  C   -0.299707
    33  C   -0.481549
    34  H    0.149669
    35  H    0.149299
    36  H    0.152359
    37  H    0.152264
    38  H    0.159290
    39  H    0.156000
    40  H    0.161958
 Sum of Mulliken charges =  -0.00000

 Dipole moment (field-independent basis, Debye):
    X=              0.0514    Y=             -0.0068    Z=              0.0299  Tot=              0.0599
 Quadrupole moment (field-independent basis, Debye-Ang):
   XX=            -85.1170   YY=            -85.8255   ZZ=            -83.9003
   XY=              0.3716   XZ=              0.2573   YZ=              0.1612

 Normal termination of Gaussian 16 at Thu May  6 02:20:13 2021.
