 Gaussian 16, Revision A.03,
 Gaussian 16:  EM64L-G16RevA.03 25-Dec-2016

 -------------
 #p 6-31g* mp2
 -------------

 ------------------------------------------------------
 Input file generated by CHIRIPA (05-May-2021 14:51:11)
 ------------------------------------------------------
 Symbolic Z-matrix:
 Charge =  0 Multiplicity = 1

                         Standard orientation:
 ---------------------------------------------------------------------
 Center     Atomic      Atomic             Coordinates (Angstroms)
 Number     Number       Type             X           Y           Z
 ---------------------------------------------------------------------
      1          6           0        1.781082    1.216141    0.116407
      2          6           0        2.117715    2.620119    0.619904
      3          6           0        0.873246    3.471879    0.872088
      4          1           0        1.195932    1.296226   -0.809947
      5          1           0        1.135748    0.715500    0.851456
      6          1           0        2.763354    3.117457   -0.115229
      7          1           0        2.702295    2.536680    1.545063
      8          1           0        0.229342    3.000684    1.621730
      9          1           0        0.290747    3.584761   -0.047996
     10          1           0        1.136972    4.471465    1.231446
     11          6           0        3.014831    0.352602   -0.140291
     12          6           0        2.678199   -1.051376   -0.643789
     13          6           0        3.922667   -1.903136   -0.895972
     14          1           0        3.660166    0.853243   -0.875340
     15          1           0        3.599981    0.272518    0.786062
     16          1           0        2.093618   -0.967937   -1.568948
     17          1           0        2.032560   -1.548714    0.091344
     18          1           0        4.505166   -2.016018    0.024111
     19          1           0        4.566571   -1.431941   -1.645614
     20          1           0        3.658942   -2.902722   -1.255330
     21          6           0       -1.811054   -1.269022   -0.052013
     22          6           0       -1.865757   -2.423090    0.949546
     23          6           0       -0.684875   -3.384131    0.809157
     24          1           0       -1.788136   -1.677541   -1.071588
     25          1           0       -0.870342   -0.717979    0.085140
     26          1           0       -2.806711   -2.970954    0.811472
     27          1           0       -1.888740   -2.011771    1.966849
     28          1           0        0.261591   -2.857243    0.967884
     29          1           0       -0.661597   -3.821875   -0.194057
     30          1           0       -0.743980   -4.201456    1.534653
     31          6           0       -2.984860   -0.299721    0.075898
     32          6           0       -2.930156    0.854346   -0.925661
     33          6           0       -4.111039    1.815388   -0.785272
     34          1           0       -3.925571   -0.850764   -0.061256
     35          1           0       -3.007778    0.108797    1.095472
     36          1           0       -2.907173    0.443028   -1.942964
     37          1           0       -1.989201    1.402211   -0.787588
     38          1           0       -4.134317    2.253133    0.217942
     39          1           0       -5.057504    1.288499   -0.944000
     40          1           0       -4.051933    2.632713   -1.510769
 ---------------------------------------------------------------------

 SCF Done:  E(RHF) =  -470.732923086     A.U. after   11 cycles
 E2 =    -0.1584587632D+01 EUMP2 =    -0.47231751071828D+03

 The electronic state is 1-A.
 Alpha  occ. eigenvalues --  -11.21673 -11.21595 -11.21562 -11.21540 -11.21476
 Alpha  occ. eigenvalues --  -11.21404 -11.21327 -11.21246 -11.21150 -11.21070
 Alpha  occ. eigenvalues --  -11.21040 -11.21024  -1.08501  -1.08358  -1.03581
 Alpha  occ. eigenvalues --   -1.03477  -0.96034  -0.95925  -0.87049  -0.86944
 Alpha  occ. eigenvalues --   -0.79686  -0.79508  -0.78467  -0.78027  -0.65185
 Alpha  occ. eigenvalues --   -0.64949  -0.61028  -0.60849  -0.59431  -0.59260
 Alpha  occ. eigenvalues --   -0.57723  -0.57469  -0.55358  -0.55185  -0.52719
 Alpha  occ. eigenvalues --   -0.52628  -0.52483  -0.52332  -0.50044  -0.49815
 Alpha  occ. eigenvalues --   -0.48126  -0.47743  -0.46783  -0.46565  -0.46335
 Alpha  occ. eigenvalues --   -0.45732  -0.45681  -0.45000  -0.43827  -0.43725
 Alpha virt. eigenvalues --    0.20500   0.22014   0.23575   0.24700   0.25426
 Alpha virt. eigenvalues --    0.26127   0.26779   0.27294   0.28305   0.30319
 Alpha virt. eigenvalues --    0.30676   0.31311   0.31821   0.31912   0.32210

 Mulliken charges:
               1
     1  C   -0.302885
     2  C   -0.299426
     3  C   -0.476898
     4  H    0.151956
     5  H    0.151091
     6  H    0.152419
     7  H    0.152160
     8  H    0.154858
     9  H    0.156190
    10  H    0.160858
    11  C   -0.297725
    12  C   -0.307579
    13  C   -0.475421
    14  H    0.149789
    15  H    0.149438
    16  H    0.152865
    17  H    0.159135
    18  H    0.154894
    19  H    0.155125
    20  H    0.160894
    21  C   -0.306596
    22  C   -0.299301
    23  C   -0.480689
    24  H    0.148971
    25  H    0.159224
    26  H    0.151790
    27  H    0.150943
    28  H    0.159684
    29  H    0.155377
    30  H    0.160003
    31  C   -0.297584
    32  C   -0.302367
    33  C   -0.475491
    34  H    0.149200
    35  H    0.148951
    36  H    0.151339
    37  H    0.154655
    38  H    0.155340
    39  H    0.154967
    40  H    0.159849
 Sum of Mulliken charges =  -0.00000

 Dipole moment (field-independent basis, Debye):
    X=              0.0584    Y=              0.0214    Z=             -0.0113  Tot=              0.0633
 Quadrupole moment (field-independent basis, Debye-Ang):
   XX=            -85.8703   YY=            -85.5154   ZZ=            -83.4482
   XY=              1.5131   XZ=              0.4824   YZ=             -0.0566

 Normal termination of Gaussian 16 at Wed May  5 23:04:30 2021.
