 Gaussian 16, Revision A.03,
 Gaussian 16:  EM64L-G16RevA.03 25-Dec-2016

 -------------
 #p 6-31g* mp2
 -------------

 ------------------------------------------------------
 Input file generated by CHIRIPA (05-May-2021 14:51:09)
 ------------------------------------------------------
 Symbolic Z-matrix:
 Charge =  0 Multiplicity = 1

                         Standard orientation:
 ---------------------------------------------------------------------
 Center     Atomic      Atomic             Coordinates (Angstroms)
 Number     Number       Type             X           Y           Z
 ---------------------------------------------------------------------
      1          6           0       -1.996187   -1.265358   -0.043764
      2          6           0       -1.197295   -1.742075    1.169702
      3          6           0       -0.087797   -2.726109    0.797564
      4          1           0       -2.431830   -2.135902   -0.552992
      5          1           0       -1.311784   -0.793187   -0.762124
      6          1           0       -1.883206   -2.211971    1.886179
      7          1           0       -0.763662   -0.870280    1.676211
      8          1           0        0.619161   -2.264120    0.100874
      9          1           0       -0.506744   -3.613434    0.312035
     10          1           0        0.470613   -3.053979    1.679914
     11          6           0       -3.108981   -0.281112    0.312154
     12          6           0       -3.907873    0.195604   -0.901312
     13          6           0       -5.017371    1.179638   -0.529174
     14          1           0       -3.793384   -0.753284    1.030514
     15          1           0       -2.673338    0.589431    0.821382
     16          1           0       -4.341506   -0.676191   -1.407821
     17          1           0       -3.221962    0.665500   -1.617789
     18          1           0       -4.598424    2.066963   -0.043645
     19          1           0       -5.724329    0.717649    0.167516
     20          1           0       -5.575781    1.507508   -1.411524
     21          6           0        2.189834    1.412012   -0.343499
     22          6           0        2.058838    2.433132    0.787051
     23          6           0        1.330902    3.705679    0.352855
     24          1           0        2.724589    1.872976   -1.185221
     25          1           0        1.187743    1.154264   -0.713330
     26          1           0        3.060804    2.687836    1.155569
     27          1           0        1.524501    1.969623    1.626253
     28          1           0        0.319850    3.471292    0.004377
     29          1           0        1.864881    4.193586   -0.468981
     30          1           0        1.248404    4.421838    1.176366
     31          6           0        2.915334    0.134458    0.075108
     32          6           0        3.046330   -0.886661   -1.055440
     33          6           0        3.774266   -2.159208   -0.621244
     34          1           0        3.917426    0.392206    0.444939
     35          1           0        2.380580   -0.326505    0.916830
     36          1           0        3.580667   -0.423152   -1.894642
     37          1           0        2.044365   -1.141365   -1.423959
     38          1           0        3.240287   -2.647115    0.200591
     39          1           0        4.785319   -1.924821   -0.272768
     40          1           0        3.856764   -2.875367   -1.444756
 ---------------------------------------------------------------------

 SCF Done:  E(RHF) =  -470.732890905     A.U. after   11 cycles
 E2 =    -0.1584351905D+01 EUMP2 =    -0.47231724280966D+03

 The electronic state is 1-A.
 Alpha  occ. eigenvalues --  -11.21673 -11.21656 -11.21642 -11.21627 -11.21474
 Alpha  occ. eigenvalues --  -11.21449 -11.21411 -11.21379 -11.21123 -11.21099
 Alpha  occ. eigenvalues --  -11.21091 -11.21030  -1.08519  -1.08448  -1.03625
 Alpha  occ. eigenvalues --   -1.03525  -0.96051  -0.95988  -0.87053  -0.87020
 Alpha  occ. eigenvalues --   -0.79654  -0.79623  -0.78328  -0.78263  -0.65417
 Alpha  occ. eigenvalues --   -0.64881  -0.61272  -0.60707  -0.59422  -0.59353
 Alpha  occ. eigenvalues --   -0.57646  -0.57606  -0.55415  -0.55185  -0.52730
 Alpha  occ. eigenvalues --   -0.52693  -0.52472  -0.52394  -0.50042  -0.49869
 Alpha  occ. eigenvalues --   -0.48038  -0.47867  -0.46733  -0.46612  -0.45998
 Alpha  occ. eigenvalues --   -0.45849  -0.45738  -0.45541  -0.43837  -0.43815
 Alpha virt. eigenvalues --    0.18912   0.22751   0.23989   0.24789   0.24886
 Alpha virt. eigenvalues --    0.26134   0.27253   0.28060   0.28660   0.29648
 Alpha virt. eigenvalues --    0.30858   0.31193   0.31560   0.31973   0.32407

 Mulliken charges:
               1
     1  C   -0.300065
     2  C   -0.300231
     3  C   -0.484929
     4  H    0.150201
     5  H    0.149876
     6  H    0.152418
     7  H    0.151671
     8  H    0.166099
     9  H    0.155593
    10  H    0.159800
    11  C   -0.298339
    12  C   -0.299733
    13  C   -0.475758
    14  H    0.149920
    15  H    0.149475
    16  H    0.152123
    17  H    0.151869
    18  H    0.155292
    19  H    0.155275
    20  H    0.160476
    21  C   -0.299453
    22  C   -0.299844
    23  C   -0.475637
    24  H    0.150051
    25  H    0.149593
    26  H    0.152364
    27  H    0.151719
    28  H    0.154623
    29  H    0.155466
    30  H    0.160508
    31  C   -0.301201
    32  C   -0.303646
    33  C   -0.478304
    34  H    0.150087
    35  H    0.152754
    36  H    0.153410
    37  H    0.152026
    38  H    0.159015
    39  H    0.155101
    40  H    0.160334
 Sum of Mulliken charges =  -0.00000

 Dipole moment (field-independent basis, Debye):
    X=              0.0060    Y=             -0.0118    Z=              0.0027  Tot=              0.0135
 Quadrupole moment (field-independent basis, Debye-Ang):
   XX=            -84.3984   YY=            -85.4136   ZZ=            -84.7694
   XY=              2.0053   XZ=             -0.2810   YZ=             -0.1233

 Normal termination of Gaussian 16 at Wed May  5 19:43:34 2021.
