 Gaussian 16, Revision A.03,
 Gaussian 16:  EM64L-G16RevA.03 25-Dec-2016

 -------------
 #p 6-31g* mp2
 -------------

 ------------------------------------------------------
 Input file generated by CHIRIPA (05-May-2021 14:55:20)
 ------------------------------------------------------
 Symbolic Z-matrix:
 Charge =  0 Multiplicity = 1

                         Standard orientation:
 ---------------------------------------------------------------------
 Center     Atomic      Atomic             Coordinates (Angstroms)
 Number     Number       Type             X           Y           Z
 ---------------------------------------------------------------------
      1          6           0        0.503822   -1.746058    1.134960
      2          6           0        0.680142   -0.384794    1.404017
      3          6           0        1.760116    0.313301    0.855502
      4          6           0        2.648549   -0.384291    0.038592
      5          6           0        2.499886   -1.740374   -0.248162
      6          6           0        1.412654   -2.418318    0.311182
      7          1           0       -0.337947   -2.280529    1.565266
      8          1           0       -0.024091    0.139864    2.043418
      9          1           0        1.920450    1.367304    1.047308
     10          1           0        3.218526   -2.236283   -0.889292
     11          1           0        1.278220   -3.475478    0.100501
     12          7           0        3.795711    0.344085   -0.547828
     13          8           0        4.564386   -0.293370   -1.264366
     14          8           0        3.904460    1.538649   -0.279822
     15          6           0       -2.446195    0.867924    0.030009
     16          6           0       -2.233675    2.378292   -0.077741
     17          6           0       -0.824594    2.807717    0.331989
     18          1           0       -2.250001    0.549220    1.062908
     19          1           0       -1.707428    0.354780   -0.601102
     20          1           0       -2.973512    2.888482    0.552309
     21          1           0       -2.430584    2.693467   -1.110460
     22          1           0       -0.074805    2.325273   -0.303358
     23          1           0       -0.620818    2.521398    1.368858
     24          1           0       -0.694543    3.891132    0.247386
     25          6           0       -3.850082    0.423176   -0.376227
     26          6           0       -4.062602   -1.087192   -0.268477
     27          6           0       -5.471683   -1.516618   -0.678207
     28          1           0       -4.588848    0.936321    0.254884
     29          1           0       -4.046276    0.741879   -1.409126
     30          1           0       -3.865693   -1.402367    0.764241
     31          1           0       -3.322764   -1.597383   -0.898527
     32          1           0       -5.675459   -1.230297   -1.715076
     33          1           0       -6.221472   -1.034173   -0.042860
     34          1           0       -5.601734   -2.600033   -0.593604
 ---------------------------------------------------------------------

 SCF Done:  E(RHF) =  -669.533241205     A.U. after   15 cycles
 E2 =    -0.2094599658D+01 EUMP2 =    -0.67162784086348D+03

 The electronic state is 1-A.
 Alpha  occ. eigenvalues --  -20.60721 -20.60716 -15.85772 -11.31114 -11.27671
 Alpha  occ. eigenvalues --  -11.27609 -11.27395 -11.26701 -11.26624 -11.22317
 Alpha  occ. eigenvalues --  -11.22210 -11.22067 -11.21982 -11.21726 -11.21648
 Alpha  occ. eigenvalues --   -1.59797  -1.39351  -1.19287  -1.09107  -1.08677
 Alpha  occ. eigenvalues --   -1.04713  -1.04160  -0.96638  -0.95516  -0.87664
 Alpha  occ. eigenvalues --   -0.86082  -0.82372  -0.80269  -0.78969  -0.77368
 Alpha  occ. eigenvalues --   -0.71990  -0.71123  -0.70382  -0.65771  -0.64936
 Alpha  occ. eigenvalues --   -0.64681  -0.62099  -0.61555  -0.59968  -0.58241
 Alpha  occ. eigenvalues --   -0.55929  -0.55178  -0.53336  -0.53182  -0.53021
 Alpha  occ. eigenvalues --   -0.52685  -0.50578  -0.48766  -0.48747  -0.48530
 Alpha  occ. eigenvalues --   -0.47275  -0.46451  -0.46349  -0.44759  -0.44424
 Alpha  occ. eigenvalues --   -0.37243  -0.36182
 Alpha virt. eigenvalues --    0.05097   0.11268   0.16529   0.19933   0.22589
 Alpha virt. eigenvalues --    0.23542   0.25199   0.25951   0.26480   0.28869
 Alpha virt. eigenvalues --    0.29099   0.29754   0.31215   0.31502   0.31673

 Mulliken charges:
               1
     1  C   -0.172057
     2  C   -0.212657
     3  C   -0.174223
     4  C    0.157228
     5  C   -0.171865
     6  C   -0.219008
     7  H    0.225805
     8  H    0.225031
     9  H    0.278443
    10  H    0.275051
    11  H    0.223021
    12  N    0.488326
    13  O   -0.460744
    14  O   -0.460656
    15  C   -0.299725
    16  C   -0.300074
    17  C   -0.480566
    18  H    0.137421
    19  H    0.156889
    20  H    0.152828
    21  H    0.156545
    22  H    0.163523
    23  H    0.142515
    24  H    0.166995
    25  C   -0.298256
    26  C   -0.299805
    27  C   -0.475801
    28  H    0.150512
    29  H    0.152964
    30  H    0.145817
    31  H    0.151993
    32  H    0.157693
    33  H    0.156563
    34  H    0.160276
 Sum of Mulliken charges =  -0.00000

 Dipole moment (field-independent basis, Debye):
    X=             -4.1504    Y=             -2.4773    Z=              1.9294  Tot=              5.2043
 Quadrupole moment (field-independent basis, Debye-Ang):
   XX=           -117.1595   YY=            -89.4588   ZZ=            -93.4230
   XY=             -7.2698   XZ=              4.3548   YZ=              1.0723

 Normal termination of Gaussian 16 at Thu May  6 04:31:46 2021.
