 Gaussian 16, Revision A.03,
 Gaussian 16:  EM64L-G16RevA.03 25-Dec-2016

 -------------
 #p 6-31g* mp2
 -------------

 ------------------------------------------------------
 Input file generated by CHIRIPA (05-May-2021 14:57:25)
 ------------------------------------------------------
 Symbolic Z-matrix:
 Charge =  0 Multiplicity = 1

                         Standard orientation:
 ---------------------------------------------------------------------
 Center     Atomic      Atomic             Coordinates (Angstroms)
 Number     Number       Type             X           Y           Z
 ---------------------------------------------------------------------
      1          6           0        1.814790   -0.188540    0.487977
      2          6           0        2.478068   -1.206995   -0.204363
      3          6           0        3.860253   -1.145462   -0.405171
      4          6           0        4.551057   -0.046069    0.102190
      5          6           0        3.918722    0.984431    0.796100
      6          6           0        2.535962    0.902000    0.985122
      7          1           0        0.740852   -0.244458    0.639391
      8          1           0        1.920559   -2.055112   -0.591566
      9          1           0        4.398893   -1.919984   -0.937525
     10          1           0        4.501488    1.817343    1.170348
     11          1           0        2.023489    1.694405    1.523182
     12          7           0        6.014619    0.030136   -0.104158
     13          8           0        6.600412    1.009284    0.352736
     14          8           0        6.548254   -0.890727   -0.718880
     15          6           0       -1.924472    0.541675   -0.801471
     16          6           0       -2.904071    1.530292   -0.941272
     17          6           0       -4.228920    1.273767   -0.575867
     18          6           0       -4.540454    0.011929   -0.071883
     19          6           0       -3.587013   -0.993747    0.079306
     20          6           0       -2.268463   -0.714973   -0.292526
     21          1           0       -0.897744    0.749592   -1.087822
     22          1           0       -2.639808    2.507129   -1.336238
     23          1           0       -5.007198    2.020862   -0.673594
     24          1           0       -3.880843   -1.957948    0.476039
     25          1           0       -1.509780   -1.484660   -0.182855
     26          7           0       -5.939677   -0.271420    0.318357
     27          8           0       -6.188474   -1.391170    0.759826
     28          8           0       -6.761098    0.631608    0.175367
 ---------------------------------------------------------------------

 SCF Done:  E(RHF) =  -868.336504380     A.U. after   16 cycles
 E2 =    -0.2600655573D+01 EUMP2 =    -0.87093715995314D+03

 The electronic state is 1-A.
 Alpha  occ. eigenvalues --  -20.61437 -20.61430 -20.61391 -20.61385 -15.86498
 Alpha  occ. eigenvalues --  -15.86449 -11.32046 -11.31993 -11.28677 -11.28608
 Alpha  occ. eigenvalues --  -11.28565 -11.28543 -11.28464 -11.28417 -11.27820
 Alpha  occ. eigenvalues --  -11.27699 -11.27653 -11.27641  -1.60508  -1.60462
 Alpha  occ. eigenvalues --   -1.40056  -1.40010  -1.20256  -1.20185  -1.09654
 Alpha  occ. eigenvalues --   -1.09557  -1.05684  -1.05603  -0.96470  -0.96335
 Alpha  occ. eigenvalues --   -0.87097  -0.87006  -0.83269  -0.83175  -0.78259
 Alpha  occ. eigenvalues --   -0.78185  -0.72716  -0.72664  -0.71834  -0.71786
 Alpha  occ. eigenvalues --   -0.71702  -0.71057  -0.65923  -0.65853  -0.65761
 Alpha  occ. eigenvalues --   -0.65552  -0.63027  -0.62930  -0.56440  -0.55968
 Alpha  occ. eigenvalues --   -0.53985  -0.53923  -0.53784  -0.53699  -0.49488
 Alpha  occ. eigenvalues --   -0.49455  -0.49438  -0.49407  -0.45420  -0.45375
 Alpha  occ. eigenvalues --   -0.38295  -0.38195  -0.37279  -0.37197
 Alpha virt. eigenvalues --    0.04222   0.04341   0.10210   0.10439   0.15515
 Alpha virt. eigenvalues --    0.15771   0.18374   0.21956   0.24835   0.26527
 Alpha virt. eigenvalues --    0.27340   0.29087   0.30070   0.30228   0.31734

 Mulliken charges:
               1
     1  C   -0.181388
     2  C   -0.219628
     3  C   -0.169766
     4  C    0.159703
     5  C   -0.169938
     6  C   -0.220137
     7  H    0.225093
     8  H    0.221124
     9  H    0.278172
    10  H    0.278209
    11  H    0.226135
    12  N    0.487829
    13  O   -0.458170
    14  O   -0.458296
    15  C   -0.176602
    16  C   -0.218793
    17  C   -0.169393
    18  C    0.159060
    19  C   -0.169289
    20  C   -0.222476
    21  H    0.226774
    22  H    0.226767
    23  H    0.278726
    24  H    0.278049
    25  H    0.216611
    26  N    0.487984
    27  O   -0.458534
    28  O   -0.457826
 Sum of Mulliken charges =  -0.00000

 Dipole moment (field-independent basis, Debye):
    X=             -0.2608    Y=              0.8268    Z=             -0.6480  Tot=              1.0823
 Quadrupole moment (field-independent basis, Debye-Ang):
   XX=           -194.9014   YY=            -96.7060   ZZ=           -104.2806
   XY=             -6.8881   XZ=              9.3001   YZ=              0.8805

 Normal termination of Gaussian 16 at Thu May  6 16:24:12 2021.
