 Gaussian 16, Revision A.03,
 Gaussian 16:  EM64L-G16RevA.03 25-Dec-2016

 -------------
 #p 6-31g* mp2
 -------------

 ------------------------------------------------------
 Input file generated by CHIRIPA (05-May-2021 14:57:23)
 ------------------------------------------------------
 Symbolic Z-matrix:
 Charge =  0 Multiplicity = 1

                         Standard orientation:
 ---------------------------------------------------------------------
 Center     Atomic      Atomic             Coordinates (Angstroms)
 Number     Number       Type             X           Y           Z
 ---------------------------------------------------------------------
      1          6           0        6.024779   -0.553526    0.197134
      2          6           0        5.174090   -1.636761   -0.046690
      3          6           0        3.800993   -1.436812   -0.217492
      4          6           0        3.310285   -0.134450   -0.137808
      5          6           0        4.132188    0.965265    0.103840
      6          6           0        5.502035    0.741746    0.271490
      7          1           0        7.090172   -0.718007    0.328593
      8          1           0        5.577275   -2.643783   -0.104953
      9          1           0        3.119776   -2.257362   -0.407382
     10          1           0        3.700924    1.957565    0.156460
     11          1           0        6.160318    1.584893    0.460728
     12          7           0        1.858369    0.089704   -0.316960
     13          8           0        1.450834    1.246836   -0.242148
     14          8           0        1.155386   -0.895981   -0.528799
     15          6           0       -1.902841    2.076436    0.266363
     16          6           0       -2.613625    1.862123   -0.919123
     17          6           0       -3.528574    0.809680   -1.018026
     18          6           0       -3.708779   -0.012780    0.092998
     19          6           0       -3.015712    0.175015    1.287855
     20          6           0       -2.105795    1.233684    1.364133
     21          1           0       -1.194042    2.896418    0.334405
     22          1           0       -2.458043    2.515025   -1.773265
     23          1           0       -4.092167    0.621060   -1.923677
     24          1           0       -3.192248   -0.492589    2.122456
     25          1           0       -1.555188    1.397743    2.286066
     26          7           0       -4.674731   -1.130249    0.000271
     27          8           0       -4.815388   -1.840689    0.993310
     28          8           0       -5.272896   -1.274523   -1.063694
 ---------------------------------------------------------------------

 SCF Done:  E(RHF) =  -868.338854782     A.U. after   16 cycles
 E2 =    -0.2599268255D+01 EUMP2 =    -0.87093812303708D+03

 The electronic state is 1-A.
 Alpha  occ. eigenvalues --  -20.61483 -20.61416 -20.59616 -20.59611 -15.86494
 Alpha  occ. eigenvalues --  -15.84665 -11.31713 -11.29710 -11.28290 -11.28232
 Alpha  occ. eigenvalues --  -11.27965 -11.27253 -11.27215 -11.26328 -11.26325
 Alpha  occ. eigenvalues --  -11.25919 -11.25208 -11.25197  -1.60514  -1.58699
 Alpha  occ. eigenvalues --   -1.40077  -1.38263  -1.19868  -1.17867  -1.09288
 Alpha  occ. eigenvalues --   -1.07293  -1.05249  -1.03268  -0.96150  -0.94188
 Alpha  occ. eigenvalues --   -0.86653  -0.84677  -0.82991  -0.81066  -0.78054
 Alpha  occ. eigenvalues --   -0.76172  -0.72734  -0.71834  -0.70971  -0.70900
 Alpha  occ. eigenvalues --   -0.70013  -0.68955  -0.65523  -0.65245  -0.63541
 Alpha  occ. eigenvalues --   -0.63307  -0.62598  -0.60670  -0.55748  -0.53717
 Alpha  occ. eigenvalues --   -0.53586  -0.53335  -0.51587  -0.51397  -0.49463
 Alpha  occ. eigenvalues --   -0.49406  -0.47665  -0.47625  -0.45518  -0.43743
 Alpha  occ. eigenvalues --   -0.37838  -0.36846  -0.35683  -0.34859
 Alpha virt. eigenvalues --    0.04465   0.06417   0.10811   0.12815   0.15997
 Alpha virt. eigenvalues --    0.18007   0.20978   0.22820   0.26894   0.27846
 Alpha virt. eigenvalues --    0.28607   0.29726   0.30565   0.32034   0.32357

 Mulliken charges:
               1
     1  C   -0.170230
     2  C   -0.218468
     3  C   -0.170556
     4  C    0.157730
     5  C   -0.171320
     6  C   -0.218405
     7  H    0.227369
     8  H    0.225741
     9  H    0.277821
    10  H    0.272645
    11  H    0.224172
    12  N    0.489384
    13  O   -0.470538
    14  O   -0.453512
    15  C   -0.147085
    16  C   -0.218687
    17  C   -0.170067
    18  C    0.157938
    19  C   -0.169303
    20  C   -0.216540
    21  H    0.226872
    22  H    0.218493
    23  H    0.270559
    24  H    0.270014
    25  H    0.217181
    26  N    0.488545
    27  O   -0.465020
    28  O   -0.464734
 Sum of Mulliken charges =  -0.00000

 Dipole moment (field-independent basis, Debye):
    X=              9.0171    Y=              3.1454    Z=              0.9153  Tot=              9.5938
 Quadrupole moment (field-independent basis, Debye-Ang):
   XX=            -98.2045   YY=           -100.1408   ZZ=           -101.6460
   XY=            -18.1705   XZ=              1.8506   YZ=             -0.2034

 Normal termination of Gaussian 16 at Thu May  6 05:01:13 2021.
