 Gaussian 16, Revision A.03,
 Gaussian 16:  EM64L-G16RevA.03 25-Dec-2016

 -------------
 #p 6-31g* mp2
 -------------

 ------------------------------------------------------
 Input file generated by CHIRIPA (05-May-2021 14:53:14)
 ------------------------------------------------------
 Symbolic Z-matrix:
 Charge =  0 Multiplicity = 1

                         Standard orientation:
 ---------------------------------------------------------------------
 Center     Atomic      Atomic             Coordinates (Angstroms)
 Number     Number       Type             X           Y           Z
 ---------------------------------------------------------------------
      1          6           0        4.932066    0.221463   -0.023930
      2          6           0        6.428454   -0.057048   -0.169662
      3          6           0        7.282791    1.199818   -0.001763
      4          1           0        4.631376    0.972876   -0.766836
      5          1           0        4.743223    0.665103    0.963450
      6          1           0        6.614231   -0.501308   -1.155936
      7          1           0        6.725577   -0.808027    0.573551
      8          1           0        7.126777    1.642373    0.987380
      9          1           0        7.014798    1.950835   -0.751933
     10          1           0        8.349057    0.977852   -0.109776
     11          6           0        4.064885   -1.025295   -0.189208
     12          6           0        2.568496   -0.746784   -0.043476
     13          6           0        1.714159   -2.003650   -0.211374
     14          1           0        4.253727   -1.468935   -1.176587
     15          1           0        4.365574   -1.776708    0.553698
     16          1           0        2.271373    0.004195   -0.786689
     17          1           0        2.382719   -0.302524    0.942798
     18          1           0        1.982152   -2.754667    0.538795
     19          1           0        1.870173   -2.446205   -1.200518
     20          1           0        0.647893   -1.781684   -0.103362
     21          6           0       -1.360580    1.571472    0.464823
     22          6           0       -2.456292    2.219587   -0.114729
     23          6           0       -3.654647    1.532718   -0.330843
     24          6           0       -3.722660    0.192429    0.046368
     25          6           0       -2.648475   -0.481016    0.625927
     26          6           0       -1.459993    0.225612    0.832654
     27          1           0       -0.433504    2.112722    0.629060
     28          1           0       -2.381957    3.264741   -0.401383
     29          1           0       -4.518353    2.010015   -0.777629
     30          1           0       -2.752821   -1.523486    0.901217
     31          1           0       -0.610667   -0.280286    1.282939
     32          7           0       -4.986079   -0.545187   -0.177453
     33          8           0       -5.020464   -1.725470    0.163704
     34          8           0       -5.918038    0.070919   -0.689802
 ---------------------------------------------------------------------

 SCF Done:  E(RHF) =  -669.535436552     A.U. after   15 cycles
 E2 =    -0.2091510063D+01 EUMP2 =    -0.67162694661559D+03

 The electronic state is 1-A.
 Alpha  occ. eigenvalues --  -20.60753 -20.60748 -15.85807 -11.31180 -11.27757
 Alpha  occ. eigenvalues --  -11.27751 -11.27485 -11.26765 -11.26730 -11.22554
 Alpha  occ. eigenvalues --  -11.22131 -11.22106 -11.22013 -11.21896 -11.21538
 Alpha  occ. eigenvalues --   -1.59828  -1.39382  -1.19356  -1.09135  -1.08744
 Alpha  occ. eigenvalues --   -1.04766  -1.04230  -0.96663  -0.95578  -0.87679
 Alpha  occ. eigenvalues --   -0.86153  -0.82414  -0.80311  -0.78937  -0.77464
 Alpha  occ. eigenvalues --   -0.72025  -0.71152  -0.70453  -0.65761  -0.65005
 Alpha  occ. eigenvalues --   -0.64803  -0.62177  -0.61613  -0.60017  -0.58273
 Alpha  occ. eigenvalues --   -0.55926  -0.55250  -0.53475  -0.53183  -0.53029
 Alpha  occ. eigenvalues --   -0.52651  -0.50588  -0.48785  -0.48779  -0.48618
 Alpha  occ. eigenvalues --   -0.47344  -0.46477  -0.46388  -0.44786  -0.44482
 Alpha  occ. eigenvalues --   -0.37326  -0.36350
 Alpha virt. eigenvalues --    0.05061   0.11222   0.16455   0.19935   0.22480
 Alpha virt. eigenvalues --    0.23883   0.25760   0.26289   0.26555   0.28152
 Alpha virt. eigenvalues --    0.28786   0.30457   0.30775   0.31208   0.32016

 Mulliken charges:
               1
     1  C   -0.298710
     2  C   -0.300189
     3  C   -0.476059
     4  H    0.149241
     5  H    0.148259
     6  H    0.153434
     7  H    0.153120
     8  H    0.155075
     9  H    0.155286
    10  H    0.162144
    11  C   -0.298277
    12  C   -0.301851
    13  C   -0.480671
    14  H    0.152830
    15  H    0.151756
    16  H    0.152574
    17  H    0.144152
    18  H    0.157319
    19  H    0.161525
    20  H    0.156972
    21  C   -0.172406
    22  C   -0.218725
    23  C   -0.170708
    24  C    0.158680
    25  C   -0.172567
    26  C   -0.220162
    27  H    0.226637
    28  H    0.223412
    29  H    0.275645
    30  H    0.275996
    31  H    0.228983
    32  N    0.488095
    33  O   -0.460290
    34  O   -0.460520
 Sum of Mulliken charges =  -0.00000

 Dipole moment (field-independent basis, Debye):
    X=              4.6054    Y=              2.5747    Z=              0.7292  Tot=              5.3264
 Quadrupole moment (field-independent basis, Debye-Ang):
   XX=           -127.4853   YY=            -91.0580   ZZ=            -93.6477
   XY=            -11.6375   XZ=             -1.9847   YZ=             -1.7959

 Normal termination of Gaussian 16 at Wed May  5 21:50:31 2021.
