 Gaussian 16, Revision A.03,
 Gaussian 16:  EM64L-G16RevA.03 25-Dec-2016

 -------------
 #p 6-31g* mp2
 -------------

 ------------------------------------------------------
 Input file generated by CHIRIPA (05-May-2021 14:55:24)
 ------------------------------------------------------
 Symbolic Z-matrix:
 Charge =  0 Multiplicity = 1

                         Standard orientation:
 ---------------------------------------------------------------------
 Center     Atomic      Atomic             Coordinates (Angstroms)
 Number     Number       Type             X           Y           Z
 ---------------------------------------------------------------------
      1          6           0        5.461632   -0.074053   -0.352568
      2          6           0        4.650648   -0.824464   -1.210304
      3          6           0        3.285758   -0.973797   -0.947015
      4          6           0        2.762678   -0.356306    0.188055
      5          6           0        3.544694    0.397671    1.061702
      6          6           0        4.907044    0.533548    0.778703
      7          1           0        6.520924    0.036726   -0.564753
      8          1           0        5.078623   -1.297456   -2.089600
      9          1           0        2.634992   -1.549160   -1.594224
     10          1           0        3.089348    0.857358    1.930475
     11          1           0        5.534461    1.116911    1.446596
     12          7           0        1.319074   -0.507275    0.477220
     13          8           0        0.882488    0.046711    1.483763
     14          8           0        0.651499   -1.176733   -0.308150
     15          6           0       -3.600449    1.147695   -0.132104
     16          6           0       -2.180388    1.350994   -0.661329
     17          6           0       -1.713812    2.803478   -0.559377
     18          1           0       -4.289461    1.795724   -0.690913
     19          1           0       -3.644089    1.475104    0.915891
     20          1           0       -2.139101    1.022008   -1.707599
     21          1           0       -1.494705    0.702265   -0.101324
     22          1           0       -1.726453    3.139942    0.482368
     23          1           0       -2.374511    3.461503   -1.133033
     24          1           0       -0.696218    2.926150   -0.943191
     25          6           0       -4.081090   -0.299250   -0.227311
     26          6           0       -5.501152   -0.502548    0.301914
     27          6           0       -5.967727   -1.955032    0.199962
     28          1           0       -4.037451   -0.626659   -1.275306
     29          1           0       -3.392078   -0.947278    0.331498
     30          1           0       -6.186835    0.146180   -0.258091
     31          1           0       -5.542438   -0.173563    1.348184
     32          1           0       -5.307028   -2.613057    0.773618
     33          1           0       -5.955087   -2.291497   -0.841783
     34          1           0       -6.985321   -2.077705    0.583776
 ---------------------------------------------------------------------

 SCF Done:  E(RHF) =  -669.536747653     A.U. after   15 cycles
 E2 =    -0.2091897118D+01 EUMP2 =    -0.67162864477148D+03

 The electronic state is 1-A.
 Alpha  occ. eigenvalues --  -20.61092 -20.61084 -15.86080 -11.31366 -11.27916
 Alpha  occ. eigenvalues --  -11.27912 -11.27646 -11.26911 -11.26901 -11.20583
 Alpha  occ. eigenvalues --  -11.20196 -11.20093 -11.20032 -11.19912 -11.19851
 Alpha  occ. eigenvalues --   -1.60127  -1.39681  -1.19523  -1.08937  -1.07136
 Alpha  occ. eigenvalues --   -1.04910  -1.02308  -0.95785  -0.94817  -0.86313
 Alpha  occ. eigenvalues --   -0.85839  -0.82621  -0.78368  -0.77683  -0.76906
 Alpha  occ. eigenvalues --   -0.72288  -0.71434  -0.70631  -0.65177  -0.64915
 Alpha  occ. eigenvalues --   -0.63761  -0.62257  -0.59698  -0.58196  -0.56418
 Alpha  occ. eigenvalues --   -0.55418  -0.54112  -0.53244  -0.53001  -0.51557
 Alpha  occ. eigenvalues --   -0.51238  -0.49195  -0.49064  -0.48716  -0.46669
 Alpha  occ. eigenvalues --   -0.45341  -0.45107  -0.44463  -0.44253  -0.42560
 Alpha  occ. eigenvalues --   -0.37496  -0.36508
 Alpha virt. eigenvalues --    0.04811   0.11149   0.16322   0.21288   0.24137
 Alpha virt. eigenvalues --    0.25450   0.27212   0.27950   0.28181   0.28854
 Alpha virt. eigenvalues --    0.29172   0.30862   0.32411   0.32559   0.32888

 Mulliken charges:
               1
     1  C   -0.170349
     2  C   -0.218657
     3  C   -0.170676
     4  C    0.160838
     5  C   -0.170621
     6  C   -0.218648
     7  H    0.226285
     8  H    0.224106
     9  H    0.276143
    10  H    0.276056
    11  H    0.224113
    12  N    0.487558
    13  O   -0.460278
    14  O   -0.458324
    15  C   -0.297086
    16  C   -0.311723
    17  C   -0.473106
    18  H    0.142485
    19  H    0.148204
    20  H    0.145598
    21  H    0.183387
    22  H    0.154860
    23  H    0.148450
    24  H    0.152402
    25  C   -0.299003
    26  C   -0.298853
    27  C   -0.474967
    28  H    0.146685
    29  H    0.160257
    30  H    0.148238
    31  H    0.150577
    32  H    0.156218
    33  H    0.153429
    34  H    0.156401
 Sum of Mulliken charges =  -0.00000

 Dipole moment (field-independent basis, Debye):
    X=              5.4880    Y=              0.3328    Z=             -0.9085  Tot=              5.5727
 Quadrupole moment (field-independent basis, Debye-Ang):
   XX=            -68.4919   YY=            -95.8517   ZZ=            -91.2980
   XY=             -0.1913   XZ=             -1.3641   YZ=              3.2865

 Normal termination of Gaussian 16 at Wed May  5 22:22:26 2021.
