 Gaussian 16, Revision A.03,
 Gaussian 16:  EM64L-G16RevA.03 25-Dec-2016

 -------------
 #p 6-31g* mp2
 -------------

 ------------------------------------------------------
 Input file generated by CHIRIPA (05-May-2021 14:55:25)
 ------------------------------------------------------
 Symbolic Z-matrix:
 Charge =  0 Multiplicity = 1

                         Standard orientation:
 ---------------------------------------------------------------------
 Center     Atomic      Atomic             Coordinates (Angstroms)
 Number     Number       Type             X           Y           Z
 ---------------------------------------------------------------------
      1          6           0        3.754863    1.750871   -0.609360
      2          6           0        4.225927    0.461773   -0.879258
      3          6           0        3.501108   -0.660020   -0.466019
      4          6           0        2.303821   -0.455106    0.217945
      5          6           0        1.808195    0.816521    0.501859
      6          6           0        2.549625    1.923826    0.079124
      7          1           0        4.324371    2.616680   -0.934062
      8          1           0        5.161605    0.324439   -1.413759
      9          1           0        3.842590   -1.669232   -0.661721
     10          1           0        0.872033    0.921657    1.036616
     11          1           0        2.181358    2.923779    0.290118
     12          7           0        1.527695   -1.635029    0.660449
     13          8           0        0.475782   -1.427682    1.261384
     14          8           0        1.985977   -2.744858    0.397970
     15          6           0       -3.536572   -0.296952   -0.107655
     16          6           0       -2.900840   -1.536751   -0.737520
     17          6           0       -3.760862   -2.790226   -0.573332
     18          1           0       -3.712528   -0.485336    0.960285
     19          1           0       -4.522758   -0.128207   -0.561920
     20          1           0       -1.915556   -1.702304   -0.283182
     21          1           0       -2.726201   -1.345324   -1.804043
     22          1           0       -4.739953   -2.649848   -1.042666
     23          1           0       -3.924702   -3.008856    0.486837
     24          1           0       -3.287558   -3.664597   -1.030846
     25          6           0       -2.688673    0.964192   -0.263582
     26          6           0       -3.324405    2.203991    0.366283
     27          6           0       -2.464383    3.457466    0.202095
     28          1           0       -1.702487    0.795448    0.190683
     29          1           0       -2.512717    1.152575   -1.331522
     30          1           0       -3.499044    2.012564    1.432806
     31          1           0       -4.309689    2.369544   -0.088055
     32          1           0       -2.300543    3.676096   -0.858074
     33          1           0       -1.485292    3.317087    0.671429
     34          1           0       -2.937687    4.331837    0.659608
 ---------------------------------------------------------------------

 SCF Done:  E(RHF) =  -669.536504959     A.U. after   15 cycles
 E2 =    -0.2092329421D+01 EUMP2 =    -0.67162883438046D+03

 The electronic state is 1-A.
 Alpha  occ. eigenvalues --  -20.61023 -20.61018 -15.86031 -11.31301 -11.27858
 Alpha  occ. eigenvalues --  -11.27854 -11.27584 -11.26856 -11.26843 -11.21494
 Alpha  occ. eigenvalues --  -11.21302 -11.21050 -11.20726 -11.20536 -11.20153
 Alpha  occ. eigenvalues --   -1.60068  -1.39628  -1.19464  -1.08878  -1.07948
 Alpha  occ. eigenvalues --   -1.04853  -1.03044  -0.95730  -0.95548  -0.86574
 Alpha  occ. eigenvalues --   -0.86256  -0.82567  -0.79165  -0.77758  -0.77554
 Alpha  occ. eigenvalues --   -0.72260  -0.71370  -0.70578  -0.65125  -0.64870
 Alpha  occ. eigenvalues --   -0.64554  -0.62205  -0.60425  -0.58973  -0.57124
 Alpha  occ. eigenvalues --   -0.55362  -0.54855  -0.53183  -0.52949  -0.52259
 Alpha  occ. eigenvalues --   -0.51972  -0.49525  -0.49026  -0.49011  -0.47472
 Alpha  occ. eigenvalues --   -0.46193  -0.45521  -0.45213  -0.44568  -0.43290
 Alpha  occ. eigenvalues --   -0.37436  -0.36444
 Alpha virt. eigenvalues --    0.04835   0.11162   0.16330   0.19856   0.23138
 Alpha virt. eigenvalues --    0.24496   0.25760   0.27200   0.27621   0.28352
 Alpha virt. eigenvalues --    0.29548   0.31118   0.31783   0.32098   0.32529

 Mulliken charges:
               1
     1  C   -0.170392
     2  C   -0.218588
     3  C   -0.170468
     4  C    0.157639
     5  C   -0.172041
     6  C   -0.219409
     7  H    0.226179
     8  H    0.223850
     9  H    0.275751
    10  H    0.279354
    11  H    0.224757
    12  N    0.488434
    13  O   -0.461247
    14  O   -0.457741
    15  C   -0.295865
    16  C   -0.311325
    17  C   -0.474663
    18  H    0.152147
    19  H    0.145612
    20  H    0.176631
    21  H    0.144669
    22  H    0.149359
    23  H    0.157071
    24  H    0.161030
    25  C   -0.303068
    26  C   -0.299565
    27  C   -0.473357
    28  H    0.152635
    29  H    0.146840
    30  H    0.153638
    31  H    0.152774
    32  H    0.154818
    33  H    0.143684
    34  H    0.160857
 Sum of Mulliken charges =  -0.00000

 Dipole moment (field-independent basis, Debye):
    X=              2.9220    Y=              4.0166    Z=             -1.4892  Tot=              5.1854
 Quadrupole moment (field-independent basis, Debye-Ang):
   XX=            -80.3796   YY=            -98.1893   ZZ=            -94.7646
   XY=              5.5065   XZ=             -4.6444   YZ=              2.6490

 Normal termination of Gaussian 16 at Wed May  5 20:49:18 2021.
