 Gaussian 16, Revision A.03,
 Gaussian 16:  EM64L-G16RevA.03 25-Dec-2016

 -------------
 #p 6-31g* mp2
 -------------

 ------------------------------------------------------
 Input file generated by CHIRIPA (05-May-2021 14:57:22)
 ------------------------------------------------------
 Symbolic Z-matrix:
 Charge =  0 Multiplicity = 1

                         Standard orientation:
 ---------------------------------------------------------------------
 Center     Atomic      Atomic             Coordinates (Angstroms)
 Number     Number       Type             X           Y           Z
 ---------------------------------------------------------------------
      1          6           0        2.756608   -2.149958   -0.057139
      2          6           0        2.262012   -1.037181    0.631063
      3          6           0        2.994034    0.153072    0.675674
      4          6           0        4.222441    0.195671    0.018031
      5          6           0        4.742034   -0.895974   -0.675961
      6          6           0        3.992861   -2.075933   -0.707309
      7          1           0        2.181294   -3.070577   -0.086642
      8          1           0        1.302228   -1.091788    1.136906
      9          1           0        2.634796    1.029585    1.201117
     10          1           0        5.702015   -0.811177   -1.170597
     11          1           0        4.379451   -2.938554   -1.242545
     12          7           0        5.006478    1.450290    0.058238
     13          8           0        6.085987    1.462186   -0.529261
     14          8           0        4.526651    2.398007    0.676490
     15          6           0       -5.788672    1.844275   -0.373150
     16          6           0       -4.428537    2.157151   -0.280084
     17          6           0       -3.480296    1.149558   -0.079720
     18          6           0       -3.929312   -0.166119    0.023568
     19          6           0       -5.277433   -0.509658   -0.064980
     20          6           0       -6.208040    0.514215   -0.265490
     21          1           0       -6.518439    2.633320   -0.528854
     22          1           0       -4.099965    3.189215   -0.363326
     23          1           0       -2.421134    1.363705   -0.003988
     24          1           0       -5.574573   -1.547724    0.021875
     25          1           0       -7.263690    0.268290   -0.337379
     26          7           0       -2.934786   -1.241429    0.235762
     27          8           0       -3.356032   -2.392729    0.323486
     28          8           0       -1.752862   -0.912595    0.310337
 ---------------------------------------------------------------------

 SCF Done:  E(RHF) =  -868.340264762     A.U. after   16 cycles
 E2 =    -0.2598050530D+01 EUMP2 =    -0.87093831529233D+03

 The electronic state is 1-A.
 Alpha  occ. eigenvalues --  -20.61621 -20.61586 -20.60200 -20.60194 -15.86642
 Alpha  occ. eigenvalues --  -15.85242 -11.31733 -11.30392 -11.28268 -11.28263
 Alpha  occ. eigenvalues --  -11.27952 -11.27220 -11.27205 -11.26945 -11.26865
 Alpha  occ. eigenvalues --  -11.26509 -11.25921 -11.25673  -1.60670  -1.59279
 Alpha  occ. eigenvalues --   -1.40232  -1.38839  -1.19878  -1.18511  -1.09322
 Alpha  occ. eigenvalues --   -1.07927  -1.05239  -1.03868  -0.96205  -0.94812
 Alpha  occ. eigenvalues --   -0.86649  -0.85258  -0.83049  -0.81647  -0.78125
 Alpha  occ. eigenvalues --   -0.76739  -0.72884  -0.71970  -0.71465  -0.70981
 Alpha  occ. eigenvalues --   -0.70599  -0.69588  -0.65535  -0.65236  -0.64145
 Alpha  occ. eigenvalues --   -0.63813  -0.62589  -0.61207  -0.55746  -0.54321
 Alpha  occ. eigenvalues --   -0.53583  -0.53325  -0.52226  -0.51920  -0.49643
 Alpha  occ. eigenvalues --   -0.49599  -0.48235  -0.48196  -0.45695  -0.44293
 Alpha  occ. eigenvalues --   -0.37840  -0.36829  -0.36457  -0.35472
 Alpha virt. eigenvalues --    0.04391   0.05760   0.10829   0.12187   0.15941
 Alpha virt. eigenvalues --    0.17337   0.20984   0.22450   0.26932   0.27696
 Alpha virt. eigenvalues --    0.28465   0.29256   0.30598   0.31849   0.32286

 Mulliken charges:
               1
     1  C   -0.172096
     2  C   -0.220873
     3  C   -0.174643
     4  C    0.158048
     5  C   -0.173275
     6  C   -0.219031
     7  H    0.230304
     8  H    0.243423
     9  H    0.271659
    10  H    0.272276
    11  H    0.220716
    12  N    0.488193
    13  O   -0.462800
    14  O   -0.463549
    15  C   -0.169856
    16  C   -0.218474
    17  C   -0.170396
    18  C    0.157639
    19  C   -0.170501
    20  C   -0.218543
    21  H    0.227896
    22  H    0.226294
    23  H    0.274816
    24  H    0.275907
    25  H    0.225098
    26  N    0.491917
    27  O   -0.458413
    28  O   -0.471734
 Sum of Mulliken charges =  -0.00000

 Dipole moment (field-independent basis, Debye):
    X=             -6.7876    Y=             -0.7000    Z=             -0.8679  Tot=              6.8786
 Quadrupole moment (field-independent basis, Debye-Ang):
   XX=            -96.3716   YY=           -105.1916   ZZ=           -104.8724
   XY=            -33.2696   XZ=              0.1590   YZ=              1.3080

 Normal termination of Gaussian 16 at Fri May  7 01:44:04 2021.
