 Gaussian 16, Revision A.03,
 Gaussian 16:  EM64L-G16RevA.03 25-Dec-2016

 -------------
 #p 6-31g* mp2
 -------------

 ------------------------------------------------------
 Input file generated by CHIRIPA (05-May-2021 14:51:13)
 ------------------------------------------------------
 Symbolic Z-matrix:
 Charge =  0 Multiplicity = 1

                         Standard orientation:
 ---------------------------------------------------------------------
 Center     Atomic      Atomic             Coordinates (Angstroms)
 Number     Number       Type             X           Y           Z
 ---------------------------------------------------------------------
      1          6           0        2.344859   -0.116553   -0.543914
      2          6           0        3.549981   -0.947007   -0.986647
      3          6           0        3.167836   -2.085428   -1.933092
      4          1           0        1.614885   -0.774348   -0.052601
      5          1           0        1.846136    0.295550   -1.432081
      6          1           0        4.047092   -1.356284   -0.097834
      7          1           0        4.277257   -0.287126   -1.476792
      8          1           0        2.691581   -1.691637   -2.836813
      9          1           0        2.460108   -2.766870   -1.450020
     10          1           0        4.044327   -2.666147   -2.237049
     11          6           0        2.710827    1.025375    0.402551
     12          6           0        1.505706    1.855830    0.845285
     13          6           0        1.887850    2.994250    1.791730
     14          1           0        3.209550    0.613272    1.290719
     15          1           0        3.440802    1.683170   -0.088761
     16          1           0        0.778429    1.195948    1.335430
     17          1           0        1.008594    2.265107   -0.043528
     18          1           0        2.595578    3.675692    1.308658
     19          1           0        2.364105    2.600459    2.695450
     20          1           0        1.011359    3.574969    2.095687
     21          6           0       -2.468936   -0.038457   -0.567240
     22          6           0       -3.650798    0.906670   -0.786153
     23          6           0       -3.518439    1.732024   -2.066413
     24          1           0       -1.540377    0.547675   -0.532977
     25          1           0       -2.381891   -0.711706   -1.431274
     26          1           0       -3.736436    1.577021    0.078666
     27          1           0       -4.576671    0.318240   -0.819708
     28          1           0       -3.455796    1.077634   -2.941885
     29          1           0       -2.610788    2.343568   -2.038407
     30          1           0       -4.373988    2.400739   -2.203219
     31          6           0       -2.586751   -0.870365    0.708603
     32          6           0       -1.404888   -1.815492    0.927515
     33          6           0       -1.537248   -2.640846    2.207775
     34          1           0       -2.673796   -0.197117    1.572636
     35          1           0       -3.515309   -1.456498    0.674339
     36          1           0       -0.479017   -1.227062    0.961070
     37          1           0       -1.319251   -2.485843    0.062696
     38          1           0       -2.444899   -3.252389    2.179769
     39          1           0       -1.599890   -1.986456    3.083247
     40          1           0       -0.681698   -3.309561    2.344582
 ---------------------------------------------------------------------

 SCF Done:  E(RHF) =  -470.733154676     A.U. after   11 cycles
 E2 =    -0.1584013266D+01 EUMP2 =    -0.47231716794196D+03

 The electronic state is 1-A.
 Alpha  occ. eigenvalues --  -11.21697 -11.21601 -11.21600 -11.21572 -11.21430
 Alpha  occ. eigenvalues --  -11.21380 -11.21342 -11.21300 -11.21140 -11.21100
 Alpha  occ. eigenvalues --  -11.21060 -11.21057  -1.08481  -1.08397  -1.03566
 Alpha  occ. eigenvalues --   -1.03527  -0.96009  -0.95971  -0.87028  -0.86987
 Alpha  occ. eigenvalues --   -0.79648  -0.79588  -0.78431  -0.78073  -0.65213
 Alpha  occ. eigenvalues --   -0.64944  -0.60980  -0.60912  -0.59382  -0.59342
 Alpha  occ. eigenvalues --   -0.57632  -0.57574  -0.55318  -0.55237  -0.52719
 Alpha  occ. eigenvalues --   -0.52665  -0.52450  -0.52382  -0.49971  -0.49905
 Alpha  occ. eigenvalues --   -0.48020  -0.47899  -0.46787  -0.46667  -0.46252
 Alpha  occ. eigenvalues --   -0.45727  -0.45694  -0.45056  -0.43813  -0.43766
 Alpha virt. eigenvalues --    0.20300   0.23106   0.23710   0.24326   0.24975
 Alpha virt. eigenvalues --    0.26481   0.27013   0.27781   0.27896   0.30145
 Alpha virt. eigenvalues --    0.30740   0.31593   0.31763   0.31896   0.32215

 Mulliken charges:
               1
     1  C   -0.306762
     2  C   -0.299063
     3  C   -0.475767
     4  H    0.158168
     5  H    0.149783
     6  H    0.151694
     7  H    0.151841
     8  H    0.155288
     9  H    0.155498
    10  H    0.160113
    11  C   -0.297863
    12  C   -0.304448
    13  C   -0.475661
    14  H    0.149397
    15  H    0.149899
    16  H    0.154754
    17  H    0.152379
    18  H    0.155685
    19  H    0.155502
    20  H    0.160227
    21  C   -0.302263
    22  C   -0.299489
    23  C   -0.475587
    24  H    0.154409
    25  H    0.149276
    26  H    0.151794
    27  H    0.151760
    28  H    0.155115
    29  H    0.154838
    30  H    0.160140
    31  C   -0.297163
    32  C   -0.310358
    33  C   -0.475055
    34  H    0.149038
    35  H    0.149627
    36  H    0.161158
    37  H    0.151971
    38  H    0.155548
    39  H    0.154915
    40  H    0.159662
 Sum of Mulliken charges =  -0.00000

 Dipole moment (field-independent basis, Debye):
    X=              0.0219    Y=              0.0051    Z=             -0.0017  Tot=              0.0225
 Quadrupole moment (field-independent basis, Debye-Ang):
   XX=            -84.6101   YY=            -85.0619   ZZ=            -85.1562
   XY=              0.4027   XZ=              0.0429   YZ=             -0.0867

 Normal termination of Gaussian 16 at Wed May  5 15:20:46 2021.
