 Gaussian 16, Revision A.03,
 Gaussian 16:  EM64L-G16RevA.03 25-Dec-2016

 -------------
 #p 6-31g* mp2
 -------------

 ------------------------------------------------------
 Input file generated by CHIRIPA (05-May-2021 14:51:10)
 ------------------------------------------------------
 Symbolic Z-matrix:
 Charge =  0 Multiplicity = 1

                         Standard orientation:
 ---------------------------------------------------------------------
 Center     Atomic      Atomic             Coordinates (Angstroms)
 Number     Number       Type             X           Y           Z
 ---------------------------------------------------------------------
      1          6           0       -3.520247    0.809119   -0.314968
      2          6           0       -3.553843    2.076383    0.539958
      3          6           0       -3.195152    3.333796   -0.252537
      4          1           0       -2.518648    0.695640   -0.751851
      5          1           0       -4.217153    0.924427   -1.156645
      6          1           0       -2.858106    1.958168    1.380547
      7          1           0       -4.555424    2.186755    0.975011
      8          1           0       -3.895132    3.479351   -1.081658
      9          1           0       -2.188170    3.249465   -0.673818
     10          1           0       -3.225365    4.227933    0.377912
     11          6           0       -3.876591   -0.456262    0.463209
     12          6           0       -3.842995   -1.723526   -0.391717
     13          6           0       -4.201686   -2.980938    0.400778
     14          1           0       -3.179685   -0.571569    1.304886
     15          1           0       -4.878190   -0.342783    0.900092
     16          1           0       -2.841415   -1.833898   -0.826770
     17          1           0       -4.538733   -1.605311   -1.232306
     18          1           0       -5.208668   -2.896607    0.822059
     19          1           0       -3.501706   -3.126493    1.229899
     20          1           0       -4.171473   -3.875075   -0.229672
     21          6           0        3.105144   -0.597126   -0.307510
     22          6           0        1.754702    0.086947   -0.092259
     23          6           0        0.577531   -0.767104   -0.564126
     24          1           0        3.224503   -0.831256   -1.374225
     25          1           0        3.110842   -1.557775    0.225892
     26          1           0        1.752058    1.046656   -0.624769
     27          1           0        1.638628    0.319648    0.974041
     28          1           0        0.551944   -1.719501   -0.024790
     29          1           0        0.666018   -0.988364   -1.632684
     30          1           0       -0.377997   -0.258994   -0.400872
     31          6           0        4.291693    0.244269    0.159269
     32          6           0        5.642136   -0.439804   -0.055983
     33          6           0        6.819308    0.414246    0.415886
     34          1           0        4.285996    1.204918   -0.374133
     35          1           0        4.172336    0.478399    1.225984
     36          1           0        5.758210   -0.672505   -1.122281
     37          1           0        5.644781   -1.399513    0.476529
     38          1           0        6.730820    0.635506    1.484444
     39          1           0        6.844895    1.366644   -0.123451
     40          1           0        7.774835   -0.093863    0.252630
 ---------------------------------------------------------------------

 SCF Done:  E(RHF) =  -470.733286359     A.U. after   11 cycles
 E2 =    -0.1582883730D+01 EUMP2 =    -0.47231617008832D+03

 The electronic state is 1-A.
 Alpha  occ. eigenvalues --  -11.21674 -11.21628 -11.21595 -11.21537 -11.21448
 Alpha  occ. eigenvalues --  -11.21387 -11.21379 -11.21319 -11.21149 -11.21092
 Alpha  occ. eigenvalues --  -11.21067 -11.21027  -1.08478  -1.08407  -1.03581
 Alpha  occ. eigenvalues --   -1.03500  -0.96040  -0.95949  -0.87053  -0.86970
 Alpha  occ. eigenvalues --   -0.79647  -0.79562  -0.78289  -0.78218  -0.65105
 Alpha  occ. eigenvalues --   -0.65076  -0.60981  -0.60892  -0.59411  -0.59320
 Alpha  occ. eigenvalues --   -0.57679  -0.57536  -0.55315  -0.55252  -0.52766
 Alpha  occ. eigenvalues --   -0.52628  -0.52478  -0.52347  -0.49978  -0.49888
 Alpha  occ. eigenvalues --   -0.47986  -0.47867  -0.46675  -0.46591  -0.45827
 Alpha  occ. eigenvalues --   -0.45762  -0.45752  -0.45691  -0.43798  -0.43730
 Alpha virt. eigenvalues --    0.20626   0.23010   0.24115   0.24703   0.25958
 Alpha virt. eigenvalues --    0.26608   0.27252   0.27447   0.27817   0.28999
 Alpha virt. eigenvalues --    0.30631   0.31371   0.31712   0.31927   0.32208

 Mulliken charges:
               1
     1  C   -0.305072
     2  C   -0.299550
     3  C   -0.475644
     4  H    0.154844
     5  H    0.149997
     6  H    0.151768
     7  H    0.152100
     8  H    0.155224
     9  H    0.155014
    10  H    0.160265
    11  C   -0.298129
    12  C   -0.302309
    13  C   -0.475573
    14  H    0.149547
    15  H    0.149644
    16  H    0.155704
    17  H    0.151572
    18  H    0.154864
    19  H    0.155069
    20  H    0.160160
    21  C   -0.298631
    22  C   -0.299394
    23  C   -0.484365
    24  H    0.149847
    25  H    0.149671
    26  H    0.151981
    27  H    0.151927
    28  H    0.155562
    29  H    0.155733
    30  H    0.167712
    31  C   -0.298282
    32  C   -0.299680
    33  C   -0.475735
    34  H    0.149640
    35  H    0.149698
    36  H    0.152021
    37  H    0.151981
    38  H    0.155215
    39  H    0.155249
    40  H    0.160356
 Sum of Mulliken charges =  -0.00000

 Dipole moment (field-independent basis, Debye):
    X=              0.0246    Y=             -0.0033    Z=             -0.0081  Tot=              0.0261
 Quadrupole moment (field-independent basis, Debye-Ang):
   XX=            -84.7829   YY=            -85.8602   ZZ=            -84.1282
   XY=             -0.8267   XZ=              0.0151   YZ=             -0.1375

 Normal termination of Gaussian 16 at Wed May  5 19:46:44 2021.
