 Gaussian 16, Revision A.03,
 Gaussian 16:  EM64L-G16RevA.03 25-Dec-2016

 -------------
 #p 6-31g* mp2
 -------------

 ------------------------------------------------------
 Input file generated by CHIRIPA (05-May-2021 14:57:24)
 ------------------------------------------------------
 Symbolic Z-matrix:
 Charge =  0 Multiplicity = 1

                         Standard orientation:
 ---------------------------------------------------------------------
 Center     Atomic      Atomic             Coordinates (Angstroms)
 Number     Number       Type             X           Y           Z
 ---------------------------------------------------------------------
      1          6           0       -3.712977    2.499260   -0.424001
      2          6           0       -4.762981    1.624458   -0.126120
      3          6           0       -4.533393    0.249392   -0.021081
      4          6           0       -3.235602   -0.218674   -0.220938
      5          6           0       -2.168649    0.627533   -0.518987
      6          6           0       -2.421439    1.998888   -0.619140
      7          1           0       -3.900338    3.566003   -0.503700
      8          1           0       -5.767023    2.010235    0.025930
      9          1           0       -5.327910   -0.450245    0.208414
     10          1           0       -1.178490    0.213279   -0.665261
     11          1           0       -1.604068    2.675924   -0.850595
     12          7           0       -2.980267   -1.672430   -0.112324
     13          8           0       -1.827861   -2.059730   -0.292869
     14          8           0       -3.937375   -2.397057    0.151296
     15          6           0        5.305667    0.236708   -1.239957
     16          6           0        5.072689    1.149602   -0.206098
     17          6           0        3.952280    1.016608    0.619460
     18          6           0        3.081627   -0.045829    0.381803
     19          6           0        3.286423   -0.971643   -0.640066
     20          6           0        4.413365   -0.819140   -1.453265
     21          1           0        6.178566    0.347599   -1.876469
     22          1           0        5.763963    1.970556   -0.038114
     23          1           0        3.747802    1.708980    1.427066
     24          1           0        2.579422   -1.779808   -0.783027
     25          1           0        4.591772   -1.529611   -2.255416
     26          7           0        1.892042   -0.196952    1.249242
     27          8           0        1.140112   -1.141574    1.019187
     28          8           0        1.734102    0.632083    2.142771
 ---------------------------------------------------------------------

 SCF Done:  E(RHF) =  -868.337100765     A.U. after   16 cycles
 E2 =    -0.2600249145D+01 EUMP2 =    -0.87093734990954D+03

 The electronic state is 1-A.
 Alpha  occ. eigenvalues --  -20.60768 -20.60676 -20.59794 -20.59704 -15.85740
 Alpha  occ. eigenvalues --  -15.84802 -11.31188 -11.30310 -11.27796 -11.27708
 Alpha  occ. eigenvalues --  -11.27524 -11.26951 -11.26865 -11.26812 -11.26760
 Alpha  occ. eigenvalues --  -11.26742 -11.26006 -11.25972  -1.59808  -1.58824
 Alpha  occ. eigenvalues --   -1.39346  -1.38367  -1.19373  -1.18514  -1.08758
 Alpha  occ. eigenvalues --   -1.07895  -1.04774  -1.03948  -0.95571  -0.94700
 Alpha  occ. eigenvalues --   -0.86168  -0.85340  -0.82385  -0.81531  -0.77428
 Alpha  occ. eigenvalues --   -0.76539  -0.71940  -0.71187  -0.70984  -0.70462
 Alpha  occ. eigenvalues --   -0.70136  -0.69642  -0.65010  -0.64769  -0.64174
 Alpha  occ. eigenvalues --   -0.63973  -0.62106  -0.61292  -0.55274  -0.54478
 Alpha  occ. eigenvalues --   -0.53120  -0.52855  -0.52261  -0.52058  -0.48744
 Alpha  occ. eigenvalues --   -0.48708  -0.47816  -0.47762  -0.44715  -0.43718
 Alpha  occ. eigenvalues --   -0.37372  -0.36519  -0.36388  -0.35547
 Alpha virt. eigenvalues --    0.05054   0.06012   0.11260   0.12105   0.16518
 Alpha virt. eigenvalues --    0.17450   0.21417   0.22130   0.27347   0.27890
 Alpha virt. eigenvalues --    0.28329   0.29026   0.30921   0.31630   0.32528

 Mulliken charges:
               1
     1  C   -0.171036
     2  C   -0.219060
     3  C   -0.171220
     4  C    0.157790
     5  C   -0.165620
     6  C   -0.217943
     7  H    0.222172
     8  H    0.220329
     9  H    0.273670
    10  H    0.278704
    11  H    0.219755
    12  N    0.487654
    13  O   -0.451281
    14  O   -0.466504
    15  C   -0.171123
    16  C   -0.218927
    17  C   -0.172495
    18  C    0.155082
    19  C   -0.173291
    20  C   -0.218944
    21  H    0.225534
    22  H    0.222719
    23  H    0.274361
    24  H    0.282993
    25  H    0.224940
    26  N    0.483846
    27  O   -0.447765
    28  O   -0.464341
 Sum of Mulliken charges =  -0.00000

 Dipole moment (field-independent basis, Debye):
    X=              3.4948    Y=              5.4041    Z=             -3.4152  Tot=              7.2857
 Quadrupole moment (field-independent basis, Debye-Ang):
   XX=            -69.9584   YY=           -104.7542   ZZ=           -106.9776
   XY=            -13.0496   XZ=             -7.2093   YZ=              1.5438

 Normal termination of Gaussian 16 at Fri May  7 11:06:01 2021.
