 Gaussian 16, Revision A.03,
 Gaussian 16:  EM64L-G16RevA.03 25-Dec-2016

 -------------
 #p 6-31g* mp2
 -------------

 ------------------------------------------------------
 Input file generated by CHIRIPA (05-May-2021 14:53:18)
 ------------------------------------------------------
 Symbolic Z-matrix:
 Charge =  0 Multiplicity = 1

                         Standard orientation:
 ---------------------------------------------------------------------
 Center     Atomic      Atomic             Coordinates (Angstroms)
 Number     Number       Type             X           Y           Z
 ---------------------------------------------------------------------
      1          6           0        1.800685    1.306936    0.311042
      2          6           0        1.168378    2.398546   -0.552995
      3          6           0       -0.124660    2.952124    0.046503
      4          1           0        1.078234    0.490307    0.445678
      5          1           0        2.003742    1.712782    1.311768
      6          1           0        0.967845    1.991163   -1.552215
      7          1           0        1.892487    3.212585   -0.685749
      8          1           0        0.062997    3.384230    1.034769
      9          1           0       -0.866898    2.155868    0.163379
     10          1           0       -0.559741    3.731118   -0.587321
     11          6           0        3.094071    0.743609   -0.275083
     12          6           0        3.726378   -0.348001    0.588954
     13          6           0        5.019416   -0.901579   -0.010544
     14          1           0        2.891014    0.337763   -1.275809
     15          1           0        3.816522    1.560238   -0.409719
     16          1           0        3.002269   -1.162040    0.721707
     17          1           0        3.926911    0.059383    1.588174
     18          1           0        5.761654   -0.105323   -0.127420
     19          1           0        4.831759   -1.333685   -0.998810
     20          1           0        5.454497   -1.680573    0.623280
     21          6           0       -3.473742    1.164494    0.238499
     22          6           0       -2.998471    0.497831    1.372604
     23          6           0       -2.132724   -0.592420    1.244605
     24          6           0       -1.761032   -0.991011   -0.038461
     25          6           0       -2.217531   -0.347292   -1.187603
     26          6           0       -3.082446    0.740554   -1.035739
     27          1           0       -4.145952    2.010494    0.347201
     28          1           0       -3.300677    0.824868    2.363444
     29          1           0       -1.749762   -1.126616    2.105648
     30          1           0       -1.898573   -0.696489   -2.162152
     31          1           0       -3.449973    1.256398   -1.918277
     32          7           0       -0.844945   -2.143937   -0.186600
     33          8           0       -0.532430   -2.475518   -1.328102
     34          8           0       -0.456777   -2.694189    0.841594
 ---------------------------------------------------------------------

 SCF Done:  E(RHF) =  -669.534351626     A.U. after   15 cycles
 E2 =    -0.2095451278D+01 EUMP2 =    -0.67162980290397D+03

 The electronic state is 1-A.
 Alpha  occ. eigenvalues --  -20.60951 -20.60941 -15.85997 -11.31373 -11.27921
 Alpha  occ. eigenvalues --  -11.27914 -11.27603 -11.26899 -11.26888 -11.21475
 Alpha  occ. eigenvalues --  -11.21140 -11.20975 -11.20919 -11.20912 -11.20462
 Alpha  occ. eigenvalues --   -1.60022  -1.39573  -1.19550  -1.08930  -1.08081
 Alpha  occ. eigenvalues --   -1.04922  -1.03167  -0.95759  -0.95638  -0.86667
 Alpha  occ. eigenvalues --   -0.86312  -0.82576  -0.79264  -0.77876  -0.77633
 Alpha  occ. eigenvalues --   -0.72206  -0.71355  -0.70610  -0.65168  -0.64904
 Alpha  occ. eigenvalues --   -0.64724  -0.62257  -0.60620  -0.59039  -0.57274
 Alpha  occ. eigenvalues --   -0.55399  -0.55166  -0.53298  -0.52994  -0.52334
 Alpha  occ. eigenvalues --   -0.51945  -0.49514  -0.48971  -0.48965  -0.47517
 Alpha  occ. eigenvalues --   -0.46217  -0.45405  -0.45333  -0.44928  -0.43439
 Alpha  occ. eigenvalues --   -0.37435  -0.36532
 Alpha virt. eigenvalues --    0.04878   0.11095   0.16363   0.21283   0.22974
 Alpha virt. eigenvalues --    0.24694   0.26652   0.27136   0.27761   0.28101
 Alpha virt. eigenvalues --    0.28520   0.30959   0.31786   0.31976   0.32368

 Mulliken charges:
               1
     1  C   -0.298637
     2  C   -0.297708
     3  C   -0.484522
     4  H    0.147263
     5  H    0.147801
     6  H    0.149609
     7  H    0.150976
     8  H    0.151036
     9  H    0.169034
    10  H    0.152565
    11  C   -0.298547
    12  C   -0.302712
    13  C   -0.475677
    14  H    0.152607
    15  H    0.147094
    16  H    0.163850
    17  H    0.148409
    18  H    0.151515
    19  H    0.157786
    20  H    0.160732
    21  C   -0.172884
    22  C   -0.216973
    23  C   -0.171715
    24  C    0.159145
    25  C   -0.172210
    26  C   -0.216685
    27  H    0.227051
    28  H    0.224831
    29  H    0.276760
    30  H    0.276241
    31  H    0.224664
    32  N    0.489268
    33  O   -0.459930
    34  O   -0.460038
 Sum of Mulliken charges =  -0.00000

 Dipole moment (field-independent basis, Debye):
    X=             -3.3830    Y=              3.8611    Z=              0.5286  Tot=              5.1606
 Quadrupole moment (field-independent basis, Debye-Ang):
   XX=            -84.5382   YY=           -103.7942   ZZ=            -89.6518
   XY=             -3.6845   XZ=             -0.1537   YZ=             -1.0343

 Normal termination of Gaussian 16 at Thu May  6 12:21:55 2021.
