 Gaussian 16, Revision A.03,
 Gaussian 16:  EM64L-G16RevA.03 25-Dec-2016

 -------------
 #p 6-31g* mp2
 -------------

 ------------------------------------------------------
 Input file generated by CHIRIPA (05-May-2021 14:53:16)
 ------------------------------------------------------
 Symbolic Z-matrix:
 Charge =  0 Multiplicity = 1

                         Standard orientation:
 ---------------------------------------------------------------------
 Center     Atomic      Atomic             Coordinates (Angstroms)
 Number     Number       Type             X           Y           Z
 ---------------------------------------------------------------------
      1          6           0       -4.769175   -0.366849   -0.467144
      2          6           0       -5.222448   -1.401705    0.563198
      3          6           0       -6.172828   -2.444866   -0.025348
      4          1           0       -5.652073    0.134653   -0.886588
      5          1           0       -4.276498   -0.883067   -1.302718
      6          1           0       -5.712894   -0.883573    1.397235
      7          1           0       -4.338358   -1.900667    0.980377
      8          1           0       -5.689667   -2.987736   -0.844156
      9          1           0       -7.072013   -1.964863   -0.424930
     10          1           0       -6.484329   -3.174752    0.728372
     11          6           0       -3.818673    0.682729    0.106144
     12          6           0       -3.365401    1.717585   -0.924198
     13          6           0       -2.415021    2.760746   -0.335652
     14          1           0       -4.311351    1.198947    0.941718
     15          1           0       -2.935776    0.181227    0.525588
     16          1           0       -4.249491    2.216547   -1.341377
     17          1           0       -2.874955    1.199453   -1.758235
     18          1           0       -1.515836    2.280743    0.063930
     19          1           0       -2.898182    3.303616    0.483157
     20          1           0       -2.103520    3.490632   -1.089372
     21          6           0        1.357813    0.666916    1.465428
     22          6           0        1.294416    0.611797    0.069196
     23          6           0        2.394704    0.175527   -0.674836
     24          6           0        3.547673   -0.199795    0.012976
     25          6           0        3.641722   -0.156012    1.403131
     26          6           0        2.529199    0.283511    2.126773
     27          1           0        0.498331    1.007085    2.035490
     28          1           0        0.386007    0.908936   -0.447086
     29          1           0        2.372875    0.123031   -1.756587
     30          1           0        4.561021   -0.458720    1.889623
     31          1           0        2.581291    0.325288    3.211017
     32          7           0        4.718975   -0.663376   -0.763904
     33          8           0        5.723133   -0.988543   -0.134164
     34          8           0        4.610706   -0.692788   -1.987853
 ---------------------------------------------------------------------

 SCF Done:  E(RHF) =  -669.535435784     A.U. after   15 cycles
 E2 =    -0.2091134251D+01 EUMP2 =    -0.67162657003505D+03

 The electronic state is 1-A.
 Alpha  occ. eigenvalues --  -20.60749 -20.60744 -15.85802 -11.31167 -11.27737
 Alpha  occ. eigenvalues --  -11.27732 -11.27477 -11.26752 -11.26726 -11.22560
 Alpha  occ. eigenvalues --  -11.22270 -11.22245 -11.22169 -11.22039 -11.21517
 Alpha  occ. eigenvalues --   -1.59825  -1.39378  -1.19340  -1.09219  -1.08736
 Alpha  occ. eigenvalues --   -1.04745  -1.04316  -0.96775  -0.95570  -0.87791
 Alpha  occ. eigenvalues --   -0.86145  -0.82402  -0.80385  -0.79001  -0.77452
 Alpha  occ. eigenvalues --   -0.72022  -0.71148  -0.70450  -0.65884  -0.64993
 Alpha  occ. eigenvalues --   -0.64766  -0.62177  -0.61636  -0.60146  -0.58363
 Alpha  occ. eigenvalues --   -0.56089  -0.55239  -0.53454  -0.53222  -0.53068
 Alpha  occ. eigenvalues --   -0.52813  -0.50713  -0.48792  -0.48776  -0.48679
 Alpha  occ. eigenvalues --   -0.47422  -0.46548  -0.46451  -0.44784  -0.44553
 Alpha  occ. eigenvalues --   -0.37321  -0.36346
 Alpha virt. eigenvalues --    0.05085   0.11281   0.16579   0.18729   0.22585
 Alpha virt. eigenvalues --    0.23741   0.25333   0.26296   0.27040   0.27785
 Alpha virt. eigenvalues --    0.28787   0.30103   0.30958   0.31427   0.31723

 Mulliken charges:
               1
     1  C   -0.298759
     2  C   -0.300204
     3  C   -0.476183
     4  H    0.151867
     5  H    0.150861
     6  H    0.152300
     7  H    0.151746
     8  H    0.156440
     9  H    0.156168
    10  H    0.161798
    11  C   -0.298046
    12  C   -0.301419
    13  C   -0.478983
    14  H    0.151219
    15  H    0.143777
    16  H    0.157255
    17  H    0.151553
    18  H    0.143805
    19  H    0.159736
    20  H    0.165586
    21  C   -0.172685
    22  C   -0.223501
    23  C   -0.171354
    24  C    0.158807
    25  C   -0.171179
    26  C   -0.218553
    27  H    0.226188
    28  H    0.229930
    29  H    0.275770
    30  H    0.275563
    31  H    0.223447
    32  N    0.487959
    33  O   -0.460449
    34  O   -0.460460
 Sum of Mulliken charges =  -0.00000

 Dipole moment (field-independent basis, Debye):
    X=             -4.3509    Y=              1.6489    Z=              2.7068  Tot=              5.3829
 Quadrupole moment (field-independent basis, Debye-Ang):
   XX=           -122.1507   YY=            -96.2164   ZZ=            -91.1972
   XY=              5.0814   XZ=             11.9969   YZ=             -1.3338

 Normal termination of Gaussian 16 at Wed May  5 20:21:14 2021.
