 Gaussian 16, Revision A.03,
 Gaussian 16:  EM64L-G16RevA.03 25-Dec-2016

 -------------
 #p 6-31g* mp2
 -------------

 ------------------------------------------------------
 Input file generated by CHIRIPA (05-May-2021 14:55:21)
 ------------------------------------------------------
 Symbolic Z-matrix:
 Charge =  0 Multiplicity = 1

                         Standard orientation:
 ---------------------------------------------------------------------
 Center     Atomic      Atomic             Coordinates (Angstroms)
 Number     Number       Type             X           Y           Z
 ---------------------------------------------------------------------
      1          6           0       -5.610724   -0.296841   -1.182421
      2          6           0       -5.553490   -0.778021    0.129719
      3          6           0       -4.357800   -0.728724    0.852521
      4          6           0       -3.233475   -0.189300    0.229461
      5          6           0       -3.258683    0.298122   -1.076324
      6          6           0       -4.465158    0.238751   -1.780201
      7          1           0       -6.543754   -0.339048   -1.736560
      8          1           0       -6.441576   -1.194504    0.596504
      9          1           0       -4.285418   -1.094169    1.869689
     10          1           0       -2.356797    0.707640   -1.514860
     11          1           0       -4.506664    0.613182   -2.799084
     12          7           0       -1.961943   -0.131780    0.984641
     13          8           0       -0.985424    0.348227    0.413115
     14          8           0       -1.965911   -0.567791    2.133778
     15          6           0        5.075242   -0.079817    0.024589
     16          6           0        5.259236   -1.428746   -0.671489
     17          6           0        6.600701   -2.085060   -0.343588
     18          1           0        5.894532    0.591206   -0.267704
     19          1           0        5.159493   -0.221188    1.111010
     20          1           0        5.173286   -1.285100   -1.756197
     21          1           0        4.439307   -2.096574   -0.377653
     22          1           0        6.692246   -2.257184    0.733721
     23          1           0        7.430394   -1.441098   -0.652657
     24          1           0        6.711278   -3.048143   -0.851629
     25          6           0        3.738936    0.588695   -0.293383
     26          6           0        3.554942    1.937624    0.402694
     27          6           0        2.213478    2.593938    0.074794
     28          1           0        3.654686    0.730066   -1.379805
     29          1           0        2.919646   -0.082329   -0.001089
     30          1           0        4.374871    2.605452    0.108860
     31          1           0        3.640892    1.793977    1.487404
     32          1           0        1.383784    1.949976    0.383863
     33          1           0        2.121932    2.766061   -1.002514
     34          1           0        2.102900    3.557021    0.582834
 ---------------------------------------------------------------------

 SCF Done:  E(RHF) =  -669.536331541     A.U. after   15 cycles
 E2 =    -0.2090720704D+01 EUMP2 =    -0.67162705224466D+03

 The electronic state is 1-A.
 Alpha  occ. eigenvalues --  -20.60970 -20.60964 -15.86006 -11.31301 -11.27863
 Alpha  occ. eigenvalues --  -11.27856 -11.27599 -11.26866 -11.26856 -11.20909
 Alpha  occ. eigenvalues --  -11.20551 -11.20502 -11.20484 -11.20307 -11.19642
 Alpha  occ. eigenvalues --   -1.60031  -1.39588  -1.19468  -1.08878  -1.07499
 Alpha  occ. eigenvalues --   -1.04861  -1.02582  -0.95725  -0.95021  -0.86263
 Alpha  occ. eigenvalues --   -0.86039  -0.82559  -0.78676  -0.77613  -0.77284
 Alpha  occ. eigenvalues --   -0.72234  -0.71343  -0.70577  -0.65126  -0.64864
 Alpha  occ. eigenvalues --   -0.64126  -0.62208  -0.59969  -0.58435  -0.56632
 Alpha  occ. eigenvalues --   -0.55368  -0.54289  -0.53194  -0.52953  -0.51743
 Alpha  occ. eigenvalues --   -0.51439  -0.49115  -0.48981  -0.48815  -0.46970
 Alpha  occ. eigenvalues --   -0.45703  -0.45001  -0.44832  -0.44708  -0.42848
 Alpha  occ. eigenvalues --   -0.37447  -0.36461
 Alpha virt. eigenvalues --    0.04911   0.11194   0.16408   0.21317   0.23771
 Alpha virt. eigenvalues --    0.25292   0.27249   0.27554   0.28090   0.28463
 Alpha virt. eigenvalues --    0.29050   0.30894   0.32229   0.32467   0.32665

 Mulliken charges:
               1
     1  C   -0.170526
     2  C   -0.218642
     3  C   -0.170452
     4  C    0.157407
     5  C   -0.170694
     6  C   -0.218584
     7  H    0.226029
     8  H    0.223811
     9  H    0.275815
    10  H    0.276346
    11  H    0.223957
    12  N    0.493774
    13  O   -0.465496
    14  O   -0.459123
    15  C   -0.297743
    16  C   -0.299169
    17  C   -0.475190
    18  H    0.146571
    19  H    0.149635
    20  H    0.149638
    21  H    0.153307
    22  H    0.155070
    23  H    0.153636
    24  H    0.157964
    25  C   -0.299855
    26  C   -0.297687
    27  C   -0.488122
    28  H    0.144897
    29  H    0.159985
    30  H    0.145696
    31  H    0.151956
    32  H    0.185860
    33  H    0.146412
    34  H    0.153515
 Sum of Mulliken charges =  -0.00000

 Dipole moment (field-independent basis, Debye):
    X=             -4.8324    Y=             -0.2991    Z=             -2.5827  Tot=              5.4874
 Quadrupole moment (field-independent basis, Debye-Ang):
   XX=            -67.1098   YY=            -95.3187   ZZ=            -92.5386
   XY=              3.1188   XZ=              5.5330   YZ=             -1.7593

 Normal termination of Gaussian 16 at Thu May  6 19:09:21 2021.
