 Gaussian 16, Revision A.03,
 Gaussian 16:  EM64L-G16RevA.03 25-Dec-2016

 -------------
 #p 6-31g* mp2
 -------------

 ------------------------------------------------------
 Input file generated by CHIRIPA (05-May-2021 14:51:10)
 ------------------------------------------------------
 Symbolic Z-matrix:
 Charge =  0 Multiplicity = 1

                         Standard orientation:
 ---------------------------------------------------------------------
 Center     Atomic      Atomic             Coordinates (Angstroms)
 Number     Number       Type             X           Y           Z
 ---------------------------------------------------------------------
      1          6           0        3.417615    0.729125    0.347779
      2          6           0        3.325491    2.093499   -0.336314
      3          6           0        3.869940    3.228133    0.532004
      4          1           0        2.865317    0.763868    1.296834
      5          1           0        4.466540    0.525197    0.603836
      6          1           0        2.277235    2.294182   -0.592248
      7          1           0        3.877912    2.055448   -1.283942
      8          1           0        4.922890    3.054789    0.776643
      9          1           0        3.313119    3.294880    1.472268
     10          1           0        3.794382    4.194426    0.023644
     11          6           0        2.877211   -0.415282   -0.507806
     12          6           0        2.969335   -1.779655    0.176287
     13          6           0        2.424887   -2.914290   -0.692031
     14          1           0        1.828287   -0.211353   -0.763863
     15          1           0        3.429509   -0.450024   -1.456861
     16          1           0        2.416915   -1.741604    1.123915
     17          1           0        4.017591   -1.980338    0.432221
     18          1           0        2.981708   -2.981036   -1.632295
     19          1           0        1.371937   -2.740946   -0.936670
     20          1           0        2.500444   -3.880582   -0.183671
     21          6           0       -2.861501   -0.808199   -0.198418
     22          6           0       -2.321098   -1.744429    0.882981
     23          6           0       -1.752494   -3.043112    0.310350
     24          1           0       -3.640523   -1.330330   -0.770648
     25          1           0       -2.055585   -0.575210   -0.908074
     26          1           0       -3.127432   -1.974478    1.591161
     27          1           0       -1.543404   -1.219944    1.452826
     28          1           0       -0.930172   -2.831853   -0.380850
     29          1           0       -2.523199   -3.590674   -0.241729
     30          1           0       -1.371743   -3.697545    1.100670
     31          6           0       -3.433326    0.494355    0.358445
     32          6           0       -3.973728    1.430586   -0.722953
     33          6           0       -4.542332    2.729268   -0.150322
     34          1           0       -4.239241    0.261367    1.068101
     35          1           0       -2.654303    1.016486    0.930675
     36          1           0       -4.751421    0.906100   -1.292799
     37          1           0       -3.167394    1.660634   -1.431134
     38          1           0       -3.771627    3.276830    0.401757
     39          1           0       -5.364655    2.518009    0.540877
     40          1           0       -4.923083    3.383701   -0.940642
 ---------------------------------------------------------------------

 SCF Done:  E(RHF) =  -470.733259448     A.U. after   11 cycles
 E2 =    -0.1582622881D+01 EUMP2 =    -0.47231588232922D+03

 The electronic state is 1-A.
 Alpha  occ. eigenvalues --  -11.21640 -11.21636 -11.21630 -11.21617 -11.21446
 Alpha  occ. eigenvalues --  -11.21441 -11.21387 -11.21382 -11.21099 -11.21094
 Alpha  occ. eigenvalues --  -11.21078 -11.21055  -1.08471  -1.08456  -1.03576
 Alpha  occ. eigenvalues --   -1.03536  -0.96039  -0.95971  -0.87068  -0.86975
 Alpha  occ. eigenvalues --   -0.79661  -0.79577  -0.78291  -0.78263  -0.65164
 Alpha  occ. eigenvalues --   -0.65035  -0.61120  -0.60809  -0.59389  -0.59353
 Alpha  occ. eigenvalues --   -0.57667  -0.57570  -0.55530  -0.55083  -0.52718
 Alpha  occ. eigenvalues --   -0.52670  -0.52515  -0.52348  -0.50178  -0.49717
 Alpha  occ. eigenvalues --   -0.48015  -0.47856  -0.46789  -0.46499  -0.45870
 Alpha  occ. eigenvalues --   -0.45789  -0.45782  -0.45645  -0.43823  -0.43801
 Alpha virt. eigenvalues --    0.20626   0.23335   0.23507   0.25219   0.25872
 Alpha virt. eigenvalues --    0.26657   0.27086   0.27481   0.28085   0.28952
 Alpha virt. eigenvalues --    0.30133   0.31471   0.31678   0.31912   0.32088

 Mulliken charges:
               1
     1  C   -0.298303
     2  C   -0.299607
     3  C   -0.475724
     4  H    0.149498
     5  H    0.149787
     6  H    0.151539
     7  H    0.152097
     8  H    0.155327
     9  H    0.155137
    10  H    0.160352
    11  C   -0.298198
    12  C   -0.299649
    13  C   -0.480547
    14  H    0.148336
    15  H    0.149907
    16  H    0.152059
    17  H    0.152086
    18  H    0.155069
    19  H    0.160026
    20  H    0.160735
    21  C   -0.298347
    22  C   -0.299521
    23  C   -0.481055
    24  H    0.150044
    25  H    0.148821
    26  H    0.152189
    27  H    0.151276
    28  H    0.160346
    29  H    0.155490
    30  H    0.160643
    31  C   -0.298269
    32  C   -0.299699
    33  C   -0.475723
    34  H    0.149742
    35  H    0.149339
    36  H    0.152104
    37  H    0.151901
    38  H    0.155134
    39  H    0.155257
    40  H    0.160402
 Sum of Mulliken charges =  -0.00000

 Dipole moment (field-independent basis, Debye):
    X=             -0.0023    Y=             -0.0137    Z=              0.0000  Tot=              0.0139
 Quadrupole moment (field-independent basis, Debye-Ang):
   XX=            -83.2846   YY=            -86.3518   ZZ=            -84.9619
   XY=              0.3999   XZ=             -0.5108   YZ=             -0.7089

 Normal termination of Gaussian 16 at Thu May  6 00:38:17 2021.
