 Gaussian 16, Revision A.03,
 Gaussian 16:  EM64L-G16RevA.03 25-Dec-2016

 -------------
 #p 6-31g* mp2
 -------------

 ------------------------------------------------------
 Input file generated by CHIRIPA (05-May-2021 14:55:21)
 ------------------------------------------------------
 Symbolic Z-matrix:
 Charge =  0 Multiplicity = 1

                         Standard orientation:
 ---------------------------------------------------------------------
 Center     Atomic      Atomic             Coordinates (Angstroms)
 Number     Number       Type             X           Y           Z
 ---------------------------------------------------------------------
      1          6           0       -1.133390   -2.291119    1.569286
      2          6           0       -1.601680   -2.595415    0.286855
      3          6           0       -2.082391   -1.585320   -0.551699
      4          6           0       -2.080354   -0.275915   -0.073425
      5          6           0       -1.620406    0.059025    1.199191
      6          6           0       -1.144229   -0.967204    2.020566
      7          1           0       -0.761723   -3.082052    2.214022
      8          1           0       -1.594450   -3.622693   -0.066264
      9          1           0       -2.450768   -1.792869   -1.549015
     10          1           0       -1.640123    1.092466    1.523275
     11          1           0       -0.781161   -0.727946    3.016047
     12          7           0       -2.586861    0.801968   -0.952071
     13          8           0       -2.574505    1.947619   -0.507137
     14          8           0       -2.986627    0.480751   -2.069051
     15          6           0        2.767034   -0.138771    0.055117
     16          6           0        3.418882   -0.834816   -1.140124
     17          6           0        3.835596   -2.273177   -0.831481
     18          1           0        3.467048   -0.145566    0.901803
     19          1           0        1.887589   -0.716309    0.372009
     20          1           0        4.296034   -0.255390   -1.455537
     21          1           0        2.717307   -0.826193   -1.984122
     22          1           0        2.966932   -2.871340   -0.537837
     23          1           0        4.554631   -2.297293   -0.006248
     24          1           0        4.299338   -2.751868   -1.699617
     25          6           0        2.344967    1.299892   -0.237865
     26          6           0        1.693118    1.995938    0.957375
     27          6           0        1.276404    3.434300    0.648734
     28          1           0        3.224411    1.877432   -0.554757
     29          1           0        1.644952    1.306688   -1.084551
     30          1           0        2.394694    1.987316    1.801374
     31          1           0        0.815966    1.416512    1.272789
     32          1           0        0.557371    3.458415   -0.176500
     33          1           0        2.145068    4.032462    0.355089
     34          1           0        0.812663    3.912990    1.516869
 ---------------------------------------------------------------------

 SCF Done:  E(RHF) =  -669.535250313     A.U. after   15 cycles
 E2 =    -0.2094050137D+01 EUMP2 =    -0.67162930044936D+03

 The electronic state is 1-A.
 Alpha  occ. eigenvalues --  -20.60910 -20.60905 -15.85956 -11.31326 -11.27899
 Alpha  occ. eigenvalues --  -11.27890 -11.27650 -11.26917 -11.26907 -11.21694
 Alpha  occ. eigenvalues --  -11.21548 -11.21427 -11.21318 -11.21300 -11.20768
 Alpha  occ. eigenvalues --   -1.59979  -1.39532  -1.19516  -1.08900  -1.08444
 Alpha  occ. eigenvalues --   -1.04923  -1.03538  -0.95971  -0.95732  -0.86982
 Alpha  occ. eigenvalues --   -0.86307  -0.82566  -0.79618  -0.78278  -0.77600
 Alpha  occ. eigenvalues --   -0.72172  -0.71305  -0.70618  -0.65175  -0.65114
 Alpha  occ. eigenvalues --   -0.64877  -0.62292  -0.60912  -0.59357  -0.57593
 Alpha  occ. eigenvalues --   -0.55415  -0.55235  -0.53284  -0.52994  -0.52654
 Alpha  occ. eigenvalues --   -0.52395  -0.49898  -0.48933  -0.48926  -0.47933
 Alpha  occ. eigenvalues --   -0.46656  -0.45797  -0.45712  -0.44921  -0.43784
 Alpha  occ. eigenvalues --   -0.37480  -0.36422
 Alpha virt. eigenvalues --    0.04876   0.11085   0.16313   0.20950   0.22870
 Alpha virt. eigenvalues --    0.24039   0.26366   0.26952   0.27537   0.27882
 Alpha virt. eigenvalues --    0.28637   0.30969   0.31532   0.31908   0.32063

 Mulliken charges:
               1
     1  C   -0.171152
     2  C   -0.218671
     3  C   -0.171343
     4  C    0.157773
     5  C   -0.171474
     6  C   -0.216771
     7  H    0.226890
     8  H    0.224303
     9  H    0.276140
    10  H    0.278151
    11  H    0.225528
    12  N    0.487993
    13  O   -0.460257
    14  O   -0.459644
    15  C   -0.301828
    16  C   -0.299455
    17  C   -0.475086
    18  H    0.146799
    19  H    0.150856
    20  H    0.152946
    21  H    0.153532
    22  H    0.150921
    23  H    0.154406
    24  H    0.160854
    25  C   -0.297689
    26  C   -0.304435
    27  C   -0.478682
    28  H    0.150355
    29  H    0.152724
    30  H    0.148224
    31  H    0.147548
    32  H    0.169054
    33  H    0.154381
    34  H    0.157111
 Sum of Mulliken charges =  -0.00000

 Dipole moment (field-independent basis, Debye):
    X=              1.6387    Y=             -3.7861    Z=              3.0244  Tot=              5.1154
 Quadrupole moment (field-independent basis, Debye-Ang):
   XX=           -102.3297   YY=            -91.5879   ZZ=            -92.8781
   XY=              8.9372   XZ=             -5.8062   YZ=              2.0352

 Normal termination of Gaussian 16 at Wed May  5 20:36:18 2021.
