 Gaussian 16, Revision A.03,
 Gaussian 16:  EM64L-G16RevA.03 25-Dec-2016

 -------------
 #p 6-31g* mp2
 -------------

 ------------------------------------------------------
 Input file generated by CHIRIPA (05-May-2021 14:57:25)
 ------------------------------------------------------
 Symbolic Z-matrix:
 Charge =  0 Multiplicity = 1

                         Standard orientation:
 ---------------------------------------------------------------------
 Center     Atomic      Atomic             Coordinates (Angstroms)
 Number     Number       Type             X           Y           Z
 ---------------------------------------------------------------------
      1          6           0        3.079595   -2.239185    1.170632
      2          6           0        2.599390   -1.204617    1.980319
      3          6           0        2.474155    0.092819    1.474824
      4          6           0        2.839952    0.321185    0.149181
      5          6           0        3.321630   -0.688531   -0.682534
      6          6           0        3.438549   -1.978301   -0.155871
      7          1           0        3.173650   -3.244087    1.571534
      8          1           0        2.319866   -1.404305    3.010870
      9          1           0        2.105253    0.912320    2.079594
     10          1           0        3.592319   -0.458716   -1.705925
     11          1           0        3.811782   -2.779813   -0.786997
     12          7           0        2.711774    1.690664   -0.397169
     13          8           0        3.040757    1.865888   -1.568366
     14          8           0        2.284751    2.562906    0.356145
     15          6           0       -4.966170    0.415526    1.054369
     16          6           0       -4.966244   -0.596375    0.088668
     17          6           0       -3.805632   -0.888137   -0.634107
     18          6           0       -2.657565   -0.144880   -0.364286
     19          6           0       -2.625838    0.869363    0.591535
     20          6           0       -3.798026    1.143881    1.302283
     21          1           0       -5.872257    0.635476    1.611166
     22          1           0       -5.871979   -1.163650   -0.105977
     23          1           0       -3.777760   -1.666166   -1.387307
     24          1           0       -1.707574    1.417721    0.763328
     25          1           0       -3.795041    1.930297    2.051674
     26          7           0       -1.422750   -0.444629   -1.123089
     27          8           0       -0.424288    0.224644   -0.866602
     28          8           0       -1.476745   -1.343167   -1.959958
 ---------------------------------------------------------------------

 SCF Done:  E(RHF) =  -868.338464849     A.U. after   16 cycles
 E2 =    -0.2600619342D+01 EUMP2 =    -0.87093908419128D+03

 The electronic state is 1-A.
 Alpha  occ. eigenvalues --  -20.60841 -20.60812 -20.59662 -20.59612 -15.85875
 Alpha  occ. eigenvalues --  -15.84694 -11.31175 -11.30008 -11.27760 -11.27698
 Alpha  occ. eigenvalues --  -11.27490 -11.26764 -11.26727 -11.26684 -11.26563
 Alpha  occ. eigenvalues --  -11.26447 -11.25758 -11.25656  -1.59890  -1.58683
 Alpha  occ. eigenvalues --   -1.39448  -1.38256  -1.19347  -1.18202  -1.08758
 Alpha  occ. eigenvalues --   -1.07624  -1.04739  -1.03656  -0.95603  -0.94474
 Alpha  occ. eigenvalues --   -0.86141  -0.85065  -0.82444  -0.81341  -0.77488
 Alpha  occ. eigenvalues --   -0.76367  -0.72171  -0.71202  -0.70956  -0.70462
 Alpha  occ. eigenvalues --   -0.69872  -0.69410  -0.65003  -0.64742  -0.63913
 Alpha  occ. eigenvalues --   -0.63724  -0.62079  -0.61041  -0.55252  -0.54221
 Alpha  occ. eigenvalues --   -0.53081  -0.52829  -0.51930  -0.51802  -0.48853
 Alpha  occ. eigenvalues --   -0.48843  -0.47703  -0.47681  -0.44857  -0.43688
 Alpha  occ. eigenvalues --   -0.37338  -0.36345  -0.36133  -0.35235
 Alpha virt. eigenvalues --    0.05041   0.06245   0.11310   0.12409   0.16529
 Alpha virt. eigenvalues --    0.17719   0.21436   0.22314   0.27319   0.28035
 Alpha virt. eigenvalues --    0.28408   0.29247   0.30928   0.31715   0.32606

 Mulliken charges:
               1
     1  C   -0.171488
     2  C   -0.219967
     3  C   -0.170151
     4  C    0.177443
     5  C   -0.162993
     6  C   -0.217378
     7  H    0.220568
     8  H    0.216403
     9  H    0.267502
    10  H    0.275121
    11  H    0.220590
    12  N    0.493402
    13  O   -0.459844
    14  O   -0.470223
    15  C   -0.170765
    16  C   -0.218888
    17  C   -0.171135
    18  C    0.157639
    19  C   -0.172246
    20  C   -0.219193
    21  H    0.225508
    22  H    0.222988
    23  H    0.274814
    24  H    0.280823
    25  H    0.224563
    26  N    0.492296
    27  O   -0.463889
    28  O   -0.461499
 Sum of Mulliken charges =  -0.00000

 Dipole moment (field-independent basis, Debye):
    X=             -4.0332    Y=             -3.7000    Z=              4.3558  Tot=              6.9950
 Quadrupole moment (field-independent basis, Debye-Ang):
   XX=            -78.9908   YY=           -106.6035   ZZ=           -102.1347
   XY=            -14.5680   XZ=             -1.1950   YZ=              2.9862

 Normal termination of Gaussian 16 at Wed May  5 21:10:58 2021.
