 Gaussian 16, Revision A.03,
 Gaussian 16:  EM64L-G16RevA.03 25-Dec-2016

 -------------
 #p 6-31g* mp2
 -------------

 ------------------------------------------------------
 Input file generated by CHIRIPA (05-May-2021 14:57:26)
 ------------------------------------------------------
 Symbolic Z-matrix:
 Charge =  0 Multiplicity = 1

                         Standard orientation:
 ---------------------------------------------------------------------
 Center     Atomic      Atomic             Coordinates (Angstroms)
 Number     Number       Type             X           Y           Z
 ---------------------------------------------------------------------
      1          6           0       -5.094113    1.926693    0.643407
      2          6           0       -4.002594    2.196832   -0.188537
      3          6           0       -3.214729    1.154980   -0.686896
      4          6           0       -3.548466   -0.151006   -0.331493
      5          6           0       -4.629610   -0.452307    0.495328
      6          6           0       -5.403592    0.605315    0.982088
      7          1           0       -5.700753    2.742154    1.026039
      8          1           0       -3.759899    3.222057   -0.453222
      9          1           0       -2.364096    1.335740   -1.332781
     10          1           0       -4.846790   -1.484570    0.741670
     11          1           0       -6.250692    0.392548    1.627995
     12          7           0       -2.721737   -1.262315   -0.852944
     13          8           0       -3.036655   -2.404221   -0.525051
     14          8           0       -1.774484   -0.970411   -1.579676
     15          6           0        1.878681   -1.128819    1.624488
     16          6           0        2.930775   -0.457194    2.255786
     17          6           0        3.936936    0.154093    1.501785
     18          6           0        3.859322    0.073870    0.112242
     19          6           0        2.823957   -0.587921   -0.546045
     20          6           0        1.828718   -1.191928    0.228049
     21          1           0        1.101314   -1.600855    2.218019
     22          1           0        2.972152   -0.406579    3.340116
     23          1           0        4.762782    0.680543    1.964654
     24          1           0        2.809837   -0.621472   -1.628678
     25          1           0        1.012837   -1.712841   -0.264936
     26          7           0        4.918718    0.717159   -0.696621
     27          8           0        4.827438    0.632210   -1.919359
     28          8           0        5.820292    1.294138   -0.092555
 ---------------------------------------------------------------------

 SCF Done:  E(RHF) =  -868.339975021     A.U. after   16 cycles
 E2 =    -0.2598403197D+01 EUMP2 =    -0.87093837821857D+03

 The electronic state is 1-A.
 Alpha  occ. eigenvalues --  -20.61712 -20.61703 -20.60277 -20.60266 -15.86729
 Alpha  occ. eigenvalues --  -15.85318 -11.31839 -11.30554 -11.28384 -11.28360
 Alpha  occ. eigenvalues --  -11.28065 -11.27335 -11.27308 -11.27135 -11.26992
 Alpha  occ. eigenvalues --  -11.26780 -11.26161 -11.25866  -1.60779  -1.59353
 Alpha  occ. eigenvalues --   -1.40335  -1.38909  -1.19989  -1.18693  -1.09431
 Alpha  occ. eigenvalues --   -1.08116  -1.05347  -1.04047  -0.96306  -0.94978
 Alpha  occ. eigenvalues --   -0.86757  -0.85453  -0.83142  -0.81793  -0.78221
 Alpha  occ. eigenvalues --   -0.76858  -0.72951  -0.72091  -0.71539  -0.71085
 Alpha  occ. eigenvalues --   -0.70675  -0.69808  -0.65639  -0.65341  -0.64331
 Alpha  occ. eigenvalues --   -0.64005  -0.62692  -0.61372  -0.55853  -0.54572
 Alpha  occ. eigenvalues --   -0.53697  -0.53430  -0.52425  -0.52103  -0.49721
 Alpha  occ. eigenvalues --   -0.49692  -0.48303  -0.48283  -0.45785  -0.44343
 Alpha  occ. eigenvalues --   -0.37956  -0.36940  -0.36693  -0.35652
 Alpha virt. eigenvalues --    0.04260   0.05629   0.10718   0.11990   0.15801
 Alpha virt. eigenvalues --    0.17167   0.20905   0.22243   0.26843   0.27722
 Alpha virt. eigenvalues --    0.28319   0.28975   0.30499   0.31782   0.32075

 Mulliken charges:
               1
     1  C   -0.169928
     2  C   -0.218642
     3  C   -0.170535
     4  C    0.156679
     5  C   -0.171393
     6  C   -0.218748
     7  H    0.227985
     8  H    0.226485
     9  H    0.277221
    10  H    0.275608
    11  H    0.225080
    12  N    0.487308
    13  O   -0.459581
    14  O   -0.464749
    15  C   -0.173888
    16  C   -0.218845
    17  C   -0.173427
    18  C    0.157861
    19  C   -0.173657
    20  C   -0.224456
    21  H    0.224737
    22  H    0.219887
    23  H    0.272611
    24  H    0.277561
    25  H    0.244736
    26  N    0.487938
    27  O   -0.460667
    28  O   -0.463182
 Sum of Mulliken charges =  -0.00000

 Dipole moment (field-independent basis, Debye):
    X=             -7.0578    Y=              1.6534    Z=              4.5983  Tot=              8.5844
 Quadrupole moment (field-independent basis, Debye-Ang):
   XX=           -111.5373   YY=           -104.4810   ZZ=           -101.7558
   XY=            -20.2886   XZ=              5.0605   YZ=             -1.9570

 Normal termination of Gaussian 16 at Wed May  5 21:11:46 2021.
