 Gaussian 16, Revision A.03,
 Gaussian 16:  EM64L-G16RevA.03 25-Dec-2016

 -------------
 #p 6-31g* mp2
 -------------

 ------------------------------------------------------
 Input file generated by CHIRIPA (05-May-2021 14:51:12)
 ------------------------------------------------------
 Symbolic Z-matrix:
 Charge =  0 Multiplicity = 1

                         Standard orientation:
 ---------------------------------------------------------------------
 Center     Atomic      Atomic             Coordinates (Angstroms)
 Number     Number       Type             X           Y           Z
 ---------------------------------------------------------------------
      1          6           0        4.260230   -0.416267   -0.392092
      2          6           0        5.622173   -0.044951    0.195463
      3          6           0        6.742185   -0.072284   -0.845027
      4          1           0        4.321972   -1.417417   -0.840233
      5          1           0        4.019740    0.277730   -1.209361
      6          1           0        5.859395   -0.738588    1.012292
      7          1           0        5.557129    0.955353    0.642427
      8          1           0        6.532029    0.632686   -1.655862
      9          1           0        6.836013   -1.070879   -1.283895
     10          1           0        7.706965    0.196274   -0.403512
     11          6           0        3.130393   -0.393426    0.635856
     12          6           0        1.768450   -0.764741    0.048301
     13          6           0        0.648438   -0.737408    1.088791
     14          1           0        3.370883   -1.087422    1.453125
     15          1           0        3.068651    0.607725    1.083997
     16          1           0        1.833494   -1.765045   -0.398663
     17          1           0        1.531228   -0.071105   -0.768529
     18          1           0        0.554610    0.261187    1.527658
     19          1           0        0.858593   -1.442378    1.899625
     20          1           0       -0.316343   -1.005966    0.647276
     21          6           0       -4.187763   -0.032020   -0.509272
     22          6           0       -4.663162   -1.253931    0.277439
     23          6           0       -5.647873   -2.118082   -0.510839
     24          1           0       -5.058839    0.572217   -0.797491
     25          1           0       -3.716607   -0.366853   -1.443774
     26          1           0       -5.132045   -0.916956    1.210827
     27          1           0       -3.790838   -1.855229    0.563983
     28          1           0       -5.186876   -2.482316   -1.434645
     29          1           0       -6.535704   -1.538711   -0.784127
     30          1           0       -5.974779   -2.986002    0.070286
     31          6           0       -3.202860    0.841712    0.265509
     32          6           0       -2.727461    2.063624   -0.521203
     33          6           0       -1.742750    2.927774    0.267075
     34          1           0       -3.674016    1.176545    1.200010
     35          1           0       -2.331784    0.237475    0.553728
     36          1           0       -3.599785    2.664921   -0.807747
     37          1           0       -2.258578    1.726647   -1.454589
     38          1           0       -0.854919    2.348404    0.540363
     39          1           0       -2.203746    3.292007    1.190881
     40          1           0       -1.415843    3.795694   -0.314050
 ---------------------------------------------------------------------

 SCF Done:  E(RHF) =  -470.733018182     A.U. after   11 cycles
 E2 =    -0.1583135007D+01 EUMP2 =    -0.47231615318955D+03

 The electronic state is 1-A.
 Alpha  occ. eigenvalues --  -11.21678 -11.21625 -11.21581 -11.21563 -11.21448
 Alpha  occ. eigenvalues --  -11.21387 -11.21350 -11.21263 -11.21164 -11.21089
 Alpha  occ. eigenvalues --  -11.21054 -11.21042  -1.08480  -1.08387  -1.03591
 Alpha  occ. eigenvalues --   -1.03493  -0.96040  -0.95947  -0.87062  -0.86963
 Alpha  occ. eigenvalues --   -0.79672  -0.79544  -0.78293  -0.78191  -0.65142
 Alpha  occ. eigenvalues --   -0.65011  -0.61073  -0.60820  -0.59433  -0.59297
 Alpha  occ. eigenvalues --   -0.57693  -0.57522  -0.55370  -0.55198  -0.52794
 Alpha  occ. eigenvalues --   -0.52640  -0.52497  -0.52310  -0.50019  -0.49859
 Alpha  occ. eigenvalues --   -0.47966  -0.47870  -0.46746  -0.46532  -0.45837
 Alpha  occ. eigenvalues --   -0.45776  -0.45713  -0.45632  -0.43780  -0.43734
 Alpha virt. eigenvalues --    0.20570   0.22916   0.23597   0.24964   0.25992
 Alpha virt. eigenvalues --    0.26277   0.27064   0.27248   0.27742   0.29237
 Alpha virt. eigenvalues --    0.30670   0.31651   0.31781   0.32012   0.32281

 Mulliken charges:
               1
     1  C   -0.298347
     2  C   -0.299713
     3  C   -0.475739
     4  H    0.149679
     5  H    0.149686
     6  H    0.151979
     7  H    0.152124
     8  H    0.155255
     9  H    0.155183
    10  H    0.160368
    11  C   -0.298665
    12  C   -0.299982
    13  C   -0.482639
    14  H    0.149754
    15  H    0.149958
    16  H    0.152170
    17  H    0.152228
    18  H    0.157964
    19  H    0.156099
    20  H    0.163879
    21  C   -0.297980
    22  C   -0.299677
    23  C   -0.475652
    24  H    0.149516
    25  H    0.148949
    26  H    0.152122
    27  H    0.151396
    28  H    0.155062
    29  H    0.155206
    30  H    0.160191
    31  C   -0.307054
    32  C   -0.298677
    33  C   -0.479584
    34  H    0.149213
    35  H    0.159091
    36  H    0.151754
    37  H    0.151277
    38  H    0.158688
    39  H    0.155163
    40  H    0.159753
 Sum of Mulliken charges =  -0.00000

 Dipole moment (field-independent basis, Debye):
    X=              0.0453    Y=             -0.0185    Z=              0.0209  Tot=              0.0532
 Quadrupole moment (field-independent basis, Debye-Ang):
   XX=            -85.5575   YY=            -84.0926   ZZ=            -85.2006
   XY=             -1.1301   XZ=             -0.0222   YZ=             -0.3110

 Normal termination of Gaussian 16 at Wed May  5 19:56:10 2021.
