 Gaussian 16, Revision A.03,
 Gaussian 16:  EM64L-G16RevA.03 25-Dec-2016

 -------------
 #p 6-31g* mp2
 -------------

 ------------------------------------------------------
 Input file generated by CHIRIPA (05-May-2021 14:53:17)
 ------------------------------------------------------
 Symbolic Z-matrix:
 Charge =  0 Multiplicity = 1

                         Standard orientation:
 ---------------------------------------------------------------------
 Center     Atomic      Atomic             Coordinates (Angstroms)
 Number     Number       Type             X           Y           Z
 ---------------------------------------------------------------------
      1          6           0       -3.654118   -0.212632   -0.480923
      2          6           0       -4.014058   -1.099709    0.711353
      3          6           0       -5.093160   -2.130055    0.377112
      4          1           0       -4.558453    0.302427   -0.832829
      5          1           0       -3.312544   -0.846632   -1.310843
      6          1           0       -4.353537   -0.464126    1.539245
      7          1           0       -3.108723   -1.612569    1.060582
      8          1           0       -4.760095   -2.788076   -0.432009
      9          1           0       -6.011982   -1.633109    0.049373
     10          1           0       -5.335133   -2.753451    1.243533
     11          6           0       -2.576687    0.822473   -0.162447
     12          6           0       -2.216747    1.709550   -1.354724
     13          6           0       -1.137644    2.739896   -1.020483
     14          1           0       -2.918261    1.456473    0.667472
     15          1           0       -1.672352    0.307414    0.189458
     16          1           0       -3.122081    2.222410   -1.703953
     17          1           0       -1.877267    1.073967   -2.182616
     18          1           0       -0.218823    2.242949   -0.692744
     19          1           0       -1.470710    3.397917   -0.211362
     20          1           0       -0.895671    3.363292   -1.886904
     21          6           0        3.157166   -1.979281   -1.425444
     22          6           0        3.241923   -0.620499   -1.746459
     23          6           0        2.844005    0.352875   -0.825182
     24          6           0        2.363986   -0.069899    0.413419
     25          6           0        2.267515   -1.415967    0.762827
     26          6           0        2.671089   -2.371986   -0.174031
     27          1           0        3.468475   -2.728680   -2.147166
     28          1           0        3.619021   -0.312605   -2.717563
     29          1           0        2.899009    1.411610   -1.047607
     30          1           0        1.887441   -1.692180    1.738875
     31          1           0        2.604154   -3.426519    0.078009
     32          7           0        1.939734    0.951381    1.396983
     33          8           0        1.520352    0.552987    2.481435
     34          8           0        2.034621    2.130916    1.064822
 ---------------------------------------------------------------------

 SCF Done:  E(RHF) =  -669.536039679     A.U. after   15 cycles
 E2 =    -0.2091924917D+01 EUMP2 =    -0.67162796459604D+03

 The electronic state is 1-A.
 Alpha  occ. eigenvalues --  -20.60932 -20.60926 -15.85945 -11.31299 -11.27858
 Alpha  occ. eigenvalues --  -11.27850 -11.27594 -11.26868 -11.26858 -11.21352
 Alpha  occ. eigenvalues --  -11.21149 -11.21101 -11.20939 -11.20918 -11.20337
 Alpha  occ. eigenvalues --   -1.59984  -1.39540  -1.19464  -1.08864  -1.08073
 Alpha  occ. eigenvalues --   -1.04860  -1.03152  -0.95704  -0.95581  -0.86593
 Alpha  occ. eigenvalues --   -0.86260  -0.82531  -0.79214  -0.77872  -0.77580
 Alpha  occ. eigenvalues --   -0.72169  -0.71304  -0.70566  -0.65117  -0.64861
 Alpha  occ. eigenvalues --   -0.64711  -0.62206  -0.60555  -0.58977  -0.57193
 Alpha  occ. eigenvalues --   -0.55362  -0.54875  -0.53191  -0.52949  -0.52287
 Alpha  occ. eigenvalues --   -0.51992  -0.49545  -0.48931  -0.48924  -0.47532
 Alpha  occ. eigenvalues --   -0.46287  -0.45438  -0.45351  -0.44794  -0.43414
 Alpha  occ. eigenvalues --   -0.37442  -0.36460
 Alpha virt. eigenvalues --    0.04931   0.11133   0.16394   0.21294   0.23094
 Alpha virt. eigenvalues --    0.24520   0.26758   0.27180   0.27638   0.28071
 Alpha virt. eigenvalues --    0.28638   0.30659   0.31638   0.32074   0.32278

 Mulliken charges:
               1
     1  C   -0.297955
     2  C   -0.298982
     3  C   -0.475464
     4  H    0.149129
     5  H    0.146248
     6  H    0.154245
     7  H    0.150839
     8  H    0.152870
     9  H    0.155171
    10  H    0.159634
    11  C   -0.296638
    12  C   -0.300361
    13  C   -0.477579
    14  H    0.153804
    15  H    0.147488
    16  H    0.150065
    17  H    0.146419
    18  H    0.160135
    19  H    0.160461
    20  H    0.154613
    21  C   -0.170660
    22  C   -0.218527
    23  C   -0.171956
    24  C    0.157855
    25  C   -0.171373
    26  C   -0.218516
    27  H    0.226047
    28  H    0.224077
    29  H    0.276813
    30  H    0.275940
    31  H    0.223879
    32  N    0.487782
    33  O   -0.458357
    34  O   -0.457145
 Sum of Mulliken charges =  -0.00000

 Dipole moment (field-independent basis, Debye):
    X=              1.6319    Y=             -3.5528    Z=             -3.3407  Tot=              5.1425
 Quadrupole moment (field-independent basis, Debye-Ang):
   XX=            -88.3760   YY=            -92.0481   ZZ=            -95.9677
   XY=             -9.0371   XZ=             -9.1816   YZ=             -3.5504

 Normal termination of Gaussian 16 at Wed May  5 20:24:35 2021.
