 Gaussian 16, Revision A.03,
 Gaussian 16:  EM64L-G16RevA.03 25-Dec-2016

 -------------
 #p 6-31g* mp2
 -------------

 ------------------------------------------------------
 Input file generated by CHIRIPA (05-May-2021 14:55:22)
 ------------------------------------------------------
 Symbolic Z-matrix:
 Charge =  0 Multiplicity = 1

                         Standard orientation:
 ---------------------------------------------------------------------
 Center     Atomic      Atomic             Coordinates (Angstroms)
 Number     Number       Type             X           Y           Z
 ---------------------------------------------------------------------
      1          6           0        2.755079    1.622361   -1.547252
      2          6           0        1.848032    1.866357   -0.510791
      3          6           0        1.532078    0.860761    0.407631
      4          6           0        2.144486   -0.382705    0.259174
      5          6           0        3.052150   -0.656609   -0.762791
      6          6           0        3.353189    0.363875   -1.669728
      7          1           0        2.994727    2.409315   -2.256244
      8          1           0        1.382007    2.842752   -0.413230
      9          1           0        0.833358    1.022474    1.219454
     10          1           0        3.500630   -1.640058   -0.834286
     11          1           0        4.057979    0.171535   -2.473669
     12          7           0        1.817894   -1.455165    1.225387
     13          8           0        2.370999   -2.542107    1.072850
     14          8           0        1.014991   -1.188509    2.116947
     15          6           0       -3.317451   -0.308531   -0.177452
     16          6           0       -2.842829   -1.458875   -1.065948
     17          6           0       -3.861155   -2.595914   -1.155124
     18          1           0       -3.527764   -0.694125    0.829539
     19          1           0       -4.268246    0.079364   -0.568504
     20          1           0       -1.892512   -1.843577   -0.674136
     21          1           0       -2.633439   -1.070463   -2.070889
     22          1           0       -4.808470   -2.233230   -1.567016
     23          1           0       -4.063332   -3.010738   -0.162327
     24          1           0       -3.501550   -3.407629   -1.795173
     25          6           0       -2.310227    0.835764   -0.078371
     26          6           0       -2.784850    1.986109    0.810125
     27          6           0       -1.766524    3.123147    0.899302
     28          1           0       -1.359432    0.447869    0.312681
     29          1           0       -2.099914    1.221359   -1.085362
     30          1           0       -2.994240    1.597695    1.815066
     31          1           0       -3.735168    2.370810    0.418313
     32          1           0       -1.564346    3.537971   -0.093496
     33          1           0       -0.819209    2.760463    1.311194
     34          1           0       -2.126129    3.934863    1.539351
 ---------------------------------------------------------------------

 SCF Done:  E(RHF) =  -669.534683632     A.U. after   15 cycles
 E2 =    -0.2093730672D+01 EUMP2 =    -0.67162841430412D+03

 The electronic state is 1-A.
 Alpha  occ. eigenvalues --  -20.60839 -20.60833 -15.85878 -11.31179 -11.27745
 Alpha  occ. eigenvalues --  -11.27718 -11.27472 -11.26749 -11.26700 -11.21903
 Alpha  occ. eigenvalues --  -11.21817 -11.21464 -11.21407 -11.21263 -11.20827
 Alpha  occ. eigenvalues --   -1.59906  -1.39462  -1.19350  -1.08754  -1.08492
 Alpha  occ. eigenvalues --   -1.04749  -1.03649  -0.96128  -0.95604  -0.87157
 Alpha  occ. eigenvalues --   -0.86149  -0.82440  -0.79743  -0.78298  -0.77459
 Alpha  occ. eigenvalues --   -0.72098  -0.71226  -0.70488  -0.65200  -0.65002
 Alpha  occ. eigenvalues --   -0.64683  -0.62176  -0.60989  -0.59501  -0.57720
 Alpha  occ. eigenvalues --   -0.55447  -0.55251  -0.53108  -0.52899  -0.52796
 Alpha  occ. eigenvalues --   -0.52526  -0.50095  -0.48857  -0.48851  -0.48032
 Alpha  occ. eigenvalues --   -0.46721  -0.45820  -0.45693  -0.44837  -0.43861
 Alpha  occ. eigenvalues --   -0.37323  -0.36288
 Alpha virt. eigenvalues --    0.05011   0.11215   0.16509   0.20020   0.23040
 Alpha virt. eigenvalues --    0.23995   0.25919   0.26166   0.27527   0.28058
 Alpha virt. eigenvalues --    0.29527   0.30516   0.31355   0.31545   0.32499

 Mulliken charges:
               1
     1  C   -0.170998
     2  C   -0.220415
     3  C   -0.174876
     4  C    0.160045
     5  C   -0.170845
     6  C   -0.218449
     7  H    0.225580
     8  H    0.227002
     9  H    0.278999
    10  H    0.275371
    11  H    0.223341
    12  N    0.488728
    13  O   -0.459662
    14  O   -0.462522
    15  C   -0.297942
    16  C   -0.300378
    17  C   -0.475941
    18  H    0.155017
    19  H    0.147791
    20  H    0.156735
    21  H    0.148741
    22  H    0.153190
    23  H    0.158411
    24  H    0.160554
    25  C   -0.304220
    26  C   -0.300236
    27  C   -0.479177
    28  H    0.154962
    29  H    0.146360
    30  H    0.158167
    31  H    0.153557
    32  H    0.152091
    33  H    0.145793
    34  H    0.165226
 Sum of Mulliken charges =  -0.00000

 Dipole moment (field-independent basis, Debye):
    X=              1.0747    Y=              3.7012    Z=             -3.3633  Tot=              5.1153
 Quadrupole moment (field-independent basis, Debye-Ang):
   XX=            -88.2965   YY=            -96.7581   ZZ=            -95.3759
   XY=              4.7985   XZ=             -8.9707   YZ=              3.4031

 Normal termination of Gaussian 16 at Thu May  6 10:56:26 2021.
