 Gaussian 16, Revision A.03,
 Gaussian 16:  EM64L-G16RevA.03 25-Dec-2016

 -------------
 #p 6-31g* mp2
 -------------

 ------------------------------------------------------
 Input file generated by CHIRIPA (05-May-2021 14:55:21)
 ------------------------------------------------------
 Symbolic Z-matrix:
 Charge =  0 Multiplicity = 1

                         Standard orientation:
 ---------------------------------------------------------------------
 Center     Atomic      Atomic             Coordinates (Angstroms)
 Number     Number       Type             X           Y           Z
 ---------------------------------------------------------------------
      1          6           0       -4.879899    1.909612    0.332283
      2          6           0       -5.201457    0.634116    0.807921
      3          6           0       -4.378528   -0.459016    0.520868
      4          6           0       -3.236652   -0.239623   -0.248077
      5          6           0       -2.889378    1.019045   -0.736385
      6          6           0       -3.726919    2.097674   -0.436996
      7          1           0       -5.524845    2.753149    0.560064
      8          1           0       -6.096241    0.485102    1.405584
      9          1           0       -4.603733   -1.457174    0.876369
     10          1           0       -1.990720    1.136382   -1.329735
     11          1           0       -3.474705    3.087118   -0.807717
     12          7           0       -2.357719   -1.389196   -0.558497
     13          8           0       -1.357375   -1.169564   -1.237990
     14          8           0       -2.685799   -2.488096   -0.116433
     15          6           0        3.783559   -0.405956    0.508180
     16          6           0        2.381724    0.201945    0.450727
     17          6           0        1.302688   -0.750677    0.966466
     18          1           0        3.798731   -1.332995   -0.081154
     19          1           0        4.009846   -0.690950    1.544986
     20          1           0        2.158689    0.486976   -0.585434
     21          1           0        2.369936    1.127745    1.040110
     22          1           0        1.497822   -1.026191    2.007915
     23          1           0        1.285374   -1.670601    0.373136
     24          1           0        0.308424   -0.295930    0.916419
     25          6           0        4.873108    0.534365   -0.004076
     26          6           0        6.274943   -0.073536    0.053377
     27          6           0        7.353978    0.879086   -0.462361
     28          1           0        4.646821    0.819358   -1.040882
     29          1           0        4.857934    1.461403    0.585258
     30          1           0        6.286730   -0.999337   -0.536005
     31          1           0        6.497977   -0.358567    1.089537
     32          1           0        7.371292    1.799010    0.130968
     33          1           0        7.158845    1.154600   -1.503811
     34          1           0        8.348243    0.424340   -0.412315
 ---------------------------------------------------------------------

 SCF Done:  E(RHF) =  -669.535647033     A.U. after   15 cycles
 E2 =    -0.2091526036D+01 EUMP2 =    -0.67162717306925D+03

 The electronic state is 1-A.
 Alpha  occ. eigenvalues --  -20.60872 -20.60852 -15.85884 -11.31253 -11.27817
 Alpha  occ. eigenvalues --  -11.27810 -11.27556 -11.26830 -11.26820 -11.21195
 Alpha  occ. eigenvalues --  -11.20905 -11.20842 -11.20751 -11.20726 -11.19951
 Alpha  occ. eigenvalues --   -1.59921  -1.39478  -1.19420  -1.08818  -1.07850
 Alpha  occ. eigenvalues --   -1.04820  -1.02896  -0.95659  -0.95323  -0.86344
 Alpha  occ. eigenvalues --   -0.86220  -0.82487  -0.78985  -0.77660  -0.77535
 Alpha  occ. eigenvalues --   -0.72119  -0.71247  -0.70527  -0.65076  -0.64823
 Alpha  occ. eigenvalues --   -0.64478  -0.62168  -0.60279  -0.58739  -0.56951
 Alpha  occ. eigenvalues --   -0.55323  -0.54598  -0.53149  -0.52912  -0.52036
 Alpha  occ. eigenvalues --   -0.51759  -0.49293  -0.48874  -0.48845  -0.47294
 Alpha  occ. eigenvalues --   -0.46028  -0.45194  -0.45133  -0.44822  -0.43116
 Alpha  occ. eigenvalues --   -0.37399  -0.36422
 Alpha virt. eigenvalues --    0.04983   0.11197   0.16451   0.21326   0.23419
 Alpha virt. eigenvalues --    0.24847   0.27114   0.27300   0.27882   0.28217
 Alpha virt. eigenvalues --    0.28749   0.30796   0.31879   0.32139   0.32318

 Mulliken charges:
               1
     1  C   -0.170695
     2  C   -0.218491
     3  C   -0.170826
     4  C    0.157897
     5  C   -0.171806
     6  C   -0.218440
     7  H    0.225853
     8  H    0.223715
     9  H    0.275877
    10  H    0.276015
    11  H    0.223799
    12  N    0.488177
    13  O   -0.457610
    14  O   -0.459147
    15  C   -0.298219
    16  C   -0.300511
    17  C   -0.469336
    18  H    0.152423
    19  H    0.147804
    20  H    0.152941
    21  H    0.144911
    22  H    0.147065
    23  H    0.170223
    24  H    0.152959
    25  C   -0.297736
    26  C   -0.299334
    27  C   -0.475368
    28  H    0.148937
    29  H    0.147137
    30  H    0.152699
    31  H    0.151223
    32  H    0.153867
    33  H    0.154691
    34  H    0.159305
 Sum of Mulliken charges =  -0.00000

 Dipole moment (field-independent basis, Debye):
    X=             -3.2884    Y=              3.9312    Z=              0.9960  Tot=              5.2211
 Quadrupole moment (field-independent basis, Debye-Ang):
   XX=            -74.6156   YY=            -95.3542   ZZ=            -94.0551
   XY=            -11.2329   XZ=             -4.4851   YZ=             -2.5067

 Normal termination of Gaussian 16 at Wed May  5 23:48:46 2021.
