 Gaussian 16, Revision A.03,
 Gaussian 16:  EM64L-G16RevA.03 25-Dec-2016

 -------------
 #p 6-31g* mp2
 -------------

 ------------------------------------------------------
 Input file generated by CHIRIPA (05-May-2021 14:55:23)
 ------------------------------------------------------
 Symbolic Z-matrix:
 Charge =  0 Multiplicity = 1

                         Standard orientation:
 ---------------------------------------------------------------------
 Center     Atomic      Atomic             Coordinates (Angstroms)
 Number     Number       Type             X           Y           Z
 ---------------------------------------------------------------------
      1          6           0       -1.520859    0.221798   -0.305240
      2          6           0       -2.205280   -0.986212   -0.474939
      3          6           0       -3.596202   -1.038669   -0.344041
      4          6           0       -4.274085    0.141266   -0.041524
      5          6           0       -3.620629    1.360143    0.133472
      6          6           0       -2.229468    1.389063   -0.002110
      7          1           0       -0.440264    0.253406   -0.408744
      8          1           0       -1.657566   -1.894294   -0.710399
      9          1           0       -4.151162   -1.960365   -0.470192
     10          1           0       -4.194024    2.248835    0.367702
     11          1           0       -1.700568    2.328636    0.130228
     12          7           0       -5.746718    0.098192    0.099532
     13          8           0       -6.320796    1.151671    0.366463
     14          8           0       -6.299006   -0.988234   -0.059512
     15          6           0        5.905779   -0.227721    0.244336
     16          6           0        6.723186    0.892630   -0.399594
     17          6           0        8.212977    0.803414   -0.067396
     18          1           0        6.042681   -0.193180    1.333836
     19          1           0        6.299401   -1.197760   -0.089554
     20          1           0        6.327258    1.860284   -0.065674
     21          1           0        6.584170    0.855537   -1.487673
     22          1           0        8.629079   -0.147441   -0.415729
     23          1           0        8.370706    0.863016    1.014348
     24          1           0        8.778440    1.613834   -0.537855
     25          6           0        4.414548   -0.152095   -0.078522
     26          6           0        3.597141   -1.272445    0.565409
     27          6           0        2.107350   -1.183229    0.233210
     28          1           0        4.020925    0.817944    0.255368
     29          1           0        4.277646   -0.186636   -1.168021
     30          1           0        3.736157   -1.235352    1.653487
     31          1           0        3.993069   -2.240100    0.231489
     32          1           0        1.949621   -1.242832   -0.848534
     33          1           0        1.691248   -0.232375    0.581544
     34          1           0        1.541887   -1.993649    0.703669
 ---------------------------------------------------------------------

 SCF Done:  E(RHF) =  -669.535516520     A.U. after   15 cycles
 E2 =    -0.2090991687D+01 EUMP2 =    -0.67162650820755D+03

 The electronic state is 1-A.
 Alpha  occ. eigenvalues --  -20.60684 -20.60679 -15.85738 -11.31076 -11.27652
 Alpha  occ. eigenvalues --  -11.27646 -11.27300 -11.26644 -11.26628 -11.22605
 Alpha  occ. eigenvalues --  -11.22463 -11.22234 -11.22170 -11.22035 -11.21538
 Alpha  occ. eigenvalues --   -1.59761  -1.39315  -1.19244  -1.09225  -1.08634
 Alpha  occ. eigenvalues --   -1.04649  -1.04366  -0.96853  -0.95474  -0.87882
 Alpha  occ. eigenvalues --   -0.86040  -0.82318  -0.80453  -0.78996  -0.77372
 Alpha  occ. eigenvalues --   -0.71955  -0.71084  -0.70343  -0.65848  -0.64892
 Alpha  occ. eigenvalues --   -0.64653  -0.62002  -0.61760  -0.60226  -0.58449
 Alpha  occ. eigenvalues --   -0.56177  -0.55183  -0.53524  -0.53203  -0.52970
 Alpha  occ. eigenvalues --   -0.52735  -0.50785  -0.48772  -0.48712  -0.48679
 Alpha  occ. eigenvalues --   -0.47452  -0.46547  -0.46440  -0.44727  -0.44597
 Alpha  occ. eigenvalues --   -0.37205  -0.36261
 Alpha virt. eigenvalues --    0.05159   0.11387   0.16630   0.20436   0.22205
 Alpha virt. eigenvalues --    0.23719   0.25730   0.25833   0.26686   0.27342
 Alpha virt. eigenvalues --    0.29339   0.29936   0.30558   0.31313   0.32064

 Mulliken charges:
               1
     1  C   -0.176134
     2  C   -0.221800
     3  C   -0.170988
     4  C    0.158066
     5  C   -0.170738
     6  C   -0.220563
     7  H    0.237520
     8  H    0.223497
     9  H    0.275079
    10  H    0.275052
    11  H    0.222800
    12  N    0.488076
    13  O   -0.460821
    14  O   -0.460812
    15  C   -0.298968
    16  C   -0.300148
    17  C   -0.476135
    18  H    0.151138
    19  H    0.151077
    20  H    0.152022
    21  H    0.152417
    22  H    0.156061
    23  H    0.156013
    24  H    0.161739
    25  C   -0.299134
    26  C   -0.299423
    27  C   -0.483360
    28  H    0.148471
    29  H    0.150030
    30  H    0.155965
    31  H    0.155659
    32  H    0.153721
    33  H    0.150755
    34  H    0.163866
 Sum of Mulliken charges =  -0.00000

 Dipole moment (field-independent basis, Debye):
    X=              5.5030    Y=              0.1030    Z=             -0.4670  Tot=              5.5237
 Quadrupole moment (field-independent basis, Debye-Ang):
   XX=           -140.1322   YY=            -89.5102   ZZ=            -94.7150
   XY=             -0.2472   XZ=              1.7230   YZ=              1.4802

 Normal termination of Gaussian 16 at Wed May  5 17:34:02 2021.
