 Gaussian 16, Revision A.03,
 Gaussian 16:  EM64L-G16RevA.03 25-Dec-2016

 -------------
 #p 6-31g* mp2
 -------------

 ------------------------------------------------------
 Input file generated by CHIRIPA (05-May-2021 14:53:15)
 ------------------------------------------------------
 Symbolic Z-matrix:
 Charge =  0 Multiplicity = 1

                         Standard orientation:
 ---------------------------------------------------------------------
 Center     Atomic      Atomic             Coordinates (Angstroms)
 Number     Number       Type             X           Y           Z
 ---------------------------------------------------------------------
      1          6           0       -4.232099   -0.083378   -0.329885
      2          6           0       -5.485046   -0.019696    0.544216
      3          6           0       -6.442099   -1.184986    0.291351
      4          1           0       -4.530411   -0.091914   -1.387184
      5          1           0       -3.711858   -1.033258   -0.144218
      6          1           0       -6.002027    0.930389    0.357974
      7          1           0       -5.183708   -0.011117    1.599554
      8          1           0       -5.948243   -2.140437    0.495853
      9          1           0       -6.771211   -1.193582   -0.752782
     10          1           0       -7.330886   -1.119657    0.926685
     11          6           0       -3.265608    1.074817   -0.088620
     12          6           0       -2.012661    1.011135   -0.962721
     13          6           0       -1.055608    2.176426   -0.709855
     14          1           0       -3.785849    2.024697   -0.274287
     15          1           0       -2.967295    1.083353    0.968679
     16          1           0       -2.313998    1.002556   -2.018059
     17          1           0       -1.495680    0.061051   -0.776478
     18          1           0       -0.726495    2.185022    0.334277
     19          1           0       -1.549463    3.131877   -0.914358
     20          1           0       -0.166821    2.111096   -1.345190
     21          6           0        0.618295   -1.387795    0.326272
     22          6           0        0.955043   -0.273918    1.102416
     23          6           0        2.232241    0.288738    1.020353
     24          6           0        3.152162   -0.290555    0.147741
     25          6           0        2.846816   -1.400426   -0.638543
     26          6           0        1.563589   -1.946508   -0.540204
     27          1           0       -0.376203   -1.818442    0.396342
     28          1           0        0.222941    0.162079    1.776194
     29          1           0        2.519558    1.150986    1.609756
     30          1           0        3.597954   -1.812992   -1.301113
     31          1           0        1.304856   -2.811568   -1.144169
     32          7           0        4.507465    0.296332    0.052248
     33          8           0        5.299898   -0.232650   -0.724196
     34          8           0        4.751655    1.274201    0.755654
 ---------------------------------------------------------------------

 SCF Done:  E(RHF) =  -669.533931505     A.U. after   15 cycles
 E2 =    -0.2093969139D+01 EUMP2 =    -0.67162790064372D+03

 The electronic state is 1-A.
 Alpha  occ. eigenvalues --  -20.60786 -20.60781 -15.85841 -11.31224 -11.27792
 Alpha  occ. eigenvalues --  -11.27788 -11.27539 -11.26822 -11.26812 -11.22272
 Alpha  occ. eigenvalues --  -11.22238 -11.22184 -11.22122 -11.21664 -11.21597
 Alpha  occ. eigenvalues --   -1.59861  -1.39414  -1.19410  -1.09174  -1.08800
 Alpha  occ. eigenvalues --   -1.04820  -1.04171  -0.96624  -0.95638  -0.87638
 Alpha  occ. eigenvalues --   -0.86213  -0.82473  -0.80244  -0.78988  -0.77503
 Alpha  occ. eigenvalues --   -0.72060  -0.71185  -0.70553  -0.65867  -0.65059
 Alpha  occ. eigenvalues --   -0.64804  -0.62214  -0.61544  -0.59988  -0.58235
 Alpha  occ. eigenvalues --   -0.55981  -0.55349  -0.53330  -0.53060  -0.53007
 Alpha  occ. eigenvalues --   -0.52886  -0.50576  -0.48820  -0.48812  -0.48551
 Alpha  occ. eigenvalues --   -0.47304  -0.46510  -0.46473  -0.44816  -0.44448
 Alpha  occ. eigenvalues --   -0.37312  -0.36374
 Alpha virt. eigenvalues --    0.04992   0.11184   0.16346   0.19175   0.22823
 Alpha virt. eigenvalues --    0.23688   0.24990   0.25533   0.27228   0.28166
 Alpha virt. eigenvalues --    0.29511   0.30528   0.31104   0.31623   0.31936

 Mulliken charges:
               1
     1  C   -0.296967
     2  C   -0.299897
     3  C   -0.475890
     4  H    0.152718
     5  H    0.141375
     6  H    0.154614
     7  H    0.151108
     8  H    0.153737
     9  H    0.156599
    10  H    0.162452
    11  C   -0.298419
    12  C   -0.305193
    13  C   -0.472038
    14  H    0.153750
    15  H    0.143335
    16  H    0.154850
    17  H    0.148648
    18  H    0.146714
    19  H    0.157188
    20  H    0.166017
    21  C   -0.171834
    22  C   -0.212436
    23  C   -0.170960
    24  C    0.158255
    25  C   -0.170982
    26  C   -0.220001
    27  H    0.226239
    28  H    0.223879
    29  H    0.275929
    30  H    0.275785
    31  H    0.223893
    32  N    0.488062
    33  O   -0.460366
    34  O   -0.460162
 Sum of Mulliken charges =  -0.00000

 Dipole moment (field-independent basis, Debye):
    X=             -4.8111    Y=             -2.0219    Z=              0.2671  Tot=              5.2255
 Quadrupole moment (field-independent basis, Debye-Ang):
   XX=           -125.1526   YY=            -91.8155   ZZ=            -92.2544
   XY=             -7.1566   XZ=             -0.1908   YZ=              1.7699

 Normal termination of Gaussian 16 at Wed May  5 21:55:29 2021.
