 Gaussian 16, Revision A.03,
 Gaussian 16:  EM64L-G16RevA.03 25-Dec-2016

 -------------
 #p 6-31g* mp2
 -------------

 ------------------------------------------------------
 Input file generated by CHIRIPA (05-May-2021 14:51:08)
 ------------------------------------------------------
 Symbolic Z-matrix:
 Charge =  0 Multiplicity = 1

                         Standard orientation:
 ---------------------------------------------------------------------
 Center     Atomic      Atomic             Coordinates (Angstroms)
 Number     Number       Type             X           Y           Z
 ---------------------------------------------------------------------
      1          6           0       -1.614388   -1.340882    0.333935
      2          6           0       -1.027864   -1.343463    1.746014
      3          6           0        0.042778   -2.417752    1.939466
      4          1           0       -2.042286   -2.329792    0.119683
      5          1           0       -0.803929   -1.187059   -0.391937
      6          1           0       -1.839380   -1.495853    2.469088
      7          1           0       -0.601483   -0.354373    1.957000
      8          1           0        0.871768   -2.265692    1.240713
      9          1           0       -0.373162   -3.413658    1.755711
     10          1           0        0.448494   -2.401778    2.955831
     11          6           0       -2.686054   -0.272418    0.125023
     12          6           0       -3.272577   -0.269836   -1.287057
     13          6           0       -4.343219    0.804453   -1.480508
     14          1           0       -3.496513   -0.426240    0.850895
     15          1           0       -2.258156    0.716493    0.339275
     16          1           0       -3.698958   -1.258927   -1.498043
     17          1           0       -2.461062   -0.117446   -2.010131
     18          1           0       -3.927279    1.800359   -1.296754
     19          1           0       -5.172209    0.652392   -0.781756
     20          1           0       -4.748936    0.788479   -2.496874
     21          6           0        2.766923    0.358984   -0.281492
     22          6           0        2.643498   -0.720671   -1.357178
     23          6           0        3.885113   -1.608212   -1.449126
     24          1           0        3.648230    0.979722   -0.493450
     25          1           0        2.948764   -0.120562    0.690291
     26          1           0        2.460565   -0.239295   -2.326419
     27          1           0        1.762272   -1.338792   -1.142742
     28          1           0        4.067940   -2.114847   -0.495976
     29          1           0        4.770201   -1.009103   -1.686379
     30          1           0        3.775379   -2.373029   -2.224287
     31          6           0        1.533518    1.254316   -0.177465
     32          6           0        1.656944    2.333970    0.898220
     33          6           0        0.415329    3.221512    0.990169
     34          1           0        1.351677    1.733861   -1.149249
     35          1           0        0.652211    0.633577    0.034493
     36          1           0        2.538170    2.952091    0.683784
     37          1           0        1.839876    1.852594    1.867462
     38          1           0       -0.469759    2.622403    1.227422
     39          1           0        0.232501    3.728146    0.037019
     40          1           0        0.525063    3.986328    1.765329
 ---------------------------------------------------------------------

 SCF Done:  E(RHF) =  -470.732332549     A.U. after   11 cycles
 E2 =    -0.1586171751D+01 EUMP2 =    -0.47231850430022D+03

 The electronic state is 1-A.
 Alpha  occ. eigenvalues --  -11.21681 -11.21660 -11.21653 -11.21604 -11.21440
 Alpha  occ. eigenvalues --  -11.21436 -11.21380 -11.21366 -11.21156 -11.21142
 Alpha  occ. eigenvalues --  -11.21107 -11.21062  -1.08574  -1.08402  -1.03588
 Alpha  occ. eigenvalues --   -1.03577  -0.96033  -0.96024  -0.87089  -0.87004
 Alpha  occ. eigenvalues --   -0.79671  -0.79624  -0.78365  -0.78251  -0.65718
 Alpha  occ. eigenvalues --   -0.64616  -0.61007  -0.60949  -0.59427  -0.59358
 Alpha  occ. eigenvalues --   -0.57682  -0.57596  -0.55327  -0.55317  -0.52728
 Alpha  occ. eigenvalues --   -0.52714  -0.52471  -0.52441  -0.50208  -0.49759
 Alpha  occ. eigenvalues --   -0.48043  -0.47928  -0.46817  -0.46612  -0.46302
 Alpha  occ. eigenvalues --   -0.45783  -0.45681  -0.45190  -0.43832  -0.43822
 Alpha virt. eigenvalues --    0.18883   0.21296   0.23381   0.24777   0.25138
 Alpha virt. eigenvalues --    0.26213   0.26896   0.28321   0.28783   0.30164
 Alpha virt. eigenvalues --    0.30624   0.31218   0.31689   0.31781   0.32360

 Mulliken charges:
               1
     1  C   -0.306760
     2  C   -0.303530
     3  C   -0.480160
     4  H    0.151308
     5  H    0.155064
     6  H    0.153290
     7  H    0.153620
     8  H    0.158816
     9  H    0.155974
    10  H    0.160525
    11  C   -0.303061
    12  C   -0.299531
    13  C   -0.475949
    14  H    0.149916
    15  H    0.153732
    16  H    0.151917
    17  H    0.152689
    18  H    0.155730
    19  H    0.155071
    20  H    0.160255
    21  C   -0.298839
    22  C   -0.306611
    23  C   -0.475794
    24  H    0.150187
    25  H    0.150432
    26  H    0.152212
    27  H    0.156891
    28  H    0.155563
    29  H    0.155535
    30  H    0.160592
    31  C   -0.309581
    32  C   -0.299449
    33  C   -0.480431
    34  H    0.149056
    35  H    0.162229
    36  H    0.152419
    37  H    0.152121
    38  H    0.158244
    39  H    0.155352
    40  H    0.160957
 Sum of Mulliken charges =  -0.00000

 Dipole moment (field-independent basis, Debye):
    X=             -0.0027    Y=             -0.0083    Z=             -0.0054  Tot=              0.0102
 Quadrupole moment (field-independent basis, Debye-Ang):
   XX=            -85.3602   YY=            -84.9517   ZZ=            -84.3349
   XY=              1.9037   XZ=             -0.5697   YZ=             -0.5593

 Normal termination of Gaussian 16 at Thu May  6 14:51:21 2021.
