 Gaussian 16, Revision A.03,
 Gaussian 16:  EM64L-G16RevA.03 25-Dec-2016

 -------------
 #p 6-31g* mp2
 -------------

 ------------------------------------------------------
 Input file generated by CHIRIPA (05-May-2021 14:55:21)
 ------------------------------------------------------
 Symbolic Z-matrix:
 Charge =  0 Multiplicity = 1

                         Standard orientation:
 ---------------------------------------------------------------------
 Center     Atomic      Atomic             Coordinates (Angstroms)
 Number     Number       Type             X           Y           Z
 ---------------------------------------------------------------------
      1          6           0        2.051257    2.138648    0.774136
      2          6           0        1.950746    1.077020    1.679324
      3          6           0        2.441984   -0.188836    1.346397
      4          6           0        3.030372   -0.358374    0.094060
      5          6           0        3.145303    0.679538   -0.829422
      6          6           0        2.647164    1.936874   -0.475146
      7          1           0        1.666971    3.118686    1.041053
      8          1           0        1.488450    1.230808    2.650239
      9          1           0        2.377222   -1.028195    2.028086
     10          1           0        3.611336    0.495543   -1.789826
     11          1           0        2.726590    2.759516   -1.180126
     12          7           0        3.554077   -1.693970   -0.269695
     13          8           0        4.068062   -1.817420   -1.379297
     14          8           0        3.440654   -2.592070    0.561682
     15          6           0       -4.473278    0.018856    0.051010
     16          6           0       -4.875940   -1.441509   -0.156794
     17          6           0       -6.288695   -1.742284    0.344658
     18          1           0       -4.544481    0.263705    1.119618
     19          1           0       -5.193095    0.667674   -0.466960
     20          1           0       -4.154792   -2.087433    0.360259
     21          1           0       -4.803587   -1.682965   -1.225008
     22          1           0       -7.023493   -1.122200   -0.178953
     23          1           0       -6.371012   -1.528965    1.415322
     24          1           0       -6.555975   -2.791731    0.186289
     25          6           0       -3.063514    0.335070   -0.445279
     26          6           0       -2.660852    1.795435   -0.237475
     27          6           0       -1.248097    2.096208   -0.738927
     28          1           0       -2.343697   -0.313750    0.072690
     29          1           0       -2.992311    0.090220   -1.513888
     30          1           0       -2.733205    2.036890    0.830739
     31          1           0       -3.382000    2.441357   -0.754528
     32          1           0       -1.165780    1.882890   -1.809591
     33          1           0       -0.513299    1.476124   -0.215317
     34          1           0       -0.980817    3.145655   -0.580559
 ---------------------------------------------------------------------

 SCF Done:  E(RHF) =  -669.534588011     A.U. after   15 cycles
 E2 =    -0.2092392672D+01 EUMP2 =    -0.67162698068319D+03

 The electronic state is 1-A.
 Alpha  occ. eigenvalues --  -20.60777 -20.60772 -15.85834 -11.31202 -11.27813
 Alpha  occ. eigenvalues --  -11.27787 -11.27513 -11.26788 -11.26757 -11.21977
 Alpha  occ. eigenvalues --  -11.21735 -11.21653 -11.21577 -11.21438 -11.21184
 Alpha  occ. eigenvalues --   -1.59854  -1.39407  -1.19398  -1.08797  -1.08673
 Alpha  occ. eigenvalues --   -1.04797  -1.03790  -0.96255  -0.95609  -0.87269
 Alpha  occ. eigenvalues --   -0.86190  -0.82444  -0.79860  -0.78480  -0.77488
 Alpha  occ. eigenvalues --   -0.72051  -0.71179  -0.70500  -0.65316  -0.65042
 Alpha  occ. eigenvalues --   -0.64791  -0.62141  -0.61205  -0.59634  -0.57862
 Alpha  occ. eigenvalues --   -0.55622  -0.55280  -0.53387  -0.52898  -0.52882
 Alpha  occ. eigenvalues --   -0.52482  -0.50128  -0.48810  -0.48805  -0.48157
 Alpha  occ. eigenvalues --   -0.46879  -0.46023  -0.45942  -0.44813  -0.44058
 Alpha  occ. eigenvalues --   -0.37254  -0.36413
 Alpha virt. eigenvalues --    0.05049   0.11182   0.16524   0.21037   0.22689
 Alpha virt. eigenvalues --    0.24107   0.26405   0.26931   0.27268   0.27455
 Alpha virt. eigenvalues --    0.28643   0.30520   0.31208   0.31758   0.32124

 Mulliken charges:
               1
     1  C   -0.168585
     2  C   -0.220741
     3  C   -0.170999
     4  C    0.158190
     5  C   -0.170717
     6  C   -0.215876
     7  H    0.226809
     8  H    0.223597
     9  H    0.275728
    10  H    0.275865
    11  H    0.224054
    12  N    0.488180
    13  O   -0.460352
    14  O   -0.460626
    15  C   -0.298309
    16  C   -0.300032
    17  C   -0.475846
    18  H    0.148410
    19  H    0.149662
    20  H    0.152998
    21  H    0.153114
    22  H    0.155090
    23  H    0.154677
    24  H    0.161527
    25  C   -0.298626
    26  C   -0.298930
    27  C   -0.481961
    28  H    0.150366
    29  H    0.151413
    30  H    0.148229
    31  H    0.152160
    32  H    0.156090
    33  H    0.166018
    34  H    0.149424
 Sum of Mulliken charges =  -0.00000

 Dipole moment (field-independent basis, Debye):
    X=             -1.8132    Y=              4.6572    Z=              1.2632  Tot=              5.1549
 Quadrupole moment (field-independent basis, Debye-Ang):
   XX=           -107.1310   YY=            -98.3929   ZZ=            -89.9497
   XY=             15.5248   XZ=              2.9499   YZ=             -1.8774

 Normal termination of Gaussian 16 at Wed May  5 22:14:30 2021.
