 Gaussian 16, Revision A.03,
 Gaussian 16:  EM64L-G16RevA.03 25-Dec-2016

 -------------
 #p 6-31g* mp2
 -------------

 ------------------------------------------------------
 Input file generated by CHIRIPA (05-May-2021 14:51:12)
 ------------------------------------------------------
 Symbolic Z-matrix:
 Charge =  0 Multiplicity = 1

                         Standard orientation:
 ---------------------------------------------------------------------
 Center     Atomic      Atomic             Coordinates (Angstroms)
 Number     Number       Type             X           Y           Z
 ---------------------------------------------------------------------
      1          6           0       -2.387075   -0.440378    0.147572
      2          6           0       -3.584635   -1.368792    0.352227
      3          6           0       -3.383153   -2.347094    1.509865
      4          1           0       -1.488651   -1.045918   -0.034362
      5          1           0       -2.203798    0.120048    1.074787
      6          1           0       -3.766457   -1.926290   -0.575541
      7          1           0       -4.480349   -0.760967    0.533505
      8          1           0       -3.224020   -1.806027    2.448228
      9          1           0       -2.506072   -2.977970    1.332881
     10          1           0       -4.251185   -3.001201    1.638413
     11          6           0       -2.573453    0.543450   -1.006150
     12          6           0       -1.375893    1.471863   -1.210805
     13          6           0       -1.577375    2.450165   -2.368443
     14          1           0       -2.756730   -0.016976   -1.933365
     15          1           0       -3.471878    1.148989   -0.824216
     16          1           0       -0.480179    0.864039   -1.392083
     17          1           0       -1.194072    2.029361   -0.283037
     18          1           0       -2.454457    3.081042   -2.191459
     19          1           0       -1.736508    1.909098   -3.306805
     20          1           0       -0.709344    3.104273   -2.496990
     21          6           0        2.573107    0.544904    0.897339
     22          6           0        1.334230    0.854220    1.738466
     23          6           0        1.535502    2.049999    2.669807
     24          1           0        3.423410    0.351899    1.565681
     25          1           0        2.836328    1.432077    0.304858
     26          1           0        1.072607   -0.033726    2.328146
     27          1           0        0.486733    1.046324    1.068048
     28          1           0        1.774063    2.950447    2.094581
     29          1           0        2.363266    1.864261    3.361839
     30          1           0        0.637642    2.253483    3.261669
     31          6           0        2.387422   -0.647976   -0.038762
     32          6           0        3.626298   -0.957292   -0.879889
     33          6           0        3.425027   -2.153071   -1.811230
     34          1           0        2.124201   -1.535149    0.553719
     35          1           0        1.537120   -0.454970   -0.707103
     36          1           0        4.473795   -1.149394   -0.209470
     37          1           0        3.887921   -0.069346   -1.469568
     38          1           0        2.597262   -1.967332   -2.503261
     39          1           0        3.186465   -3.053518   -1.236004
     40          1           0        4.322887   -2.356554   -2.403092
 ---------------------------------------------------------------------

 SCF Done:  E(RHF) =  -470.732347634     A.U. after   11 cycles
 E2 =    -0.1584882029D+01 EUMP2 =    -0.47231722966312D+03

 The electronic state is 1-A.
 Alpha  occ. eigenvalues --  -11.21688 -11.21606 -11.21600 -11.21441 -11.21408
 Alpha  occ. eigenvalues --  -11.21372 -11.21357 -11.21295 -11.21147 -11.21089
 Alpha  occ. eigenvalues --  -11.21070 -11.21009  -1.08501  -1.08363  -1.03586
 Alpha  occ. eigenvalues --   -1.03476  -0.96017  -0.95947  -0.87038  -0.86961
 Alpha  occ. eigenvalues --   -0.79712  -0.79531  -0.78508  -0.77972  -0.65135
 Alpha  occ. eigenvalues --   -0.65008  -0.61036  -0.60846  -0.59408  -0.59290
 Alpha  occ. eigenvalues --   -0.57637  -0.57552  -0.55309  -0.55236  -0.52742
 Alpha  occ. eigenvalues --   -0.52624  -0.52447  -0.52372  -0.49991  -0.49874
 Alpha  occ. eigenvalues --   -0.48125  -0.47868  -0.46834  -0.46591  -0.46301
 Alpha  occ. eigenvalues --   -0.45682  -0.45632  -0.44944  -0.43818  -0.43729
 Alpha virt. eigenvalues --    0.20899   0.23252   0.23514   0.24271   0.24795
 Alpha virt. eigenvalues --    0.26162   0.26933   0.27893   0.28394   0.30119
 Alpha virt. eigenvalues --    0.30789   0.31588   0.31773   0.31914   0.31989

 Mulliken charges:
               1
     1  C   -0.301499
     2  C   -0.299713
     3  C   -0.475635
     4  H    0.152226
     5  H    0.151109
     6  H    0.151875
     7  H    0.151821
     8  H    0.155213
     9  H    0.155337
    10  H    0.160196
    11  C   -0.297447
    12  C   -0.310111
    13  C   -0.474444
    14  H    0.149453
    15  H    0.149721
    16  H    0.157731
    17  H    0.154702
    18  H    0.155609
    19  H    0.155320
    20  H    0.160071
    21  C   -0.297219
    22  C   -0.311138
    23  C   -0.475525
    24  H    0.149272
    25  H    0.148794
    26  H    0.151069
    27  H    0.166530
    28  H    0.154486
    29  H    0.154916
    30  H    0.159006
    31  C   -0.305150
    32  C   -0.299293
    33  C   -0.475643
    34  H    0.149477
    35  H    0.154819
    36  H    0.152201
    37  H    0.151867
    38  H    0.154462
    39  H    0.155132
    40  H    0.160404
 Sum of Mulliken charges =  -0.00000

 Dipole moment (field-independent basis, Debye):
    X=             -0.0491    Y=              0.0019    Z=             -0.0275  Tot=              0.0563
 Quadrupole moment (field-independent basis, Debye-Ang):
   XX=            -84.5661   YY=            -85.2600   ZZ=            -85.1209
   XY=             -0.5460   XZ=             -0.0610   YZ=             -0.0810

 Normal termination of Gaussian 16 at Wed May  5 21:33:27 2021.
