 Gaussian 16, Revision A.03,
 Gaussian 16:  EM64L-G16RevA.03 25-Dec-2016

 -------------
 #p 6-31g* mp2
 -------------

 ------------------------------------------------------
 Input file generated by CHIRIPA (05-May-2021 14:51:07)
 ------------------------------------------------------
 Symbolic Z-matrix:
 Charge =  0 Multiplicity = 1

                         Standard orientation:
 ---------------------------------------------------------------------
 Center     Atomic      Atomic             Coordinates (Angstroms)
 Number     Number       Type             X           Y           Z
 ---------------------------------------------------------------------
      1          6           0        2.967973   -0.125402   -0.199732
      2          6           0        3.063341   -1.185103   -1.297878
      3          6           0        3.879412   -2.405948   -0.872016
      4          1           0        3.980910    0.190170    0.085430
      5          1           0        2.516915   -0.574915    0.695745
      6          1           0        3.512816   -0.733362   -2.191477
      7          1           0        2.050054   -1.498050   -1.580594
      8          1           0        3.430158   -2.882737    0.005164
      9          1           0        4.901232   -2.113704   -0.609190
     10          1           0        3.934721   -3.150823   -1.671993
     11          6           0        2.155235    1.101183   -0.610430
     12          6           0        2.059867    2.160884    0.487716
     13          6           0        1.243796    3.381729    0.061854
     14          1           0        2.606293    1.550696   -1.505908
     15          1           0        1.142298    0.785611   -0.895593
     16          1           0        3.073154    2.473831    0.770432
     17          1           0        1.610391    1.709143    1.381314
     18          1           0        0.221976    3.089485   -0.200973
     19          1           0        1.693050    3.858517   -0.815327
     20          1           0        1.188486    4.126604    0.861830
     21          6           0       -2.143673   -0.293999    1.014321
     22          6           0       -1.057687   -1.315199    1.354570
     23          6           0       -0.230017   -0.913283    2.575724
     24          1           0       -1.675679    0.683848    0.836166
     25          1           0       -2.805705   -0.170146    1.882519
     26          1           0       -0.398719   -1.438117    0.485509
     27          1           0       -1.528303   -2.290773    1.531747
     28          1           0       -0.870142   -0.809650    3.457825
     29          1           0        0.265861    0.047850    2.405641
     30          1           0        0.540366   -1.657304    2.801121
     31          6           0       -2.979534   -0.681782   -0.204158
     32          6           0       -4.065520    0.339419   -0.544407
     33          6           0       -4.893191   -0.062497   -1.765562
     34          1           0       -2.317503   -0.805635   -1.072357
     35          1           0       -3.447529   -1.659630   -0.026003
     36          1           0       -3.594905    1.314992   -0.721585
     37          1           0       -4.724489    0.462337    0.324654
     38          1           0       -5.389069   -1.023631   -1.595478
     39          1           0       -4.253066   -0.166131   -2.647662
     40          1           0       -5.663574    0.681523   -1.990959
 ---------------------------------------------------------------------

 SCF Done:  E(RHF) =  -470.733166597     A.U. after   11 cycles
 E2 =    -0.1584449315D+01 EUMP2 =    -0.47231761591166D+03

 The electronic state is 1-A.
 Alpha  occ. eigenvalues --  -11.21691 -11.21644 -11.21643 -11.21624 -11.21477
 Alpha  occ. eigenvalues --  -11.21433 -11.21414 -11.21354 -11.21146 -11.21130
 Alpha  occ. eigenvalues --  -11.21099 -11.21082  -1.08524  -1.08438  -1.03601
 Alpha  occ. eigenvalues --   -1.03559  -0.96055  -0.96000  -0.87065  -0.87024
 Alpha  occ. eigenvalues --   -0.79684  -0.79607  -0.78323  -0.78259  -0.65445
 Alpha  occ. eigenvalues --   -0.64832  -0.61086  -0.60864  -0.59418  -0.59369
 Alpha  occ. eigenvalues --   -0.57676  -0.57597  -0.55414  -0.55225  -0.52740
 Alpha  occ. eigenvalues --   -0.52707  -0.52495  -0.52412  -0.50075  -0.49906
 Alpha  occ. eigenvalues --   -0.48057  -0.47893  -0.46822  -0.46549  -0.45968
 Alpha  occ. eigenvalues --   -0.45818  -0.45684  -0.45557  -0.43849  -0.43813
 Alpha virt. eigenvalues --    0.18300   0.22380   0.23313   0.24635   0.25374
 Alpha virt. eigenvalues --    0.26061   0.26750   0.28321   0.29295   0.29324
 Alpha virt. eigenvalues --    0.30032   0.31557   0.31718   0.31925   0.32254

 Mulliken charges:
               1
     1  C   -0.302721
     2  C   -0.300506
     3  C   -0.475611
     4  H    0.149761
     5  H    0.155249
     6  H    0.151985
     7  H    0.151890
     8  H    0.155228
     9  H    0.155276
    10  H    0.160318
    11  C   -0.299413
    12  C   -0.306527
    13  C   -0.476325
    14  H    0.149874
    15  H    0.149920
    16  H    0.152684
    17  H    0.157671
    18  H    0.154932
    19  H    0.155621
    20  H    0.160700
    21  C   -0.300214
    22  C   -0.302418
    23  C   -0.482808
    24  H    0.150664
    25  H    0.150153
    26  H    0.153882
    27  H    0.152612
    28  H    0.155887
    29  H    0.161630
    30  H    0.160142
    31  C   -0.298435
    32  C   -0.299662
    33  C   -0.475776
    34  H    0.149218
    35  H    0.150019
    36  H    0.151889
    37  H    0.152142
    38  H    0.155244
    39  H    0.155335
    40  H    0.160490
 Sum of Mulliken charges =  -0.00000

 Dipole moment (field-independent basis, Debye):
    X=             -0.0040    Y=             -0.0010    Z=              0.0194  Tot=              0.0198
 Quadrupole moment (field-independent basis, Debye-Ang):
   XX=            -84.2818   YY=            -85.2510   ZZ=            -85.0352
   XY=              1.1729   XZ=             -1.3779   YZ=             -0.4472

 Normal termination of Gaussian 16 at Thu May  6 09:59:03 2021.
