 Gaussian 16, Revision A.03,
 Gaussian 16:  EM64L-G16RevA.03 25-Dec-2016

 -------------
 #p 6-31g* mp2
 -------------

 ------------------------------------------------------
 Input file generated by CHIRIPA (05-May-2021 14:55:23)
 ------------------------------------------------------
 Symbolic Z-matrix:
 Charge =  0 Multiplicity = 1

                         Standard orientation:
 ---------------------------------------------------------------------
 Center     Atomic      Atomic             Coordinates (Angstroms)
 Number     Number       Type             X           Y           Z
 ---------------------------------------------------------------------
      1          6           0       -1.801869    1.659424    1.813805
      2          6           0       -2.781497    1.656583    0.815385
      3          6           0       -2.946305    0.543583   -0.014445
      4          6           0       -2.110384   -0.554416    0.182847
      5          6           0       -1.125279   -0.581899    1.168799
      6          6           0       -0.978338    0.542143    1.987020
      7          1           0       -1.680782    2.528318    2.453928
      8          1           0       -3.422487    2.522874    0.678578
      9          1           0       -3.696690    0.514636   -0.795151
     10          1           0       -0.501332   -1.460250    1.281090
     11          1           0       -0.216707    0.541546    2.761592
     12          7           0       -2.275402   -1.738544   -0.689512
     13          8           0       -1.526269   -2.693396   -0.495362
     14          8           0       -3.150750   -1.689389   -1.550898
     15          6           0        2.009893    0.664715   -0.750275
     16          6           0        1.903080    2.168431   -1.006041
     17          6           0        0.583966    2.562727   -1.671070
     18          1           0        1.903474    0.128657   -1.703301
     19          1           0        1.169751    0.346904   -0.117382
     20          1           0        2.743941    2.483559   -1.637122
     21          1           0        2.009957    2.700981   -0.052321
     22          1           0       -0.265213    2.276283   -1.042224
     23          1           0        0.472942    2.057626   -2.636030
     24          1           0        0.528746    3.641922   -1.844702
     25          6           0        3.323067    0.254982   -0.085880
     26          6           0        3.429879   -1.248733    0.169888
     27          6           0        4.748994   -1.643029    0.834916
     28          1           0        4.163209    0.572794   -0.718771
     29          1           0        3.429485    0.791041    0.867148
     30          1           0        3.323003   -1.781283   -0.783833
     31          1           0        2.589018   -1.563861    0.800968
     32          1           0        4.860017   -1.137928    1.799876
     33          1           0        5.598172   -1.356585    0.206071
     34          1           0        4.804214   -2.722224    1.008548
 ---------------------------------------------------------------------

 SCF Done:  E(RHF) =  -669.534688454     A.U. after   15 cycles
 E2 =    -0.2094879929D+01 EUMP2 =    -0.67162956838262D+03

 The electronic state is 1-A.
 Alpha  occ. eigenvalues --  -20.60832 -20.60827 -15.85890 -11.31310 -11.27901
 Alpha  occ. eigenvalues --  -11.27890 -11.27656 -11.26927 -11.26915 -11.21724
 Alpha  occ. eigenvalues --  -11.21699 -11.21507 -11.21302 -11.21179 -11.21074
 Alpha  occ. eigenvalues --   -1.59906  -1.39458  -1.19520  -1.08888  -1.08515
 Alpha  occ. eigenvalues --   -1.04935  -1.03616  -0.96058  -0.95710  -0.87075
 Alpha  occ. eigenvalues --   -0.86310  -0.82543  -0.79682  -0.78339  -0.77571
 Alpha  occ. eigenvalues --   -0.72108  -0.71230  -0.70608  -0.65228  -0.65123
 Alpha  occ. eigenvalues --   -0.64910  -0.62261  -0.61046  -0.59428  -0.57672
 Alpha  occ. eigenvalues --   -0.55413  -0.55365  -0.53338  -0.53005  -0.52754
 Alpha  occ. eigenvalues --   -0.52486  -0.50024  -0.48872  -0.48858  -0.47966
 Alpha  occ. eigenvalues --   -0.46703  -0.45842  -0.45763  -0.44844  -0.43862
 Alpha  occ. eigenvalues --   -0.37483  -0.36416
 Alpha virt. eigenvalues --    0.04937   0.11073   0.16367   0.20433   0.22980
 Alpha virt. eigenvalues --    0.23913   0.25481   0.26850   0.27462   0.28035
 Alpha virt. eigenvalues --    0.29282   0.30538   0.31265   0.31628   0.31838

 Mulliken charges:
               1
     1  C   -0.170604
     2  C   -0.218714
     3  C   -0.170684
     4  C    0.163051
     5  C   -0.176388
     6  C   -0.216960
     7  H    0.226776
     8  H    0.224882
     9  H    0.276690
    10  H    0.278560
    11  H    0.224571
    12  N    0.488211
    13  O   -0.459899
    14  O   -0.460110
    15  C   -0.306964
    16  C   -0.296981
    17  C   -0.482625
    18  H    0.153475
    19  H    0.154869
    20  H    0.152345
    21  H    0.145822
    22  H    0.159720
    23  H    0.157519
    24  H    0.156740
    25  C   -0.298025
    26  C   -0.298386
    27  C   -0.475819
    28  H    0.150765
    29  H    0.143992
    30  H    0.158433
    31  H    0.144866
    32  H    0.152176
    33  H    0.156418
    34  H    0.162278
 Sum of Mulliken charges =  -0.00000

 Dipole moment (field-independent basis, Debye):
    X=              0.4412    Y=              4.0709    Z=              3.0536  Tot=              5.1080
 Quadrupole moment (field-independent basis, Debye-Ang):
   XX=            -95.2906   YY=            -99.2655   ZZ=            -92.3497
   XY=            -11.2277   XZ=             -5.4506   YZ=             -1.6220

 Normal termination of Gaussian 16 at Thu May  6 03:06:39 2021.
