 Gaussian 16, Revision A.03,
 Gaussian 16:  EM64L-G16RevA.03 25-Dec-2016

 -------------
 #p 6-31g* mp2
 -------------

 ------------------------------------------------------
 Input file generated by CHIRIPA (05-May-2021 14:55:21)
 ------------------------------------------------------
 Symbolic Z-matrix:
 Charge =  0 Multiplicity = 1

                         Standard orientation:
 ---------------------------------------------------------------------
 Center     Atomic      Atomic             Coordinates (Angstroms)
 Number     Number       Type             X           Y           Z
 ---------------------------------------------------------------------
      1          6           0       -4.561200    1.280697    0.772161
      2          6           0       -4.881037   -0.080782    0.796662
      3          6           0       -3.966617   -1.033315    0.337244
      4          6           0       -2.735999   -0.587175   -0.142161
      5          6           0       -2.387969    0.762186   -0.179441
      6          6           0       -3.317878    1.697101    0.285047
      7          1           0       -5.277559    2.013805    1.131017
      8          1           0       -5.845864   -0.407059    1.174414
      9          1           0       -4.188310   -2.093604    0.344857
     10          1           0       -1.418253    1.056964   -0.561771
     11          1           0       -3.066772    2.753786    0.264829
     12          7           0       -1.759745   -1.586254   -0.631210
     13          8           0       -0.682262   -1.167479   -1.048697
     14          8           0       -2.090525   -2.769189   -0.587779
     15          6           0        3.106572    0.970348    0.271637
     16          6           0        2.735219    2.005559   -0.790632
     17          6           0        1.530080    2.857150   -0.390347
     18          1           0        2.241533    0.319334    0.458274
     19          1           0        3.319289    1.486499    1.218070
     20          1           0        2.524611    1.487717   -1.735143
     21          1           0        3.601304    2.654064   -0.974901
     22          1           0        1.733178    3.399533    0.538724
     23          1           0        0.650368    2.226560   -0.225839
     24          1           0        1.281959    3.590475   -1.163995
     25          6           0        4.309485    0.111291   -0.114043
     26          6           0        4.680840   -0.923921    0.948227
     27          6           0        5.885979   -1.775512    0.547942
     28          1           0        4.096769   -0.404861   -1.060475
     29          1           0        5.174525    0.762305   -0.300679
     30          1           0        3.814754   -1.572425    1.132495
     31          1           0        4.891447   -0.406078    1.892738
     32          1           0        6.765690   -1.144921    0.383432
     33          1           0        5.682879   -2.317895   -0.381129
     34          1           0        6.134100   -2.508836    1.321589
 ---------------------------------------------------------------------

 SCF Done:  E(RHF) =  -669.535899152     A.U. after   15 cycles
 E2 =    -0.2091219848D+01 EUMP2 =    -0.67162711899995D+03

 The electronic state is 1-A.
 Alpha  occ. eigenvalues --  -20.60862 -20.60851 -15.85904 -11.31223 -11.27790
 Alpha  occ. eigenvalues --  -11.27772 -11.27526 -11.26801 -11.26783 -11.21339
 Alpha  occ. eigenvalues --  -11.21234 -11.21044 -11.20893 -11.20814 -11.20559
 Alpha  occ. eigenvalues --   -1.59928  -1.39484  -1.19394  -1.08798  -1.07980
 Alpha  occ. eigenvalues --   -1.04791  -1.03187  -0.95675  -0.95631  -0.86696
 Alpha  occ. eigenvalues --   -0.86190  -0.82472  -0.79254  -0.77772  -0.77522
 Alpha  occ. eigenvalues --   -0.72126  -0.71246  -0.70513  -0.65048  -0.64820
 Alpha  occ. eigenvalues --   -0.64571  -0.62172  -0.60561  -0.59044  -0.57262
 Alpha  occ. eigenvalues --   -0.55330  -0.54932  -0.53122  -0.52896  -0.52394
 Alpha  occ. eigenvalues --   -0.52085  -0.49601  -0.48883  -0.48876  -0.47575
 Alpha  occ. eigenvalues --   -0.46247  -0.45333  -0.45207  -0.44874  -0.43407
 Alpha  occ. eigenvalues --   -0.37374  -0.36389
 Alpha virt. eigenvalues --    0.04985   0.11242   0.16492   0.20334   0.23192
 Alpha virt. eigenvalues --    0.24210   0.26040   0.27343   0.27831   0.28221
 Alpha virt. eigenvalues --    0.29323   0.30689   0.31500   0.31847   0.32388

 Mulliken charges:
               1
     1  C   -0.170605
     2  C   -0.218823
     3  C   -0.170213
     4  C    0.158529
     5  C   -0.180185
     6  C   -0.221700
     7  H    0.225837
     8  H    0.223590
     9  H    0.275612
    10  H    0.288566
    11  H    0.224541
    12  N    0.487279
    13  O   -0.462318
    14  O   -0.459623
    15  C   -0.301398
    16  C   -0.298337
    17  C   -0.480563
    18  H    0.160581
    19  H    0.145158
    20  H    0.158825
    21  H    0.150599
    22  H    0.155077
    23  H    0.149514
    24  H    0.158306
    25  C   -0.298585
    26  C   -0.300464
    27  C   -0.475749
    28  H    0.154764
    29  H    0.146385
    30  H    0.157180
    31  H    0.148834
    32  H    0.152948
    33  H    0.157268
    34  H    0.159168
 Sum of Mulliken charges =  -0.00000

 Dipole moment (field-independent basis, Debye):
    X=             -3.4767    Y=              3.4113    Z=              1.6799  Tot=              5.1523
 Quadrupole moment (field-independent basis, Debye-Ang):
   XX=            -74.6841   YY=            -96.7807   ZZ=            -95.7266
   XY=             -4.2335   XZ=             -5.0310   YZ=             -2.1819

 Normal termination of Gaussian 16 at Thu May  6 10:52:46 2021.
