 Gaussian 16, Revision A.03,
 Gaussian 16:  EM64L-G16RevA.03 25-Dec-2016

 -------------
 #p 6-31g* mp2
 -------------

 ------------------------------------------------------
 Input file generated by CHIRIPA (05-May-2021 14:51:07)
 ------------------------------------------------------
 Symbolic Z-matrix:
 Charge =  0 Multiplicity = 1

                         Standard orientation:
 ---------------------------------------------------------------------
 Center     Atomic      Atomic             Coordinates (Angstroms)
 Number     Number       Type             X           Y           Z
 ---------------------------------------------------------------------
      1          6           0       -4.216900    0.035679   -0.256123
      2          6           0       -3.259570    0.997745    0.448102
      3          6           0       -1.849984    0.967664   -0.143469
      4          1           0       -3.813275   -0.984203   -0.193882
      5          1           0       -4.261022    0.289728   -1.324256
      6          1           0       -3.218330    0.742828    1.514841
      7          1           0       -3.665616    2.015428    0.384343
      8          1           0       -1.870823    1.243227   -1.202823
      9          1           0       -1.420995   -0.036603   -0.065902
     10          1           0       -1.182159    1.662814    0.374832
     11          6           0       -5.629999    0.054344    0.323987
     12          6           0       -6.587329   -0.907723   -0.380238
     13          6           0       -7.996915   -0.877642    0.211333
     14          1           0       -5.585877   -0.199705    1.392120
     15          1           0       -6.033624    1.074225    0.261746
     16          1           0       -6.181283   -1.925405   -0.316480
     17          1           0       -6.628569   -0.652805   -1.446977
     18          1           0       -8.425904    0.126626    0.133766
     19          1           0       -7.976076   -1.153205    1.270687
     20          1           0       -8.664740   -1.572792   -0.306969
     21          6           0        5.655438    0.163408    0.030770
     22          6           0        6.619668   -1.021427    0.097174
     23          6           0        8.080328   -0.588369    0.226507
     24          1           0        5.926961    0.801638   -0.821217
     25          1           0        5.778084    0.778030    0.933320
     26          1           0        6.494261   -1.634389   -0.804584
     27          1           0        6.345699   -1.657012    0.948989
     28          1           0        8.227276    0.004854    1.134853
     29          1           0        8.376681    0.027605   -0.628683
     30          1           0        8.752288   -1.451058    0.272305
     31          6           0        4.191461   -0.253431   -0.098634
     32          6           0        3.227231    0.931405   -0.165038
     33          6           0        1.766571    0.498347   -0.294371
     34          1           0        4.068815   -0.868051   -1.001183
     35          1           0        3.919937   -0.891660    0.753354
     36          1           0        3.501200    1.566989   -1.016853
     37          1           0        3.352638    1.544366    0.736720
     38          1           0        1.470218   -0.117628    0.560819
     39          1           0        1.619623   -0.094877   -1.202717
     40          1           0        1.094611    1.361037   -0.340169
 ---------------------------------------------------------------------

 SCF Done:  E(RHF) =  -470.732554486     A.U. after   11 cycles
 E2 =    -0.1582519668D+01 EUMP2 =    -0.47231507415376D+03

 The electronic state is 1-A.
 Alpha  occ. eigenvalues --  -11.21580 -11.21573 -11.21531 -11.21512 -11.21370
 Alpha  occ. eigenvalues --  -11.21358 -11.21310 -11.21297 -11.21055 -11.21049
 Alpha  occ. eigenvalues --  -11.20961 -11.20907  -1.08395  -1.08374  -1.03516
 Alpha  occ. eigenvalues --   -1.03441  -0.96024  -0.95835  -0.87115  -0.86782
 Alpha  occ. eigenvalues --   -0.79678  -0.79410  -0.78219  -0.78177  -0.65027
 Alpha  occ. eigenvalues --   -0.65006  -0.60910  -0.60843  -0.59571  -0.59080
 Alpha  occ. eigenvalues --   -0.57629  -0.57446  -0.55281  -0.55151  -0.53083
 Alpha  occ. eigenvalues --   -0.52465  -0.52257  -0.52118  -0.49940  -0.49788
 Alpha  occ. eigenvalues --   -0.47934  -0.47781  -0.46620  -0.46531  -0.45775
 Alpha  occ. eigenvalues --   -0.45710  -0.45669  -0.45655  -0.43989  -0.43421
 Alpha virt. eigenvalues --    0.22557   0.22996   0.23651   0.24828   0.26503
 Alpha virt. eigenvalues --    0.26717   0.26834   0.27366   0.27646   0.29188
 Alpha virt. eigenvalues --    0.29654   0.31148   0.31487   0.31706   0.32217

 Mulliken charges:
               1
     1  C   -0.298512
     2  C   -0.300669
     3  C   -0.475312
     4  H    0.149564
     5  H    0.149356
     6  H    0.151523
     7  H    0.151322
     8  H    0.154413
     9  H    0.158457
    10  H    0.160273
    11  C   -0.298196
    12  C   -0.299575
    13  C   -0.475671
    14  H    0.149411
    15  H    0.149548
    16  H    0.151889
    17  H    0.151865
    18  H    0.155132
    19  H    0.155132
    20  H    0.160171
    21  C   -0.298138
    22  C   -0.299553
    23  C   -0.475659
    24  H    0.149537
    25  H    0.149362
    26  H    0.151847
    27  H    0.151816
    28  H    0.155116
    29  H    0.155133
    30  H    0.160132
    31  C   -0.298431
    32  C   -0.300642
    33  C   -0.476525
    34  H    0.149312
    35  H    0.149301
    36  H    0.151425
    37  H    0.151212
    38  H    0.153946
    39  H    0.154368
    40  H    0.166320
 Sum of Mulliken charges =  -0.00000

 Dipole moment (field-independent basis, Debye):
    X=             -0.0155    Y=              0.0034    Z=             -0.0079  Tot=              0.0177
 Quadrupole moment (field-independent basis, Debye-Ang):
   XX=            -87.4664   YY=            -84.2894   ZZ=            -83.4194
   XY=             -0.4366   XZ=              0.3224   YZ=             -0.5117

 Normal termination of Gaussian 16 at Thu May  6 03:39:19 2021.
