 Gaussian 16, Revision A.03,
 Gaussian 16:  EM64L-G16RevA.03 25-Dec-2016

 -------------
 #p 6-31g* mp2
 -------------

 ------------------------------------------------------
 Input file generated by CHIRIPA (05-May-2021 14:57:22)
 ------------------------------------------------------
 Symbolic Z-matrix:
 Charge =  0 Multiplicity = 1

                         Standard orientation:
 ---------------------------------------------------------------------
 Center     Atomic      Atomic             Coordinates (Angstroms)
 Number     Number       Type             X           Y           Z
 ---------------------------------------------------------------------
      1          6           0        4.311870    2.075082    0.112367
      2          6           0        2.930400    2.120878   -0.102028
      3          6           0        2.182527    0.941479   -0.167237
      4          6           0        2.851486   -0.271793   -0.013116
      5          6           0        4.226623   -0.350220    0.201682
      6          6           0        4.954439    0.841853    0.263272
      7          1           0        4.885045    2.996190    0.161617
      8          1           0        2.428713    3.077194   -0.219571
      9          1           0        1.111931    0.947993   -0.332162
     10          1           0        4.698709   -1.318554    0.315181
     11          1           0        6.027191    0.803254    0.429884
     12          7           0        2.070363   -1.527079   -0.080234
     13          8           0        2.683373   -2.583283    0.058648
     14          8           0        0.859899   -1.430998   -0.270453
     15          6           0       -2.523755   -2.416533   -0.001792
     16          6           0       -2.876325   -1.771488    1.188221
     17          6           0       -3.131486   -0.396989    1.202135
     18          6           0       -3.024354    0.304804    0.002426
     19          6           0       -2.675154   -0.309322   -1.199322
     20          6           0       -2.424470   -1.684682   -1.189671
     21          1           0       -2.327279   -3.484611   -0.003447
     22          1           0       -2.954191   -2.337322    2.112242
     23          1           0       -3.406265    0.127572    2.109190
     24          1           0       -2.605537    0.281401   -2.104649
     25          1           0       -2.150851   -2.182991   -2.115341
     26          7           0       -3.292113    1.760379    0.004683
     27          8           0       -3.190972    2.356140   -1.065586
     28          8           0       -3.598052    2.277936    1.076678
 ---------------------------------------------------------------------

 SCF Done:  E(RHF) =  -868.339214522     A.U. after   16 cycles
 E2 =    -0.2599822305D+01 EUMP2 =    -0.87093903682735D+03

 The electronic state is 1-A.
 Alpha  occ. eigenvalues --  -20.61119 -20.61113 -20.60348 -20.60336 -15.86145
 Alpha  occ. eigenvalues --  -15.85384 -11.31318 -11.30357 -11.27880 -11.27828
 Alpha  occ. eigenvalues --  -11.27559 -11.26894 -11.26865 -11.26852 -11.26780
 Alpha  occ. eigenvalues --  -11.26444 -11.25794 -11.25718  -1.60200  -1.59437
 Alpha  occ. eigenvalues --   -1.39756  -1.38998  -1.19471  -1.18459  -1.08906
 Alpha  occ. eigenvalues --   -1.07909  -1.04836  -1.03818  -0.95774  -0.94825
 Alpha  occ. eigenvalues --   -0.86244  -0.85239  -0.82605  -0.81692  -0.77677
 Alpha  occ. eigenvalues --   -0.76806  -0.72394  -0.71611  -0.71512  -0.70765
 Alpha  occ. eigenvalues --   -0.70573  -0.69559  -0.65122  -0.64829  -0.64121
 Alpha  occ. eigenvalues --   -0.63837  -0.62180  -0.61213  -0.55347  -0.54289
 Alpha  occ. eigenvalues --   -0.53186  -0.52918  -0.52104  -0.51933  -0.49152
 Alpha  occ. eigenvalues --   -0.49125  -0.48387  -0.48330  -0.45208  -0.44493
 Alpha  occ. eigenvalues --   -0.37445  -0.36433  -0.36299  -0.35363
 Alpha virt. eigenvalues --    0.04814   0.05730   0.11222   0.12271   0.16353
 Alpha virt. eigenvalues --    0.17384   0.21391   0.22349   0.27305   0.28111
 Alpha virt. eigenvalues --    0.28263   0.29229   0.30926   0.31873   0.32372

 Mulliken charges:
               1
     1  C   -0.170389
     2  C   -0.218878
     3  C   -0.171203
     4  C    0.156995
     5  C   -0.171321
     6  C   -0.218707
     7  H    0.227047
     8  H    0.228826
     9  H    0.276647
    10  H    0.274514
    11  H    0.223574
    12  N    0.491310
    13  O   -0.462791
    14  O   -0.465924
    15  C   -0.155540
    16  C   -0.217765
    17  C   -0.172982
    18  C    0.154628
    19  C   -0.174263
    20  C   -0.202750
    21  H    0.227433
    22  H    0.220599
    23  H    0.270861
    24  H    0.269888
    25  H    0.222896
    26  N    0.486927
    27  O   -0.465944
    28  O   -0.463687
 Sum of Mulliken charges =  -0.00000

 Dipole moment (field-independent basis, Debye):
    X=              3.9062    Y=             -0.9413    Z=              0.1831  Tot=              4.0222
 Quadrupole moment (field-independent basis, Debye-Ang):
   XX=            -92.8765   YY=           -109.5966   ZZ=           -100.9493
   XY=             26.6165   XZ=              0.4868   YZ=             -0.6618

 Normal termination of Gaussian 16 at Thu May  6 01:44:38 2021.
