 Gaussian 16, Revision A.03,
 Gaussian 16:  EM64L-G16RevA.03 25-Dec-2016

 -------------
 #p 6-31g* mp2
 -------------

 ------------------------------------------------------
 Input file generated by CHIRIPA (05-May-2021 14:55:22)
 ------------------------------------------------------
 Symbolic Z-matrix:
 Charge =  0 Multiplicity = 1

                         Standard orientation:
 ---------------------------------------------------------------------
 Center     Atomic      Atomic             Coordinates (Angstroms)
 Number     Number       Type             X           Y           Z
 ---------------------------------------------------------------------
      1          6           0       -1.311094   -2.864136    0.591822
      2          6           0       -1.529200   -1.918953    1.599582
      3          6           0       -2.030445   -0.651604    1.287931
      4          6           0       -2.303833   -0.361848   -0.047955
      5          6           0       -2.097176   -1.282090   -1.074473
      6          6           0       -1.595277   -2.543253   -0.739642
      7          1           0       -0.921460   -3.846241    0.842923
      8          1           0       -1.309402   -2.165385    2.634476
      9          1           0       -2.208691    0.099067    2.048286
     10          1           0       -2.325785   -1.007248   -2.097027
     11          1           0       -1.426877   -3.275309   -1.524359
     12          7           0       -2.834825    0.976563   -0.390156
     13          8           0       -3.067658    1.207197   -1.574738
     14          8           0       -3.008129    1.769634    0.532689
     15          6           0        2.166311    1.076625   -0.166128
     16          6           0        1.956154    2.397457    0.574968
     17          6           0        0.610120    3.047771    0.253911
     18          1           0        2.092126    1.254541   -1.247696
     19          1           0        1.352764    0.385126    0.093418
     20          1           0        2.770611    3.085776    0.315175
     21          1           0        2.031039    2.216411    1.654890
     22          1           0       -0.214597    2.382633    0.529651
     23          1           0        0.529177    3.256939   -0.817676
     24          1           0        0.480729    3.990666    0.794343
     25          6           0        3.507466    0.414407    0.144512
     26          6           0        3.717624   -0.906423   -0.596585
     27          6           0        5.063657   -1.556738   -0.275527
     28          1           0        4.321014    1.105907   -0.115034
     29          1           0        3.581652    0.236492    1.226080
     30          1           0        3.642739   -0.725377   -1.676507
     31          1           0        2.903167   -1.594743   -0.336791
     32          1           0        5.144602   -1.765906    0.796059
     33          1           0        5.888375   -0.891600   -0.551268
     34          1           0        5.193049   -2.499633   -0.815960
 ---------------------------------------------------------------------

 SCF Done:  E(RHF) =  -669.536103217     A.U. after   15 cycles
 E2 =    -0.2092559021D+01 EUMP2 =    -0.67162866223816D+03

 The electronic state is 1-A.
 Alpha  occ. eigenvalues --  -20.60900 -20.60894 -15.85915 -11.31290 -11.27860
 Alpha  occ. eigenvalues --  -11.27837 -11.27590 -11.26871 -11.26852 -11.21741
 Alpha  occ. eigenvalues --  -11.21389 -11.21274 -11.21256 -11.21202 -11.20378
 Alpha  occ. eigenvalues --   -1.59952  -1.39509  -1.19456  -1.08851  -1.08343
 Alpha  occ. eigenvalues --   -1.04855  -1.03385  -0.95808  -0.95686  -0.86817
 Alpha  occ. eigenvalues --   -0.86253  -0.82518  -0.79465  -0.78140  -0.77567
 Alpha  occ. eigenvalues --   -0.72145  -0.71275  -0.70558  -0.65111  -0.64980
 Alpha  occ. eigenvalues --   -0.64854  -0.62201  -0.60786  -0.59220  -0.57420
 Alpha  occ. eigenvalues --   -0.55356  -0.55096  -0.53199  -0.52945  -0.52482
 Alpha  occ. eigenvalues --   -0.52221  -0.49765  -0.48907  -0.48904  -0.47776
 Alpha  occ. eigenvalues --   -0.46547  -0.45687  -0.45622  -0.44764  -0.43637
 Alpha  occ. eigenvalues --   -0.37427  -0.36450
 Alpha virt. eigenvalues --    0.04953   0.11150   0.16416   0.21311   0.22848
 Alpha virt. eigenvalues --    0.24326   0.26544   0.27227   0.27414   0.27873
 Alpha virt. eigenvalues --    0.28447   0.30658   0.31521   0.31825   0.32179

 Mulliken charges:
               1
     1  C   -0.171067
     2  C   -0.218656
     3  C   -0.173172
     4  C    0.158752
     5  C   -0.170251
     6  C   -0.218159
     7  H    0.226110
     8  H    0.223921
     9  H    0.276205
    10  H    0.276052
    11  H    0.224084
    12  N    0.488640
    13  O   -0.457900
    14  O   -0.457979
    15  C   -0.300011
    16  C   -0.300184
    17  C   -0.478227
    18  H    0.150378
    19  H    0.148271
    20  H    0.150795
    21  H    0.148253
    22  H    0.158879
    23  H    0.157616
    24  H    0.162006
    25  C   -0.297466
    26  C   -0.299025
    27  C   -0.475431
    28  H    0.150371
    29  H    0.147616
    30  H    0.152273
    31  H    0.148236
    32  H    0.154009
    33  H    0.156623
    34  H    0.158434
 Sum of Mulliken charges =  -0.00000

 Dipole moment (field-independent basis, Debye):
    X=              1.7042    Y=             -4.6794    Z=              1.1540  Tot=              5.1121
 Quadrupole moment (field-independent basis, Debye-Ang):
   XX=           -105.1226   YY=            -91.4896   ZZ=            -89.6143
   XY=             11.0278   XZ=             -3.2131   YZ=              0.8040

 Normal termination of Gaussian 16 at Thu May  6 19:12:12 2021.
