 Gaussian 16, Revision A.03,
 Gaussian 16:  EM64L-G16RevA.03 25-Dec-2016

 -------------
 #p 6-31g* mp2
 -------------

 ------------------------------------------------------
 Input file generated by CHIRIPA (05-May-2021 14:55:25)
 ------------------------------------------------------
 Symbolic Z-matrix:
 Charge =  0 Multiplicity = 1

                         Standard orientation:
 ---------------------------------------------------------------------
 Center     Atomic      Atomic             Coordinates (Angstroms)
 Number     Number       Type             X           Y           Z
 ---------------------------------------------------------------------
      1          6           0        0.297811   -0.415579    1.518227
      2          6           0        0.755685    0.883827    1.276532
      3          6           0        1.950361    1.098101    0.582713
      4          6           0        2.665147   -0.014973    0.142899
      5          6           0        2.235193   -1.321763    0.368133
      6          6           0        1.037722   -1.512293    1.064057
      7          1           0       -0.631327   -0.572809    2.058020
      8          1           0        0.183133    1.737436    1.628073
      9          1           0        2.327982    2.093329    0.381860
     10          1           0        2.827777   -2.152810    0.005336
     11          1           0        0.684558   -2.522553    1.250321
     12          7           0        3.931376    0.199301   -0.592730
     13          8           0        4.542668   -0.798097   -0.969768
     14          8           0        4.288578    1.360588   -0.778348
     15          6           0       -3.437136    0.720182   -0.078162
     16          6           0       -2.707984    1.958805   -0.599826
     17          6           0       -3.305510    3.263055   -0.070969
     18          1           0       -4.497157    0.780508   -0.360406
     19          1           0       -3.405643    0.720167    1.020202
     20          1           0       -2.739645    1.955764   -1.696916
     21          1           0       -1.649537    1.895432   -0.316472
     22          1           0       -3.259731    3.292260    1.022490
     23          1           0       -4.356034    3.352935   -0.365797
     24          1           0       -2.769112    4.135735   -0.456413
     25          6           0       -2.851394   -0.591444   -0.598036
     26          6           0       -3.580546   -1.830068   -0.076371
     27          6           0       -2.983019   -3.134317   -0.605228
     28          1           0       -2.882886   -0.591430   -1.696399
     29          1           0       -1.791373   -0.651769   -0.315791
     30          1           0       -4.638993   -1.766694   -0.359725
     31          1           0       -3.548884   -1.827025    1.020718
     32          1           0       -1.932496   -3.224196   -0.310402
     33          1           0       -3.028798   -3.163522   -1.698687
     34          1           0       -3.519418   -4.006996   -0.219784
 ---------------------------------------------------------------------

 SCF Done:  E(RHF) =  -669.534653533     A.U. after   15 cycles
 E2 =    -0.2094309850D+01 EUMP2 =    -0.67162896338308D+03

 The electronic state is 1-A.
 Alpha  occ. eigenvalues --  -20.60841 -20.60836 -15.85898 -11.31305 -11.27900
 Alpha  occ. eigenvalues --  -11.27895 -11.27644 -11.26911 -11.26897 -11.22360
 Alpha  occ. eigenvalues --  -11.22236 -11.22123 -11.21922 -11.21822 -11.21729
 Alpha  occ. eigenvalues --   -1.59916  -1.39468  -1.19505  -1.09165  -1.08869
 Alpha  occ. eigenvalues --   -1.04910  -1.04240  -0.96684  -0.95714  -0.87696
 Alpha  occ. eigenvalues --   -0.86305  -0.82541  -0.80291  -0.78937  -0.77571
 Alpha  occ. eigenvalues --   -0.72116  -0.71240  -0.70636  -0.65866  -0.65153
 Alpha  occ. eigenvalues --   -0.64847  -0.62298  -0.61620  -0.60035  -0.58281
 Alpha  occ. eigenvalues --   -0.56074  -0.55341  -0.53412  -0.53246  -0.53069
 Alpha  occ. eigenvalues --   -0.52996  -0.50641  -0.48878  -0.48867  -0.48603
 Alpha  occ. eigenvalues --   -0.47353  -0.46463  -0.46418  -0.44865  -0.44471
 Alpha  occ. eigenvalues --   -0.37364  -0.36488
 Alpha virt. eigenvalues --    0.04935   0.10935   0.16302   0.18832   0.22502
 Alpha virt. eigenvalues --    0.23506   0.25256   0.26336   0.27052   0.27491
 Alpha virt. eigenvalues --    0.29899   0.30423   0.30921   0.31404   0.31798

 Mulliken charges:
               1
     1  C   -0.173391
     2  C   -0.217417
     3  C   -0.171455
     4  C    0.158660
     5  C   -0.169706
     6  C   -0.219642
     7  H    0.229427
     8  H    0.225455
     9  H    0.276540
    10  H    0.276500
    11  H    0.225341
    12  N    0.488111
    13  O   -0.460018
    14  O   -0.460006
    15  C   -0.297822
    16  C   -0.305262
    17  C   -0.476313
    18  H    0.153020
    19  H    0.140741
    20  H    0.156506
    21  H    0.151725
    22  H    0.150793
    23  H    0.158342
    24  H    0.162333
    25  C   -0.308844
    26  C   -0.300040
    27  C   -0.475205
    28  H    0.153387
    29  H    0.157666
    30  H    0.155494
    31  H    0.144708
    32  H    0.148634
    33  H    0.159843
    34  H    0.161896
 Sum of Mulliken charges =  -0.00000

 Dipole moment (field-independent basis, Debye):
    X=             -4.4132    Y=             -0.7528    Z=              2.4855  Tot=              5.1206
 Quadrupole moment (field-independent basis, Debye-Ang):
   XX=           -118.7384   YY=            -90.8470   ZZ=            -94.1067
   XY=             -2.3229   XZ=              7.3087   YZ=              0.0089

 Normal termination of Gaussian 16 at Thu May  6 08:01:00 2021.
