 Gaussian 16, Revision A.03,
 Gaussian 16:  EM64L-G16RevA.03 25-Dec-2016

 -------------
 #p 6-31g* mp2
 -------------

 ------------------------------------------------------
 Input file generated by CHIRIPA (05-May-2021 14:55:22)
 ------------------------------------------------------
 Symbolic Z-matrix:
 Charge =  0 Multiplicity = 1

                         Standard orientation:
 ---------------------------------------------------------------------
 Center     Atomic      Atomic             Coordinates (Angstroms)
 Number     Number       Type             X           Y           Z
 ---------------------------------------------------------------------
      1          6           0       -5.491413   -1.301563   -0.339668
      2          6           0       -4.541424   -1.629472    0.633224
      3          6           0       -3.464416   -0.775874    0.890075
      4          6           0       -3.367833    0.402813    0.152065
      5          6           0       -4.298121    0.757338   -0.823726
      6          6           0       -5.366948   -0.111303   -1.063761
      7          1           0       -6.324881   -1.970502   -0.532665
      8          1           0       -4.635548   -2.553177    1.197097
      9          1           0       -2.714663   -1.005180    1.637542
     10          1           0       -4.177566    1.685149   -1.369667
     11          1           0       -6.103223    0.145928   -1.819921
     12          7           0       -2.231983    1.314442    0.415080
     13          8           0       -2.169458    2.346943   -0.248748
     14          8           0       -1.425736    0.979213    1.280080
     15          6           0        3.858366   -0.335685    0.183804
     16          6           0        2.763815   -0.857521   -0.747663
     17          6           0        1.384943   -0.876322   -0.087245
     18          1           0        3.891212   -0.960576    1.086787
     19          1           0        3.595533    0.678541    0.514955
     20          1           0        3.029314   -1.869928   -1.078055
     21          1           0        2.733700   -0.231432   -1.648618
     22          1           0        1.094589    0.131386    0.227108
     23          1           0        1.391884   -1.516420    0.800914
     24          1           0        0.617529   -1.252798   -0.770768
     25          6           0        5.242525   -0.310883   -0.462119
     26          6           0        6.337074    0.210953    0.469349
     27          6           0        7.715947    0.229754   -0.191068
     28          1           0        5.505356   -1.325109   -0.793269
     29          1           0        5.209679    0.314008   -1.365102
     30          1           0        6.367190   -0.415136    1.370305
     31          1           0        6.071575    1.223360    0.799741
     32          1           0        7.709006    0.869851   -1.079229
     33          1           0        8.006301   -0.777954   -0.505423
     34          1           0        8.483360    0.606229    0.492455
 ---------------------------------------------------------------------

 SCF Done:  E(RHF) =  -669.536137257     A.U. after   15 cycles
 E2 =    -0.2090945833D+01 EUMP2 =    -0.67162708308990D+03

 The electronic state is 1-A.
 Alpha  occ. eigenvalues --  -20.60890 -20.60863 -15.85900 -11.31233 -11.27800
 Alpha  occ. eigenvalues --  -11.27790 -11.27542 -11.26810 -11.26799 -11.21089
 Alpha  occ. eigenvalues --  -11.20804 -11.20794 -11.20649 -11.20631 -11.19980
 Alpha  occ. eigenvalues --   -1.59935  -1.39490  -1.19403  -1.08807  -1.07766
 Alpha  occ. eigenvalues --   -1.04800  -1.02839  -0.95650  -0.95273  -0.86290
 Alpha  occ. eigenvalues --   -0.86200  -0.82481  -0.78915  -0.77580  -0.77517
 Alpha  occ. eigenvalues --   -0.72128  -0.71244  -0.70513  -0.65059  -0.64805
 Alpha  occ. eigenvalues --   -0.64397  -0.62147  -0.60232  -0.58683  -0.56892
 Alpha  occ. eigenvalues --   -0.55308  -0.54550  -0.53132  -0.52893  -0.51996
 Alpha  occ. eigenvalues --   -0.51687  -0.49250  -0.48886  -0.48848  -0.47226
 Alpha  occ. eigenvalues --   -0.45971  -0.45170  -0.45066  -0.44709  -0.43109
 Alpha  occ. eigenvalues --   -0.37382  -0.36402
 Alpha virt. eigenvalues --    0.04974   0.11248   0.16454   0.21372   0.23513
 Alpha virt. eigenvalues --    0.25001   0.27244   0.27355   0.28037   0.28205
 Alpha virt. eigenvalues --    0.28833   0.30935   0.32131   0.32258   0.32653

 Mulliken charges:
               1
     1  C   -0.170650
     2  C   -0.218664
     3  C   -0.170430
     4  C    0.158501
     5  C   -0.170903
     6  C   -0.218637
     7  H    0.225755
     8  H    0.223682
     9  H    0.276462
    10  H    0.275624
    11  H    0.223560
    12  N    0.488331
    13  O   -0.460055
    14  O   -0.458546
    15  C   -0.298311
    16  C   -0.299565
    17  C   -0.480639
    18  H    0.147802
    19  H    0.154198
    20  H    0.146354
    21  H    0.151007
    22  H    0.179827
    23  H    0.149490
    24  H    0.150042
    25  C   -0.297800
    26  C   -0.299371
    27  C   -0.475365
    28  H    0.147186
    29  H    0.149262
    30  H    0.150962
    31  H    0.153103
    32  H    0.154851
    33  H    0.153854
    34  H    0.159083
 Sum of Mulliken charges =  -0.00000

 Dipole moment (field-independent basis, Debye):
    X=             -4.2072    Y=             -3.0761    Z=             -0.8502  Tot=              5.2807
 Quadrupole moment (field-independent basis, Debye-Ang):
   XX=            -69.6156   YY=            -95.1053   ZZ=            -93.1255
   XY=              8.3044   XZ=              4.5643   YZ=             -3.8169

 Normal termination of Gaussian 16 at Wed May  5 19:01:16 2021.
