 Gaussian 16, Revision A.03,
 Gaussian 16:  EM64L-G16RevA.03 25-Dec-2016

 -------------
 #p 6-31g* mp2
 -------------

 ------------------------------------------------------
 Input file generated by CHIRIPA (05-May-2021 14:51:12)
 ------------------------------------------------------
 Symbolic Z-matrix:
 Charge =  0 Multiplicity = 1

                         Standard orientation:
 ---------------------------------------------------------------------
 Center     Atomic      Atomic             Coordinates (Angstroms)
 Number     Number       Type             X           Y           Z
 ---------------------------------------------------------------------
      1          6           0       -3.042657    0.389229    0.003373
      2          6           0       -4.521985    0.775954    0.007750
      3          6           0       -4.737502    2.288068    0.077443
      4          1           0       -2.563278    0.788062    0.907846
      5          1           0       -2.547459    0.870884   -0.851134
      6          1           0       -5.014538    0.292601    0.861200
      7          1           0       -4.997940    0.375990   -0.896745
      8          1           0       -4.271948    2.783508   -0.780694
      9          1           0       -4.288640    2.699645    0.987239
     10          1           0       -5.802057    2.542192    0.079446
     11          6           0       -2.811013   -1.119167   -0.065992
     12          6           0       -1.331686   -1.505892   -0.070369
     13          6           0       -1.116169   -3.018007   -0.140062
     14          1           0       -3.306212   -1.600822    0.788515
     15          1           0       -3.290392   -1.518001   -0.970465
     16          1           0       -0.855731   -1.105928    0.834126
     17          1           0       -0.839133   -1.022539   -0.923819
     18          1           0       -1.565030   -3.429583   -1.049858
     19          1           0       -1.581723   -3.513446    0.718076
     20          1           0       -0.051614   -3.272130   -0.142065
     21          6           0        2.778967    1.048568    0.338328
     22          6           0        3.275954    2.216512   -0.514254
     23          6           0        2.972753    3.577466    0.113173
     24          1           0        1.695901    1.149932    0.492071
     25          1           0        3.242604    1.106334    1.332862
     26          1           0        2.812582    2.155775   -1.507338
     27          1           0        4.357931    2.112251   -0.666146
     28          1           0        3.448368    3.663341    1.095526
     29          1           0        1.894238    3.707113    0.249555
     30          1           0        3.336632    4.398171   -0.512842
     31          6           0        3.074703   -0.318629   -0.275709
     32          6           0        2.577717   -1.486573    0.576873
     33          6           0        2.880918   -2.847528   -0.050554
     34          1           0        2.611067   -0.376396   -1.270244
     35          1           0        4.157770   -0.419995   -0.429452
     36          1           0        1.495739   -1.382313    0.728765
     37          1           0        3.041088   -1.425837    1.569956
     38          1           0        3.959432   -2.977175   -0.186936
     39          1           0        2.405303   -2.933403   -1.032907
     40          1           0        2.517038   -3.668233    0.575462
 ---------------------------------------------------------------------

 SCF Done:  E(RHF) =  -470.732337894     A.U. after   11 cycles
 E2 =    -0.1584306277D+01 EUMP2 =    -0.47231664417118D+03

 The electronic state is 1-A.
 Alpha  occ. eigenvalues --  -11.21672 -11.21637 -11.21578 -11.21497 -11.21453
 Alpha  occ. eigenvalues --  -11.21393 -11.21367 -11.21308 -11.21099 -11.21072
 Alpha  occ. eigenvalues --  -11.21051 -11.21036  -1.08496  -1.08381  -1.03633
 Alpha  occ. eigenvalues --   -1.03452  -0.96070  -0.95910  -0.87072  -0.86936
 Alpha  occ. eigenvalues --   -0.79738  -0.79494  -0.78360  -0.78145  -0.65130
 Alpha  occ. eigenvalues --   -0.65044  -0.61123  -0.60947  -0.59516  -0.59129
 Alpha  occ. eigenvalues --   -0.57735  -0.57409  -0.55295  -0.55242  -0.52786
 Alpha  occ. eigenvalues --   -0.52566  -0.52419  -0.52345  -0.49955  -0.49922
 Alpha  occ. eigenvalues --   -0.48068  -0.47813  -0.46812  -0.46508  -0.46008
 Alpha  occ. eigenvalues --   -0.45776  -0.45713  -0.45379  -0.43838  -0.43716
 Alpha virt. eigenvalues --    0.20838   0.23114   0.23503   0.24985   0.25713
 Alpha virt. eigenvalues --    0.26319   0.26945   0.27482   0.28524   0.29224
 Alpha virt. eigenvalues --    0.30936   0.31173   0.31548   0.31742   0.32548

 Mulliken charges:
               1
     1  C   -0.298502
     2  C   -0.299662
     3  C   -0.475766
     4  H    0.149572
     5  H    0.149173
     6  H    0.152111
     7  H    0.152069
     8  H    0.155151
     9  H    0.155264
    10  H    0.160435
    11  C   -0.297226
    12  C   -0.303336
    13  C   -0.485101
    14  H    0.149904
    15  H    0.149870
    16  H    0.153061
    17  H    0.151703
    18  H    0.155210
    19  H    0.154999
    20  H    0.171765
    21  C   -0.299219
    22  C   -0.299526
    23  C   -0.475767
    24  H    0.150575
    25  H    0.149251
    26  H    0.151708
    27  H    0.151866
    28  H    0.155066
    29  H    0.155366
    30  H    0.160128
    31  C   -0.297275
    32  C   -0.310867
    33  C   -0.479109
    34  H    0.149016
    35  H    0.149336
    36  H    0.165364
    37  H    0.151338
    38  H    0.156485
    39  H    0.155390
    40  H    0.160183
 Sum of Mulliken charges =  -0.00000

 Dipole moment (field-independent basis, Debye):
    X=             -0.0273    Y=             -0.0135    Z=              0.0073  Tot=              0.0313
 Quadrupole moment (field-independent basis, Debye-Ang):
   XX=            -84.2140   YY=            -87.0386   ZZ=            -83.6043
   XY=              0.4578   XZ=              0.4847   YZ=             -0.4549

 Normal termination of Gaussian 16 at Wed May  5 15:18:00 2021.
