 Gaussian 16, Revision A.03,
 Gaussian 16:  EM64L-G16RevA.03 25-Dec-2016

 -------------
 #p 6-31g* mp2
 -------------

 ------------------------------------------------------
 Input file generated by CHIRIPA (05-May-2021 14:57:21)
 ------------------------------------------------------
 Symbolic Z-matrix:
 Charge =  0 Multiplicity = 1

                         Standard orientation:
 ---------------------------------------------------------------------
 Center     Atomic      Atomic             Coordinates (Angstroms)
 Number     Number       Type             X           Y           Z
 ---------------------------------------------------------------------
      1          6           0        5.789475   -0.236358   -0.449700
      2          6           0        5.260911   -0.986139    0.606220
      3          6           0        3.915246   -0.859042    0.963404
      4          6           0        3.123197    0.031235    0.239970
      5          6           0        3.620443    0.792115   -0.816958
      6          6           0        4.969000    0.648816   -1.156673
      7          1           0        6.835943   -0.341383   -0.720384
      8          1           0        5.895752   -1.674350    1.157027
      9          1           0        3.480130   -1.427273    1.776549
     10          1           0        2.962838    1.470014   -1.347455
     11          1           0        5.376773    1.232388   -1.977167
     12          7           0        1.697071    0.174363    0.608858
     13          8           0        1.020181    0.965573   -0.044170
     14          8           0        1.283166   -0.507372    1.544035
     15          6           0       -3.108644    2.471583    0.217127
     16          6           0       -2.285535    1.824611   -0.710472
     17          6           0       -2.414989    0.451312   -0.938158
     18          6           0       -3.382370   -0.247328   -0.217486
     19          6           0       -4.217388    0.368778    0.713346
     20          6           0       -4.070248    1.742886    0.924827
     21          1           0       -3.001211    3.538708    0.387705
     22          1           0       -1.537879    2.387994   -1.261522
     23          1           0       -1.790944   -0.074690   -1.650413
     24          1           0       -4.953615   -0.219512    1.247483
     25          1           0       -4.710867    2.242699    1.645828
     26          7           0       -3.528779   -1.701606   -0.449949
     27          8           0       -4.388702   -2.294582    0.197776
     28          8           0       -2.780839   -2.220956   -1.275478
 ---------------------------------------------------------------------

 SCF Done:  E(RHF) =  -868.338698880     A.U. after   16 cycles
 E2 =    -0.2599570822D+01 EUMP2 =    -0.87093826970211D+03

 The electronic state is 1-A.
 Alpha  occ. eigenvalues --  -20.61257 -20.61176 -20.59633 -20.59628 -15.86263
 Alpha  occ. eigenvalues --  -15.84677 -11.31490 -11.29789 -11.28080 -11.28011
 Alpha  occ. eigenvalues --  -11.27755 -11.27044 -11.27003 -11.26386 -11.26266
 Alpha  occ. eigenvalues --  -11.26083 -11.25420 -11.25241  -1.60278  -1.58707
 Alpha  occ. eigenvalues --   -1.39843  -1.38270  -1.19648  -1.17939  -1.09066
 Alpha  occ. eigenvalues --   -1.07406  -1.05034  -1.03303  -0.95927  -0.94282
 Alpha  occ. eigenvalues --   -0.86439  -0.84746  -0.82775  -0.81120  -0.77836
 Alpha  occ. eigenvalues --   -0.76189  -0.72499  -0.71587  -0.70916  -0.70759
 Alpha  occ. eigenvalues --   -0.70010  -0.69117  -0.65309  -0.65037  -0.63615
 Alpha  occ. eigenvalues --   -0.63351  -0.62388  -0.60682  -0.55537  -0.53898
 Alpha  occ. eigenvalues --   -0.53364  -0.53128  -0.51661  -0.51437  -0.49237
 Alpha  occ. eigenvalues --   -0.49196  -0.47674  -0.47646  -0.45280  -0.43733
 Alpha  occ. eigenvalues --   -0.37616  -0.36629  -0.35935  -0.34799
 Alpha virt. eigenvalues --    0.04685   0.06355   0.11028   0.12783   0.16216
 Alpha virt. eigenvalues --    0.17887   0.21154   0.22693   0.27069   0.27903
 Alpha virt. eigenvalues --    0.28698   0.29535   0.30752   0.32044   0.32420

 Mulliken charges:
               1
     1  C   -0.170193
     2  C   -0.218323
     3  C   -0.169731
     4  C    0.158704
     5  C   -0.170610
     6  C   -0.218214
     7  H    0.226834
     8  H    0.225184
     9  H    0.277591
    10  H    0.271328
    11  H    0.223639
    12  N    0.491333
    13  O   -0.471946
    14  O   -0.453602
    15  C   -0.172728
    16  C   -0.201361
    17  C   -0.158632
    18  C    0.157828
    19  C   -0.172350
    20  C   -0.218454
    21  H    0.219991
    22  H    0.222679
    23  H    0.272057
    24  H    0.270760
    25  H    0.217671
    26  N    0.488978
    27  O   -0.464800
    28  O   -0.463635
 Sum of Mulliken charges =  -0.00000

 Dipole moment (field-independent basis, Debye):
    X=              6.0083    Y=              4.5784    Z=             -0.4401  Tot=              7.5667
 Quadrupole moment (field-independent basis, Debye-Ang):
   XX=            -75.9799   YY=           -106.6074   ZZ=           -101.7487
   XY=            -19.6132   XZ=             -7.9702   YZ=             -4.7029

 Normal termination of Gaussian 16 at Thu May  6 17:51:59 2021.
