 Gaussian 16, Revision A.03,
 Gaussian 16:  EM64L-G16RevA.03 25-Dec-2016

 -------------
 #p 6-31g* mp2
 -------------

 ------------------------------------------------------
 Input file generated by CHIRIPA (05-May-2021 14:55:20)
 ------------------------------------------------------
 Symbolic Z-matrix:
 Charge =  0 Multiplicity = 1

                         Standard orientation:
 ---------------------------------------------------------------------
 Center     Atomic      Atomic             Coordinates (Angstroms)
 Number     Number       Type             X           Y           Z
 ---------------------------------------------------------------------
      1          6           0       -4.561416    0.348108   -1.312988
      2          6           0       -4.659755    0.479579    0.076100
      3          6           0       -3.587866    0.124715    0.900523
      4          6           0       -2.427355   -0.360352    0.299512
      5          6           0       -2.298782   -0.502839   -1.081233
      6          6           0       -3.383320   -0.141818   -1.886210
      7          1           0       -5.398998    0.626166   -1.945866
      8          1           0       -5.573454    0.859779    0.524037
      9          1           0       -3.637001    0.216349    1.978765
     10          1           0       -1.375044   -0.884821   -1.498624
     11          1           0       -3.304119   -0.244983   -2.964695
     12          7           0       -1.285898   -0.739290    1.161998
     13          8           0       -0.274392   -1.164118    0.607910
     14          8           0       -1.424343   -0.604297    2.375772
     15          6           0        2.831015    0.939287   -0.272220
     16          6           0        3.353313    2.308483    0.164233
     17          6           0        2.307909    3.414452    0.016735
     18          1           0        2.500687    0.996397   -1.318435
     19          1           0        1.942398    0.686872    0.322792
     20          1           0        4.241498    2.557624   -0.430473
     21          1           0        3.682616    2.248059    1.209472
     22          1           0        1.424005    3.192440    0.623387
     23          1           0        1.986062    3.503766   -1.025876
     24          1           0        2.702387    4.384702    0.334321
     25          6           0        3.864615   -0.176667   -0.130631
     26          6           0        3.342317   -1.545863   -0.567084
     27          6           0        4.387722   -2.651832   -0.419587
     28          1           0        4.753233    0.075748   -0.725644
     29          1           0        4.194943   -0.233776    0.915584
     30          1           0        3.013014   -1.485438   -1.612323
     31          1           0        2.454133   -1.795003    0.027621
     32          1           0        4.709568   -2.741144    0.623025
     33          1           0        5.271625   -2.429820   -1.026239
     34          1           0        3.993243   -3.622082   -0.737172
 ---------------------------------------------------------------------

 SCF Done:  E(RHF) =  -669.536387930     A.U. after   15 cycles
 E2 =    -0.2091802409D+01 EUMP2 =    -0.67162819033935D+03

 The electronic state is 1-A.
 Alpha  occ. eigenvalues --  -20.61062 -20.61051 -15.86075 -11.31332 -11.27892
 Alpha  occ. eigenvalues --  -11.27881 -11.27621 -11.26885 -11.26874 -11.20808
 Alpha  occ. eigenvalues --  -11.20503 -11.20338 -11.20278 -11.20241 -11.20091
 Alpha  occ. eigenvalues --   -1.60113  -1.39670  -1.19496  -1.08915  -1.07395
 Alpha  occ. eigenvalues --   -1.04883  -1.02588  -0.95767  -0.95072  -0.86287
 Alpha  occ. eigenvalues --   -0.86097  -0.82607  -0.78643  -0.77684  -0.77160
 Alpha  occ. eigenvalues --   -0.72305  -0.71416  -0.70606  -0.65158  -0.64887
 Alpha  occ. eigenvalues --   -0.64006  -0.62230  -0.59981  -0.58450  -0.56674
 Alpha  occ. eigenvalues --   -0.55393  -0.54369  -0.53218  -0.52975  -0.51803
 Alpha  occ. eigenvalues --   -0.51506  -0.49092  -0.49062  -0.49018  -0.46977
 Alpha  occ. eigenvalues --   -0.45684  -0.45236  -0.44763  -0.44322  -0.42814
 Alpha  occ. eigenvalues --   -0.37472  -0.36480
 Alpha virt. eigenvalues --    0.04834   0.11175   0.16321   0.21263   0.23885
 Alpha virt. eigenvalues --    0.25156   0.27134   0.27710   0.27732   0.28674
 Alpha virt. eigenvalues --    0.29156   0.31032   0.32209   0.32298   0.32784

 Mulliken charges:
               1
     1  C   -0.170339
     2  C   -0.218641
     3  C   -0.170378
     4  C    0.157197
     5  C   -0.170293
     6  C   -0.218578
     7  H    0.226195
     8  H    0.223944
     9  H    0.275817
    10  H    0.276649
    11  H    0.224085
    12  N    0.494184
    13  O   -0.465046
    14  O   -0.458448
    15  C   -0.304658
    16  C   -0.298689
    17  C   -0.474866
    18  H    0.140790
    19  H    0.168784
    20  H    0.148149
    21  H    0.152590
    22  H    0.155214
    23  H    0.150928
    24  H    0.157566
    25  C   -0.296289
    26  C   -0.309332
    27  C   -0.474820
    28  H    0.143030
    29  H    0.149740
    30  H    0.142480
    31  H    0.181191
    32  H    0.154891
    33  H    0.149810
    34  H    0.157145
 Sum of Mulliken charges =  -0.00000

 Dipole moment (field-independent basis, Debye):
    X=             -4.3785    Y=              1.2186    Z=             -2.8723  Tot=              5.3765
 Quadrupole moment (field-independent basis, Debye-Ang):
   XX=            -75.7327   YY=            -97.6391   ZZ=            -92.6776
   XY=             -2.1482   XZ=              4.1285   YZ=              2.5036

 Normal termination of Gaussian 16 at Thu May  6 17:24:56 2021.
