 Gaussian 16, Revision A.03,
 Gaussian 16:  EM64L-G16RevA.03 25-Dec-2016

 -------------
 #p 6-31g* mp2
 -------------

 ------------------------------------------------------
 Input file generated by CHIRIPA (05-May-2021 14:53:18)
 ------------------------------------------------------
 Symbolic Z-matrix:
 Charge =  0 Multiplicity = 1

                         Standard orientation:
 ---------------------------------------------------------------------
 Center     Atomic      Atomic             Coordinates (Angstroms)
 Number     Number       Type             X           Y           Z
 ---------------------------------------------------------------------
      1          6           0        3.256098   -0.718145   -0.443419
      2          6           0        4.065068   -1.740573    0.355451
      3          6           0        4.138433   -3.104094   -0.332461
      4          1           0        2.240400   -1.106047   -0.601008
      5          1           0        3.704992   -0.603511   -1.439787
      6          1           0        3.615597   -1.852219    1.350502
      7          1           0        5.078901   -1.350109    0.511321
      8          1           0        4.606705   -3.013702   -1.317931
      9          1           0        3.135087   -3.518665   -0.473982
     10          1           0        4.721323   -3.819688    0.255777
     11          6           0        3.173673    0.649901    0.231401
     12          6           0        2.364703    1.672330   -0.567469
     13          6           0        2.291338    3.035850    0.120443
     14          1           0        2.724779    0.535267    1.227769
     15          1           0        4.189371    1.037803    0.388990
     16          1           0        1.350870    1.281865   -0.723339
     17          1           0        2.814174    1.783975   -1.562520
     18          1           0        3.294685    3.450421    0.261964
     19          1           0        1.823066    2.945458    1.105913
     20          1           0        1.708448    3.751444   -0.467795
     21          6           0       -1.238300    2.198332    0.251295
     22          6           0       -1.224814    1.294356    1.318612
     23          6           0       -1.926714    0.088076    1.236302
     24          6           0       -2.634730   -0.183292    0.066531
     25          6           0       -2.667494    0.696990   -1.013894
     26          6           0       -1.958326    1.897295   -0.909506
     27          1           0       -0.690224    3.133078    0.323812
     28          1           0       -0.666498    1.525504    2.221329
     29          1           0       -1.933329   -0.629729    2.047555
     30          1           0       -3.233178    0.438732   -1.900868
     31          1           0       -1.970587    2.597449   -1.739973
     32          7           0       -3.381646   -1.457164   -0.032293
     33          8           0       -3.997705   -1.672737   -1.073752
     34          8           0       -3.336878   -2.215929    0.933578
 ---------------------------------------------------------------------

 SCF Done:  E(RHF) =  -669.534702605     A.U. after   15 cycles
 E2 =    -0.2093384652D+01 EUMP2 =    -0.67162808725667D+03

 The electronic state is 1-A.
 Alpha  occ. eigenvalues --  -20.60803 -20.60798 -15.85859 -11.31228 -11.27825
 Alpha  occ. eigenvalues --  -11.27819 -11.27492 -11.26813 -11.26798 -11.22189
 Alpha  occ. eigenvalues --  -11.22127 -11.21899 -11.21837 -11.21687 -11.21184
 Alpha  occ. eigenvalues --   -1.59880  -1.39433  -1.19421  -1.08924  -1.08766
 Alpha  occ. eigenvalues --   -1.04823  -1.04027  -0.96525  -0.95622  -0.87526
 Alpha  occ. eigenvalues --   -0.86216  -0.82466  -0.80092  -0.78650  -0.77515
 Alpha  occ. eigenvalues --   -0.72076  -0.71206  -0.70543  -0.65537  -0.65061
 Alpha  occ. eigenvalues --   -0.64812  -0.62173  -0.61435  -0.59938  -0.58099
 Alpha  occ. eigenvalues --   -0.55958  -0.55140  -0.53219  -0.53116  -0.52923
 Alpha  occ. eigenvalues --   -0.52899  -0.50424  -0.48835  -0.48830  -0.48398
 Alpha  occ. eigenvalues --   -0.47101  -0.46202  -0.46095  -0.44838  -0.44263
 Alpha  occ. eigenvalues --   -0.37308  -0.36439
 Alpha virt. eigenvalues --    0.05012   0.11137   0.16453   0.19963   0.22825
 Alpha virt. eigenvalues --    0.24243   0.25353   0.26555   0.26647   0.27746
 Alpha virt. eigenvalues --    0.29617   0.29886   0.31267   0.31441   0.32202

 Mulliken charges:
               1
     1  C   -0.299384
     2  C   -0.299834
     3  C   -0.476358
     4  H    0.152715
     5  H    0.150296
     6  H    0.151538
     7  H    0.151679
     8  H    0.155347
     9  H    0.157976
    10  H    0.161234
    11  C   -0.297043
    12  C   -0.306378
    13  C   -0.478814
    14  H    0.145931
    15  H    0.150307
    16  H    0.160970
    17  H    0.153549
    18  H    0.161699
    19  H    0.146897
    20  H    0.153609
    21  C   -0.170057
    22  C   -0.220484
    23  C   -0.171117
    24  C    0.157860
    25  C   -0.170491
    26  C   -0.220307
    27  H    0.232277
    28  H    0.223603
    29  H    0.275697
    30  H    0.275918
    31  H    0.223878
    32  N    0.488113
    33  O   -0.460295
    34  O   -0.460530
 Sum of Mulliken charges =  -0.00000

 Dipole moment (field-independent basis, Debye):
    X=              2.6701    Y=              4.4141    Z=              0.2917  Tot=              5.1671
 Quadrupole moment (field-independent basis, Debye-Ang):
   XX=           -108.0611   YY=            -97.8070   ZZ=            -90.5599
   XY=            -12.6382   XZ=              0.4169   YZ=             -1.6632

 Normal termination of Gaussian 16 at Thu May  6 10:43:59 2021.
