 Gaussian 16, Revision A.03,
 Gaussian 16:  EM64L-G16RevA.03 25-Dec-2016

 -------------
 #p 6-31g* mp2
 -------------

 ------------------------------------------------------
 Input file generated by CHIRIPA (05-May-2021 14:53:11)
 ------------------------------------------------------
 Symbolic Z-matrix:
 Charge =  0 Multiplicity = 1

                         Standard orientation:
 ---------------------------------------------------------------------
 Center     Atomic      Atomic             Coordinates (Angstroms)
 Number     Number       Type             X           Y           Z
 ---------------------------------------------------------------------
      1          6           0        2.942816    1.208050   -0.506239
      2          6           0        1.739210    1.695517    0.301037
      3          6           0        0.887636    2.710664   -0.461913
      4          1           0        3.562021    2.071115   -0.786683
      5          1           0        2.588662    0.759335   -1.444655
      6          1           0        2.095446    2.141934    1.238279
      7          1           0        1.122899    0.831172    0.579755
      8          1           0        0.504412    2.272536   -1.389158
      9          1           0        1.482485    3.590745   -0.726892
     10          1           0        0.032724    3.045779    0.133640
     11          6           0        3.803825    0.192735    0.243111
     12          6           0        5.007431   -0.294732   -0.564165
     13          6           0        5.859004   -1.309880    0.198785
     14          1           0        4.157978    0.641450    1.181527
     15          1           0        3.184619   -0.670330    0.523555
     16          1           0        5.623741    0.569613   -0.842883
     17          1           0        4.651194   -0.741149   -1.501407
     18          1           0        5.264156   -2.189960    0.463764
     19          1           0        6.242229   -0.871751    1.126030
     20          1           0        6.713916   -1.644994   -0.396768
     21          6           0       -0.594840   -2.005576    0.376829
     22          6           0       -1.461248   -2.209568   -0.702174
     23          6           0       -2.594870   -1.407524   -0.863957
     24          6           0       -2.832681   -0.406189    0.076290
     25          6           0       -1.988370   -0.178248    1.161866
     26          6           0       -0.860698   -0.992353    1.303770
     27          1           0        0.283473   -2.633307    0.494785
     28          1           0       -1.257282   -2.995695   -1.423595
     29          1           0       -3.282301   -1.543654   -1.689987
     30          1           0       -2.218074    0.613358    1.864726
     31          1           0       -0.189585   -0.831646    2.142713
     32          7           0       -4.029646    0.449283   -0.084460
     33          8           0       -4.216884    1.324742    0.757651
     34          8           0       -4.757925    0.228144   -1.049522
 ---------------------------------------------------------------------

 SCF Done:  E(RHF) =  -669.535050612     A.U. after   15 cycles
 E2 =    -0.2092942302D+01 EUMP2 =    -0.67162799291466D+03

 The electronic state is 1-A.
 Alpha  occ. eigenvalues --  -20.60821 -20.60816 -15.85876 -11.31278 -11.27841
 Alpha  occ. eigenvalues --  -11.27836 -11.27595 -11.26870 -11.26855 -11.22136
 Alpha  occ. eigenvalues --  -11.21989 -11.21867 -11.21775 -11.21616 -11.21228
 Alpha  occ. eigenvalues --   -1.59895  -1.39448  -1.19457  -1.08911  -1.08834
 Alpha  occ. eigenvalues --   -1.04870  -1.03934  -0.96386  -0.95670  -0.87397
 Alpha  occ. eigenvalues --   -0.86261  -0.82504  -0.80019  -0.78735  -0.77538
 Alpha  occ. eigenvalues --   -0.72093  -0.71217  -0.70553  -0.65559  -0.65106
 Alpha  occ. eigenvalues --   -0.64853  -0.62216  -0.61341  -0.59763  -0.58008
 Alpha  occ. eigenvalues --   -0.55693  -0.55353  -0.53230  -0.53018  -0.52963
 Alpha  occ. eigenvalues --   -0.52796  -0.50325  -0.48857  -0.48846  -0.48326
 Alpha  occ. eigenvalues --   -0.47062  -0.46270  -0.46189  -0.44845  -0.44204
 Alpha  occ. eigenvalues --   -0.37406  -0.36391
 Alpha virt. eigenvalues --    0.04978   0.11083   0.16417   0.20430   0.22685
 Alpha virt. eigenvalues --    0.23881   0.25647   0.26537   0.27066   0.27907
 Alpha virt. eigenvalues --    0.29296   0.30314   0.31134   0.31520   0.31897

 Mulliken charges:
               1
     1  C   -0.297415
     2  C   -0.308548
     3  C   -0.475287
     4  H    0.151694
     5  H    0.149704
     6  H    0.149357
     7  H    0.154950
     8  H    0.156786
     9  H    0.156147
    10  H    0.162199
    11  C   -0.296413
    12  C   -0.299903
    13  C   -0.475374
    14  H    0.150463
    15  H    0.139521
    16  H    0.154685
    17  H    0.151589
    18  H    0.151555
    19  H    0.156304
    20  H    0.162146
    21  C   -0.171517
    22  C   -0.218309
    23  C   -0.170914
    24  C    0.159084
    25  C   -0.169820
    26  C   -0.219282
    27  H    0.226367
    28  H    0.223856
    29  H    0.275983
    30  H    0.276250
    31  H    0.226207
    32  N    0.488146
    33  O   -0.460101
    34  O   -0.460107
 Sum of Mulliken charges =  -0.00000

 Dipole moment (field-independent basis, Debye):
    X=              4.1711    Y=             -2.9885    Z=              0.5259  Tot=              5.1580
 Quadrupole moment (field-independent basis, Debye-Ang):
   XX=           -119.0659   YY=            -91.4873   ZZ=            -91.4991
   XY=              8.6389   XZ=             -0.3216   YZ=              2.5180

 Normal termination of Gaussian 16 at Wed May  5 18:29:31 2021.
