 Gaussian 16, Revision A.03,
 Gaussian 16:  EM64L-G16RevA.03 25-Dec-2016

 -------------
 #p 6-31g* mp2
 -------------

 ------------------------------------------------------
 Input file generated by CHIRIPA (05-May-2021 14:53:16)
 ------------------------------------------------------
 Symbolic Z-matrix:
 Charge =  0 Multiplicity = 1

                         Standard orientation:
 ---------------------------------------------------------------------
 Center     Atomic      Atomic             Coordinates (Angstroms)
 Number     Number       Type             X           Y           Z
 ---------------------------------------------------------------------
      1          6           0       -3.758781   -0.293461   -0.035866
      2          6           0       -2.954929   -1.575210    0.185330
      3          6           0       -3.837100   -2.822295    0.251261
      4          1           0       -4.491778   -0.183374    0.775024
      5          1           0       -4.334506   -0.386122   -0.967182
      6          1           0       -2.379823   -1.479611    1.115238
      7          1           0       -2.223631   -1.682159   -0.626077
      8          1           0       -4.400346   -2.945385   -0.679440
      9          1           0       -4.557425   -2.741686    1.071769
     10          1           0       -3.242038   -3.727062    0.409878
     11          6           0       -2.890820    0.961818   -0.104025
     12          6           0       -3.694672    2.243566   -0.325220
     13          6           0       -2.812502    3.490652   -0.391151
     14          1           0       -2.315095    1.054478    0.827292
     15          1           0       -2.157823    0.851731   -0.914914
     16          1           0       -4.425970    2.350515    0.486187
     17          1           0       -4.269779    2.147967   -1.255128
     18          1           0       -2.092176    3.410042   -1.211660
     19          1           0       -2.249255    3.613741    0.539549
     20          1           0       -3.407563    4.395419   -0.549768
     21          6           0        4.130581    1.737112    0.205741
     22          6           0        2.866965    1.777469    0.804213
     23          6           0        2.009202    0.676196    0.726838
     24          6           0        2.449288   -0.454254    0.040037
     25          6           0        3.702375   -0.525056   -0.566636
     26          6           0        4.543524    0.588004   -0.476569
     27          1           0        4.790459    2.597185    0.270778
     28          1           0        2.543617    2.668548    1.334752
     29          1           0        1.025759    0.680446    1.180976
     30          1           0        3.996772   -1.427394   -1.088685
     31          1           0        5.524321    0.553832   -0.942312
     32          7           0        1.550006   -1.626362   -0.048594
     33          8           0        1.961304   -2.610414   -0.659423
     34          8           0        0.450878   -1.538814    0.494444
 ---------------------------------------------------------------------

 SCF Done:  E(RHF) =  -669.535554765     A.U. after   15 cycles
 E2 =    -0.2091838431D+01 EUMP2 =    -0.67162739319553D+03

 The electronic state is 1-A.
 Alpha  occ. eigenvalues --  -20.60883 -20.60870 -15.85909 -11.31245 -11.27813
 Alpha  occ. eigenvalues --  -11.27804 -11.27552 -11.26822 -11.26810 -11.21290
 Alpha  occ. eigenvalues --  -11.21016 -11.20857 -11.20504 -11.20081 -11.19870
 Alpha  occ. eigenvalues --   -1.59947  -1.39503  -1.19417  -1.08820  -1.07706
 Alpha  occ. eigenvalues --   -1.04813  -1.02749  -0.95662  -0.95286  -0.86317
 Alpha  occ. eigenvalues --   -0.86212  -0.82502  -0.78879  -0.77635  -0.77282
 Alpha  occ. eigenvalues --   -0.72124  -0.71263  -0.70525  -0.65071  -0.64817
 Alpha  occ. eigenvalues --   -0.64356  -0.62160  -0.60156  -0.58702  -0.56823
 Alpha  occ. eigenvalues --   -0.55319  -0.54616  -0.53147  -0.52905  -0.51989
 Alpha  occ. eigenvalues --   -0.51692  -0.49284  -0.48928  -0.48897  -0.47142
 Alpha  occ. eigenvalues --   -0.45945  -0.45224  -0.44823  -0.44528  -0.43018
 Alpha  occ. eigenvalues --   -0.37397  -0.36415
 Alpha virt. eigenvalues --    0.04967   0.11234   0.16454   0.21037   0.23269
 Alpha virt. eigenvalues --    0.25061   0.25880   0.27569   0.27676   0.28527
 Alpha virt. eigenvalues --    0.29230   0.31156   0.32049   0.32096   0.32768

 Mulliken charges:
               1
     1  C   -0.299583
     2  C   -0.295869
     3  C   -0.476935
     4  H    0.145114
     5  H    0.145986
     6  H    0.160424
     7  H    0.162963
     8  H    0.149684
     9  H    0.148635
    10  H    0.164963
    11  C   -0.295541
    12  C   -0.298792
    13  C   -0.474787
    14  H    0.144629
    15  H    0.149819
    16  H    0.151274
    17  H    0.152225
    18  H    0.153757
    19  H    0.149470
    20  H    0.159491
    21  C   -0.170629
    22  C   -0.218678
    23  C   -0.171137
    24  C    0.157181
    25  C   -0.170713
    26  C   -0.218671
    27  H    0.225867
    28  H    0.223987
    29  H    0.276814
    30  H    0.275630
    31  H    0.223596
    32  N    0.492285
    33  O   -0.460035
    34  O   -0.462422
 Sum of Mulliken charges =  -0.00000

 Dipole moment (field-independent basis, Debye):
    X=              3.3950    Y=              3.9796    Z=              0.3087  Tot=              5.2401
 Quadrupole moment (field-independent basis, Debye-Ang):
   XX=            -78.4337   YY=            -99.1044   ZZ=            -93.0066
   XY=              6.5402   XZ=             -1.2661   YZ=              1.7433

 Normal termination of Gaussian 16 at Thu May  6 18:55:37 2021.
