 Gaussian 16, Revision A.03,
 Gaussian 16:  EM64L-G16RevA.03 25-Dec-2016

 -------------
 #p 6-31g* mp2
 -------------

 ------------------------------------------------------
 Input file generated by CHIRIPA (05-May-2021 14:53:12)
 ------------------------------------------------------
 Symbolic Z-matrix:
 Charge =  0 Multiplicity = 1

                         Standard orientation:
 ---------------------------------------------------------------------
 Center     Atomic      Atomic             Coordinates (Angstroms)
 Number     Number       Type             X           Y           Z
 ---------------------------------------------------------------------
      1          6           0        3.726772    0.343575   -0.317880
      2          6           0        3.593363    1.864781   -0.239669
      3          6           0        2.214083    2.360413   -0.675250
      4          1           0        3.526428    0.016752   -1.347440
      5          1           0        2.954272   -0.118162    0.312547
      6          1           0        4.366762    2.323532   -0.868969
      7          1           0        3.794235    2.188039    0.789782
      8          1           0        1.432154    1.929989   -0.041276
      9          1           0        2.007934    2.066251   -1.709452
     10          1           0        2.140658    3.450555   -0.611547
     11          6           0        5.100094   -0.167146    0.114412
     12          6           0        5.233503   -1.688353    0.036201
     13          6           0        6.612783   -2.183985    0.471782
     14          1           0        5.872594    0.294591   -0.516015
     15          1           0        5.300438    0.159676    1.143972
     16          1           0        5.032631   -2.011611   -0.993250
     17          1           0        4.460104   -2.147104    0.665501
     18          1           0        6.818932   -1.889823    1.505984
     19          1           0        7.394712   -1.753561   -0.162192
     20          1           0        6.686208   -3.274127    0.408079
     21          6           0       -5.617968   -1.276577   -0.366274
     22          6           0       -5.363635   -0.738304    0.899465
     23          6           0       -4.164731   -0.067144    1.157769
     24          6           0       -3.238209    0.047835    0.122574
     25          6           0       -3.462435   -0.477614   -1.149007
     26          6           0       -4.668230   -1.144747   -1.384676
     27          1           0       -6.551982   -1.796386   -0.558139
     28          1           0       -6.099389   -0.839172    1.692269
     29          1           0       -3.942094    0.359139    2.128404
     30          1           0       -2.709775   -0.361113   -1.919297
     31          1           0       -4.863050   -1.561773   -2.368636
     32          7           0       -1.965336    0.756230    0.384046
     33          8           0       -1.165299    0.844060   -0.544859
     34          8           0       -1.791796    1.210227    1.512943
 ---------------------------------------------------------------------

 SCF Done:  E(RHF) =  -669.536208431     A.U. after   15 cycles
 E2 =    -0.2091000493D+01 EUMP2 =    -0.67162720892374D+03

 The electronic state is 1-A.
 Alpha  occ. eigenvalues --  -20.60990 -20.60970 -15.85997 -11.31312 -11.27872
 Alpha  occ. eigenvalues --  -11.27868 -11.27608 -11.26876 -11.26866 -11.20923
 Alpha  occ. eigenvalues --  -11.20527 -11.20520 -11.20275 -11.20215 -11.19143
 Alpha  occ. eigenvalues --   -1.60036  -1.39591  -1.19478  -1.08885  -1.07424
 Alpha  occ. eigenvalues --   -1.04872  -1.02440  -0.95729  -0.94857  -0.86273
 Alpha  occ. eigenvalues --   -0.85867  -0.82560  -0.78549  -0.77616  -0.77177
 Alpha  occ. eigenvalues --   -0.72210  -0.71346  -0.70586  -0.65132  -0.64875
 Alpha  occ. eigenvalues --   -0.64065  -0.62218  -0.59841  -0.58326  -0.56466
 Alpha  occ. eigenvalues --   -0.55380  -0.54140  -0.53204  -0.52963  -0.51569
 Alpha  occ. eigenvalues --   -0.51289  -0.49163  -0.48977  -0.48606  -0.46781
 Alpha  occ. eigenvalues --   -0.45584  -0.45007  -0.44712  -0.44583  -0.42713
 Alpha  occ. eigenvalues --   -0.37457  -0.36472
 Alpha virt. eigenvalues --    0.04916   0.11184   0.16419   0.21322   0.23794
 Alpha virt. eigenvalues --    0.25466   0.27239   0.27637   0.28190   0.28455
 Alpha virt. eigenvalues --    0.29239   0.30891   0.32424   0.32542   0.32681

 Mulliken charges:
               1
     1  C   -0.297036
     2  C   -0.299888
     3  C   -0.480597
     4  H    0.147087
     5  H    0.153349
     6  H    0.144961
     7  H    0.148864
     8  H    0.183761
     9  H    0.150016
    10  H    0.152110
    11  C   -0.297500
    12  C   -0.298749
    13  C   -0.475071
    14  H    0.147059
    15  H    0.148494
    16  H    0.150233
    17  H    0.151427
    18  H    0.154543
    19  H    0.154061
    20  H    0.157676
    21  C   -0.170541
    22  C   -0.218596
    23  C   -0.170711
    24  C    0.157931
    25  C   -0.170757
    26  C   -0.218557
    27  H    0.226053
    28  H    0.223855
    29  H    0.275839
    30  H    0.276069
    31  H    0.223921
    32  N    0.488629
    33  O   -0.458017
    34  O   -0.459916
 Sum of Mulliken charges =  -0.00000

 Dipole moment (field-independent basis, Debye):
    X=             -4.9007    Y=             -2.5170    Z=             -0.8743  Tot=              5.5782
 Quadrupole moment (field-independent basis, Debye-Ang):
   XX=            -68.1239   YY=            -96.4117   ZZ=            -89.8278
   XY=              8.2347   XZ=              0.4972   YZ=              0.8504

 Normal termination of Gaussian 16 at Thu May  6 02:30:26 2021.
