 Gaussian 16, Revision A.03,
 Gaussian 16:  EM64L-G16RevA.03 25-Dec-2016

 -------------
 #p 6-31g* mp2
 -------------

 ------------------------------------------------------
 Input file generated by CHIRIPA (05-May-2021 14:55:23)
 ------------------------------------------------------
 Symbolic Z-matrix:
 Charge =  0 Multiplicity = 1

                         Standard orientation:
 ---------------------------------------------------------------------
 Center     Atomic      Atomic             Coordinates (Angstroms)
 Number     Number       Type             X           Y           Z
 ---------------------------------------------------------------------
      1          6           0       -3.240269    2.671741    0.334146
      2          6           0       -3.540608    2.116184   -0.913922
      3          6           0       -3.380429    0.745549   -1.138088
      4          6           0       -2.915733   -0.043674   -0.087148
      5          6           0       -2.607968    0.480159    1.167511
      6          6           0       -2.775726    1.853398    1.369055
      7          1           0       -3.367643    3.737495    0.499497
      8          1           0       -3.901550    2.749305   -1.719480
      9          1           0       -3.605416    0.289265   -2.094437
     10          1           0       -2.249977   -0.176416    1.951201
     11          1           0       -2.541690    2.282105    2.339355
     12          7           0       -2.742147   -1.496082   -0.312488
     13          8           0       -2.331218   -2.169903    0.629711
     14          8           0       -3.020306   -1.933157   -1.427042
     15          6           0        4.475248   -0.175830   -0.216573
     16          6           0        5.050142    1.230653   -0.045443
     17          6           0        6.464106    1.364266   -0.611702
     18          1           0        5.139146   -0.898939    0.276680
     19          1           0        4.469533   -0.434632   -1.284460
     20          1           0        5.053488    1.487264    1.021681
     21          1           0        4.384698    1.950518   -0.538997
     22          1           0        6.473738    1.134451   -1.682073
     23          1           0        7.146327    0.668565   -0.112528
     24          1           0        6.855724    2.377585   -0.478737
     25          6           0        3.062268   -0.325164    0.344598
     26          6           0        2.487374   -1.731647    0.173469
     27          6           0        1.073409   -1.865260    0.739726
     28          1           0        3.067983   -0.066363    1.412485
     29          1           0        2.398369    0.397945   -0.148655
     30          1           0        3.152817   -2.451513    0.667022
     31          1           0        2.484028   -1.988258   -0.893657
     32          1           0        0.391189   -1.169558    0.240552
     33          1           0        1.063778   -1.635446    1.810097
     34          1           0        0.681791   -2.878579    0.606763
 ---------------------------------------------------------------------

 SCF Done:  E(RHF) =  -669.535571053     A.U. after   15 cycles
 E2 =    -0.2091817557D+01 EUMP2 =    -0.67162738860936D+03

 The electronic state is 1-A.
 Alpha  occ. eigenvalues --  -20.60835 -20.60806 -15.85844 -11.31220 -11.27788
 Alpha  occ. eigenvalues --  -11.27776 -11.27531 -11.26802 -11.26788 -11.21483
 Alpha  occ. eigenvalues --  -11.21155 -11.21069 -11.20999 -11.20979 -11.20222
 Alpha  occ. eigenvalues --   -1.59883  -1.39437  -1.19391  -1.08787  -1.08122
 Alpha  occ. eigenvalues --   -1.04790  -1.03152  -0.95647  -0.95557  -0.86595
 Alpha  occ. eigenvalues --   -0.86188  -0.82452  -0.79234  -0.77940  -0.77489
 Alpha  occ. eigenvalues --   -0.72076  -0.71207  -0.70495  -0.65044  -0.64792
 Alpha  occ. eigenvalues --   -0.64761  -0.62135  -0.60560  -0.58963  -0.57190
 Alpha  occ. eigenvalues --   -0.55294  -0.54893  -0.53126  -0.52883  -0.52214
 Alpha  occ. eigenvalues --   -0.52021  -0.49569  -0.48845  -0.48831  -0.47542
 Alpha  occ. eigenvalues --   -0.46317  -0.45515  -0.45412  -0.44728  -0.43337
 Alpha  occ. eigenvalues --   -0.37371  -0.36390
 Alpha virt. eigenvalues --    0.05010   0.11219   0.16487   0.21354   0.23125
 Alpha virt. eigenvalues --    0.24619   0.26856   0.27068   0.27659   0.27911
 Alpha virt. eigenvalues --    0.28669   0.30885   0.31527   0.31895   0.32559

 Mulliken charges:
               1
     1  C   -0.170687
     2  C   -0.218675
     3  C   -0.171228
     4  C    0.156760
     5  C   -0.170539
     6  C   -0.218660
     7  H    0.225747
     8  H    0.223512
     9  H    0.275636
    10  H    0.277020
    11  H    0.223753
    12  N    0.488344
    13  O   -0.456346
    14  O   -0.460133
    15  C   -0.297758
    16  C   -0.299052
    17  C   -0.475457
    18  H    0.149736
    19  H    0.149810
    20  H    0.150587
    21  H    0.150213
    22  H    0.155312
    23  H    0.155418
    24  H    0.158889
    25  C   -0.297400
    26  C   -0.302291
    27  C   -0.468295
    28  H    0.146558
    29  H    0.146950
    30  H    0.150406
    31  H    0.152465
    32  H    0.146334
    33  H    0.147456
    34  H    0.175614
 Sum of Mulliken charges =  -0.00000

 Dipole moment (field-independent basis, Debye):
    X=             -0.7773    Y=              4.9970    Z=              0.7985  Tot=              5.1197
 Quadrupole moment (field-independent basis, Debye-Ang):
   XX=            -92.8559   YY=            -95.3861   ZZ=            -89.8787
   XY=            -15.7752   XZ=              0.0838   YZ=             -1.2442

 Normal termination of Gaussian 16 at Thu May  6 06:17:27 2021.
