 Gaussian 16, Revision A.03,
 Gaussian 16:  EM64L-G16RevA.03 25-Dec-2016

 -------------
 #p 6-31g* mp2
 -------------

 ------------------------------------------------------
 Input file generated by CHIRIPA (05-May-2021 14:51:11)
 ------------------------------------------------------
 Symbolic Z-matrix:
 Charge =  0 Multiplicity = 1

                         Standard orientation:
 ---------------------------------------------------------------------
 Center     Atomic      Atomic             Coordinates (Angstroms)
 Number     Number       Type             X           Y           Z
 ---------------------------------------------------------------------
      1          6           0       -3.521524    0.733456   -0.020496
      2          6           0       -4.970113    1.163618    0.213038
      3          6           0       -5.085589    2.602695    0.716542
      4          1           0       -2.957926    0.842014    0.916262
      5          1           0       -3.056341    1.415161   -0.745947
      6          1           0       -5.432839    0.480474    0.936787
      7          1           0       -5.530374    1.053842   -0.724337
      8          1           0       -4.649310    3.299851   -0.006116
      9          1           0       -4.551221    2.723225    1.664447
     10          1           0       -6.129610    2.889394    0.876803
     11          6           0       -3.389736   -0.702808   -0.523988
     12          6           0       -1.941148   -1.132970   -0.757522
     13          6           0       -1.825671   -2.572047   -1.261027
     14          1           0       -3.854919   -1.384513    0.201462
     15          1           0       -3.953334   -0.811366   -1.460747
     16          1           0       -1.380886   -1.023194    0.179853
     17          1           0       -1.478421   -0.449826   -1.481272
     18          1           0       -2.360040   -2.692577   -2.208932
     19          1           0       -2.261950   -3.269203   -0.538369
     20          1           0       -0.781650   -2.858746   -1.421288
     21          6           0        3.018142   -0.630654    0.156462
     22          6           0        2.351356   -1.149108    1.431056
     23          6           0        1.479427   -2.380415    1.183237
     24          1           0        2.242654   -0.389663   -0.583461
     25          1           0        3.629510   -1.431959   -0.281184
     26          1           0        1.742527   -0.346632    1.866916
     27          1           0        3.128513   -1.388712    2.168099
     28          1           0        2.077460   -3.199125    0.770112
     29          1           0        0.683599   -2.151124    0.467218
     30          1           0        1.012459   -2.734315    2.107659
     31          6           0        3.893118    0.600006    0.388022
     32          6           0        4.559904    1.118459   -0.886570
     33          6           0        5.431834    2.349768   -0.638753
     34          1           0        3.281750    1.401311    0.825669
     35          1           0        4.668606    0.359015    1.127946
     36          1           0        3.782747    1.358064   -1.623615
     37          1           0        5.168733    0.315984   -1.322431
     38          1           0        6.227661    2.120476    0.077266
     39          1           0        4.833801    3.168477   -0.225627
     40          1           0        5.898802    2.703666   -1.563175
 ---------------------------------------------------------------------

 SCF Done:  E(RHF) =  -470.732794519     A.U. after   11 cycles
 E2 =    -0.1583163448D+01 EUMP2 =    -0.47231595796642D+03

 The electronic state is 1-A.
 Alpha  occ. eigenvalues --  -11.21636 -11.21624 -11.21591 -11.21576 -11.21436
 Alpha  occ. eigenvalues --  -11.21387 -11.21377 -11.21327 -11.21092 -11.21076
 Alpha  occ. eigenvalues --  -11.21062 -11.20981  -1.08468  -1.08406  -1.03592
 Alpha  occ. eigenvalues --   -1.03483  -0.96049  -0.95919  -0.87040  -0.86957
 Alpha  occ. eigenvalues --   -0.79645  -0.79561  -0.78295  -0.78211  -0.65149
 Alpha  occ. eigenvalues --   -0.65001  -0.61145  -0.60783  -0.59431  -0.59293
 Alpha  occ. eigenvalues --   -0.57775  -0.57443  -0.55401  -0.55101  -0.52754
 Alpha  occ. eigenvalues --   -0.52643  -0.52504  -0.52248  -0.49963  -0.49863
 Alpha  occ. eigenvalues --   -0.47946  -0.47882  -0.46752  -0.46501  -0.45860
 Alpha  occ. eigenvalues --   -0.45763  -0.45719  -0.45611  -0.43814  -0.43763
 Alpha virt. eigenvalues --    0.21393   0.23119   0.23495   0.24911   0.26417
 Alpha virt. eigenvalues --    0.26555   0.26928   0.27662   0.27821   0.29092
 Alpha virt. eigenvalues --    0.31024   0.31101   0.31577   0.31758   0.32246

 Mulliken charges:
               1
     1  C   -0.298433
     2  C   -0.299688
     3  C   -0.475734
     4  H    0.149623
     5  H    0.149356
     6  H    0.152064
     7  H    0.152037
     8  H    0.155144
     9  H    0.155174
    10  H    0.160374
    11  C   -0.297627
    12  C   -0.304747
    13  C   -0.478348
    14  H    0.149882
    15  H    0.149817
    16  H    0.155196
    17  H    0.151486
    18  H    0.155815
    19  H    0.156109
    20  H    0.162205
    21  C   -0.298614
    22  C   -0.299202
    23  C   -0.486226
    24  H    0.149945
    25  H    0.149358
    26  H    0.151398
    27  H    0.151789
    28  H    0.154692
    29  H    0.167940
    30  H    0.159313
    31  C   -0.298277
    32  C   -0.299641
    33  C   -0.475702
    34  H    0.149589
    35  H    0.149610
    36  H    0.151905
    37  H    0.151873
    38  H    0.155161
    39  H    0.155194
    40  H    0.160190
 Sum of Mulliken charges =  -0.00000

 Dipole moment (field-independent basis, Debye):
    X=             -0.0319    Y=             -0.0076    Z=             -0.0120  Tot=              0.0349
 Quadrupole moment (field-independent basis, Debye-Ang):
   XX=            -84.6634   YY=            -86.1524   ZZ=            -83.9921
   XY=             -0.8009   XZ=              0.2377   YZ=             -0.7863

 Normal termination of Gaussian 16 at Thu May  6 07:01:03 2021.
