 Gaussian 16, Revision A.03,
 Gaussian 16:  EM64L-G16RevA.03 25-Dec-2016

 -------------
 #p 6-31g* mp2
 -------------

 ------------------------------------------------------
 Input file generated by CHIRIPA (05-May-2021 14:51:10)
 ------------------------------------------------------
 Symbolic Z-matrix:
 Charge =  0 Multiplicity = 1

                         Standard orientation:
 ---------------------------------------------------------------------
 Center     Atomic      Atomic             Coordinates (Angstroms)
 Number     Number       Type             X           Y           Z
 ---------------------------------------------------------------------
      1          6           0        4.222568   -0.697250    0.034992
      2          6           0        5.077388    0.184974   -0.875474
      3          6           0        6.315407   -0.538191   -1.406640
      4          1           0        4.835219   -1.045667    0.877731
      5          1           0        3.914539   -1.594496   -0.519501
      6          1           0        5.382563    1.080954   -0.319861
      7          1           0        4.462578    0.531488   -1.716040
      8          1           0        6.026903   -1.422398   -1.984172
      9          1           0        6.952114   -0.869810   -0.580060
     10          1           0        6.912065    0.110818   -2.055213
     11          6           0        2.981300    0.011656    0.573912
     12          6           0        2.126479   -0.870568    1.484378
     13          6           0        0.888461   -0.147404    2.015544
     14          1           0        3.289328    0.908902    1.128406
     15          1           0        2.368648    0.360073   -0.268827
     16          1           0        2.741289   -1.217082    2.324945
     17          1           0        1.821305   -1.766548    0.928766
     18          1           0        0.251753    0.184216    1.188965
     19          1           0        1.176965    0.736804    2.593076
     20          1           0        0.291803   -0.796412    2.664117
     21          6           0       -2.978211    0.687596   -0.579253
     22          6           0       -2.523920    1.880249    0.262878
     23          6           0       -1.274981    2.559600   -0.299640
     24          1           0       -2.159160   -0.041879   -0.642234
     25          1           0       -3.174809    1.026234   -1.605932
     26          1           0       -2.329567    1.539724    1.288005
     27          1           0       -3.344214    2.606881    0.324020
     28          1           0       -1.460028    2.926620   -1.314359
     29          1           0       -0.439616    1.853400   -0.344898
     30          1           0       -0.967702    3.409463    0.317752
     31          6           0       -4.225656   -0.002002   -0.029650
     32          6           0       -4.679947   -1.194654   -0.871782
     33          6           0       -5.928887   -1.874006   -0.309264
     34          1           0       -4.029058   -0.340640    0.997028
     35          1           0       -5.044707    0.727473    0.033330
     36          1           0       -3.859654   -1.921287   -0.932924
     37          1           0       -4.874301   -0.854130   -1.896910
     38          1           0       -6.764252   -1.167806   -0.264007
     39          1           0       -5.743839   -2.241026    0.705455
     40          1           0       -6.236166   -2.723868   -0.926657
 ---------------------------------------------------------------------

 SCF Done:  E(RHF) =  -470.733128343     A.U. after   11 cycles
 E2 =    -0.1583003535D+01 EUMP2 =    -0.47231613187776D+03

 The electronic state is 1-A.
 Alpha  occ. eigenvalues --  -11.21637 -11.21606 -11.21596 -11.21567 -11.21429
 Alpha  occ. eigenvalues --  -11.21399 -11.21368 -11.21339 -11.21093 -11.21074
 Alpha  occ. eigenvalues --  -11.21066 -11.21035  -1.08457  -1.08416  -1.03573
 Alpha  occ. eigenvalues --   -1.03497  -0.96026  -0.95944  -0.87032  -0.86971
 Alpha  occ. eigenvalues --   -0.79628  -0.79564  -0.78270  -0.78227  -0.65163
 Alpha  occ. eigenvalues --   -0.64992  -0.61143  -0.60762  -0.59375  -0.59328
 Alpha  occ. eigenvalues --   -0.57628  -0.57561  -0.55426  -0.55129  -0.52695
 Alpha  occ. eigenvalues --   -0.52656  -0.52455  -0.52353  -0.50013  -0.49853
 Alpha  occ. eigenvalues --   -0.48024  -0.47799  -0.46722  -0.46536  -0.45872
 Alpha  occ. eigenvalues --   -0.45754  -0.45713  -0.45597  -0.43806  -0.43770
 Alpha virt. eigenvalues --    0.20512   0.23022   0.23635   0.24898   0.25945
 Alpha virt. eigenvalues --    0.26576   0.27148   0.27558   0.28195   0.29091
 Alpha virt. eigenvalues --    0.30525   0.31445   0.31632   0.31721   0.31924

 Mulliken charges:
               1
     1  C   -0.298326
     2  C   -0.299718
     3  C   -0.475734
     4  H    0.149802
     5  H    0.149504
     6  H    0.152050
     7  H    0.152187
     8  H    0.155178
     9  H    0.155154
    10  H    0.160347
    11  C   -0.299372
    12  C   -0.299744
    13  C   -0.482656
    14  H    0.149976
    15  H    0.150124
    16  H    0.152178
    17  H    0.151596
    18  H    0.162641
    19  H    0.155763
    20  H    0.159794
    21  C   -0.299282
    22  C   -0.301493
    23  C   -0.478722
    24  H    0.149331
    25  H    0.149495
    26  H    0.154390
    27  H    0.152219
    28  H    0.154876
    29  H    0.157430
    30  H    0.160700
    31  C   -0.298241
    32  C   -0.299660
    33  C   -0.475706
    34  H    0.149960
    35  H    0.149670
    36  H    0.151853
    37  H    0.151828
    38  H    0.155186
    39  H    0.155237
    40  H    0.160186
 Sum of Mulliken charges =  -0.00000

 Dipole moment (field-independent basis, Debye):
    X=              0.0102    Y=              0.0102    Z=              0.0135  Tot=              0.0198
 Quadrupole moment (field-independent basis, Debye-Ang):
   XX=            -85.7838   YY=            -84.8249   ZZ=            -84.1113
   XY=             -0.3654   XZ=              1.4370   YZ=             -0.0599

 Normal termination of Gaussian 16 at Thu May  6 00:37:26 2021.
