 Gaussian 16, Revision A.03,
 Gaussian 16:  EM64L-G16RevA.03 25-Dec-2016

 -------------
 #p 6-31g* mp2
 -------------

 ------------------------------------------------------
 Input file generated by CHIRIPA (05-May-2021 14:57:23)
 ------------------------------------------------------
 Symbolic Z-matrix:
 Charge =  0 Multiplicity = 1

                         Standard orientation:
 ---------------------------------------------------------------------
 Center     Atomic      Atomic             Coordinates (Angstroms)
 Number     Number       Type             X           Y           Z
 ---------------------------------------------------------------------
      1          6           0       -4.232518    1.122665   -1.315567
      2          6           0       -4.037223    1.478917    0.022889
      3          6           0       -3.162721    0.747386    0.831997
      4          6           0       -2.496872   -0.339464    0.267469
      5          6           0       -2.670306   -0.719293   -1.062546
      6          6           0       -3.549640    0.026629   -1.853066
      7          1           0       -4.913729    1.696525   -1.936882
      8          1           0       -4.566212    2.329636    0.443000
      9          1           0       -2.992874    1.001226    1.871293
     10          1           0       -2.128833   -1.572358   -1.453066
     11          1           0       -3.699353   -0.252343   -2.892203
     12          7           0       -1.568519   -1.121521    1.114196
     13          8           0       -0.993852   -2.074794    0.592980
     14          8           0       -1.433120   -0.766416    2.283043
     15          6           0        2.673269    2.663249    0.463481
     16          6           0        2.292918    1.716153    1.419965
     17          6           0        2.276252    0.354519    1.103384
     18          6           0        2.647615   -0.026544   -0.185092
     19          6           0        3.031382    0.893060   -1.159948
     20          6           0        3.040639    2.249410   -0.821158
     21          1           0        2.683336    3.718947    0.718035
     22          1           0        2.007119    2.034655    2.418424
     23          1           0        1.986046   -0.399880    1.824551
     24          1           0        3.311076    0.545099   -2.146919
     25          1           0        3.336470    2.982716   -1.566001
     26          7           0        2.633894   -1.465247   -0.531998
     27          8           0        2.965461   -1.775246   -1.674189
     28          8           0        2.291832   -2.255663    0.344857
 ---------------------------------------------------------------------

 SCF Done:  E(RHF) =  -868.337168253     A.U. after   16 cycles
 E2 =    -0.2601015056D+01 EUMP2 =    -0.87093818330848D+03

 The electronic state is 1-A.
 Alpha  occ. eigenvalues --  -20.60725 -20.60606 -20.59893 -20.59727 -15.85698
 Alpha  occ. eigenvalues --  -15.84853 -11.31151 -11.30468 -11.27768 -11.27684
 Alpha  occ. eigenvalues --  -11.27498 -11.27139 -11.26940 -11.26915 -11.26792
 Alpha  occ. eigenvalues --  -11.26735 -11.26216 -11.26099  -1.59741  -1.58879
 Alpha  occ. eigenvalues --   -1.39289  -1.38419  -1.19335  -1.18680  -1.08718
 Alpha  occ. eigenvalues --   -1.08043  -1.04748  -1.04103  -0.95534  -0.94824
 Alpha  occ. eigenvalues --   -0.86143  -0.85494  -0.82360  -0.81641  -0.77398
 Alpha  occ. eigenvalues --   -0.76635  -0.71915  -0.71156  -0.71027  -0.70444
 Alpha  occ. eigenvalues --   -0.70164  -0.69780  -0.64983  -0.64751  -0.64319
 Alpha  occ. eigenvalues --   -0.64108  -0.62089  -0.61418  -0.55251  -0.54633
 Alpha  occ. eigenvalues --   -0.53079  -0.52838  -0.52454  -0.52185  -0.48702
 Alpha  occ. eigenvalues --   -0.48658  -0.47878  -0.47806  -0.44756  -0.43646
 Alpha  occ. eigenvalues --   -0.37326  -0.36713  -0.36356  -0.35729
 Alpha virt. eigenvalues --    0.05104   0.05903   0.11294   0.11904   0.16583
 Alpha virt. eigenvalues --    0.17321   0.21428   0.22043   0.27339   0.27944
 Alpha virt. eigenvalues --    0.28345   0.29000   0.30969   0.31547   0.32607

 Mulliken charges:
               1
     1  C   -0.171239
     2  C   -0.218840
     3  C   -0.171756
     4  C    0.158407
     5  C   -0.171645
     6  C   -0.218776
     7  H    0.225007
     8  H    0.221896
     9  H    0.272940
    10  H    0.280487
    11  H    0.224507
    12  N    0.485812
    13  O   -0.446138
    14  O   -0.469804
    15  C   -0.172582
    16  C   -0.220293
    17  C   -0.174032
    18  C    0.156714
    19  C   -0.173030
    20  C   -0.219457
    21  H    0.221776
    22  H    0.224282
    23  H    0.289844
    24  H    0.272723
    25  H    0.219489
    26  N    0.487023
    27  O   -0.469778
    28  O   -0.443536
 Sum of Mulliken charges =  -0.00000

 Dipole moment (field-independent basis, Debye):
    X=             -3.3199    Y=              7.4437    Z=             -1.6537  Tot=              8.3165
 Quadrupole moment (field-independent basis, Debye-Ang):
   XX=            -89.8197   YY=           -105.9256   ZZ=           -100.2054
   XY=              7.0163   XZ=              8.2122   YZ=              2.1535

 Normal termination of Gaussian 16 at Fri May  7 06:25:48 2021.
