 Gaussian 16, Revision A.03,
 Gaussian 16:  EM64L-G16RevA.03 25-Dec-2016

 -------------
 #p 6-31g* mp2
 -------------

 ------------------------------------------------------
 Input file generated by CHIRIPA (05-May-2021 14:51:13)
 ------------------------------------------------------
 Symbolic Z-matrix:
 Charge =  0 Multiplicity = 1

                         Standard orientation:
 ---------------------------------------------------------------------
 Center     Atomic      Atomic             Coordinates (Angstroms)
 Number     Number       Type             X           Y           Z
 ---------------------------------------------------------------------
      1          6           0       -2.943520   -0.141021   -0.388576
      2          6           0       -4.346326    0.384722   -0.082450
      3          6           0       -4.722468    1.596855   -0.935119
      4          1           0       -2.213674    0.663924   -0.226296
      5          1           0       -2.883537   -0.407435   -1.452917
      6          1           0       -4.404065    0.648767    0.981300
      7          1           0       -5.072898   -0.421623   -0.245293
      8          1           0       -4.692840    1.343109   -1.999702
      9          1           0       -4.020207    2.419580   -0.766140
     10          1           0       -5.729104    1.956336   -0.699926
     11          6           0       -2.553022   -1.352696    0.455866
     12          6           0       -1.150216   -1.878439    0.149740
     13          6           0       -0.774074   -3.090572    1.002410
     14          1           0       -2.613006   -1.086282    1.520207
     15          1           0       -3.282868   -2.157640    0.293586
     16          1           0       -0.423645   -1.072094    0.312583
     17          1           0       -1.092477   -2.142483   -0.914010
     18          1           0       -1.476335   -3.913297    0.833430
     19          1           0       -0.803702   -2.836826    2.066992
     20          1           0        0.232562   -3.450053    0.767216
     21          6           0        2.821573   -0.006613    0.068038
     22          6           0        3.827221   -0.652205   -0.885832
     23          6           0        3.962803   -2.159813   -0.670134
     24          1           0        3.129564   -0.204012    1.103954
     25          1           0        1.841817   -0.486356   -0.063572
     26          1           0        4.804461   -0.170445   -0.753443
     27          1           0        3.516905   -0.453083   -1.919597
     28          1           0        3.000255   -2.658819   -0.822112
     29          1           0        4.295126   -2.374577    0.350669
     30          1           0        4.686669   -2.600924   -1.362448
     31          6           0        2.674969    1.500330   -0.135328
     32          6           0        1.669321    2.145921    0.818542
     33          6           0        1.533739    3.653531    0.602845
     34          1           0        3.654725    1.980073   -0.003719
     35          1           0        2.366979    1.697729   -1.171243
     36          1           0        1.979636    1.946799    1.852307
     37          1           0        0.692081    1.664162    0.686152
     38          1           0        1.201416    3.868293   -0.417959
     39          1           0        2.496287    4.152536    0.754822
     40          1           0        0.809872    4.094640    1.295158
 ---------------------------------------------------------------------

 SCF Done:  E(RHF) =  -470.733353717     A.U. after   11 cycles
 E2 =    -0.1583551861D+01 EUMP2 =    -0.47231690557852D+03

 The electronic state is 1-A.
 Alpha  occ. eigenvalues --  -11.21656 -11.21629 -11.21628 -11.21598 -11.21443
 Alpha  occ. eigenvalues --  -11.21405 -11.21382 -11.21331 -11.21109 -11.21090
 Alpha  occ. eigenvalues --  -11.21088 -11.21079  -1.08478  -1.08431  -1.03564
 Alpha  occ. eigenvalues --   -1.03543  -0.96008  -0.95990  -0.87027  -0.87003
 Alpha  occ. eigenvalues --   -0.79648  -0.79600  -0.78381  -0.78161  -0.65220
 Alpha  occ. eigenvalues --   -0.64963  -0.60976  -0.60932  -0.59406  -0.59333
 Alpha  occ. eigenvalues --   -0.57641  -0.57586  -0.55336  -0.55237  -0.52708
 Alpha  occ. eigenvalues --   -0.52684  -0.52458  -0.52392  -0.49995  -0.49896
 Alpha  occ. eigenvalues --   -0.47978  -0.47922  -0.46796  -0.46644  -0.46142
 Alpha  occ. eigenvalues --   -0.45779  -0.45763  -0.45186  -0.43811  -0.43795
 Alpha virt. eigenvalues --    0.20075   0.22342   0.23542   0.24233   0.25444
 Alpha virt. eigenvalues --    0.26684   0.27031   0.27118   0.27857   0.29567
 Alpha virt. eigenvalues --    0.30612   0.31529   0.31736   0.31878   0.32313

 Mulliken charges:
               1
     1  C   -0.299979
     2  C   -0.299636
     3  C   -0.475814
     4  H    0.150270
     5  H    0.149524
     6  H    0.152137
     7  H    0.152142
     8  H    0.155135
     9  H    0.155336
    10  H    0.160402
    11  C   -0.297200
    12  C   -0.308937
    13  C   -0.476536
    14  H    0.149799
    15  H    0.149870
    16  H    0.159835
    17  H    0.151257
    18  H    0.155358
    19  H    0.155600
    20  H    0.161336
    21  C   -0.307827
    22  C   -0.298960
    23  C   -0.476713
    24  H    0.149244
    25  H    0.159547
    26  H    0.151902
    27  H    0.151967
    28  H    0.155702
    29  H    0.155278
    30  H    0.160356
    31  C   -0.297630
    32  C   -0.303033
    33  C   -0.475712
    34  H    0.149670
    35  H    0.149765
    36  H    0.152105
    37  H    0.153321
    38  H    0.155456
    39  H    0.155590
    40  H    0.160072
 Sum of Mulliken charges =  -0.00000

 Dipole moment (field-independent basis, Debye):
    X=             -0.0036    Y=             -0.0036    Z=              0.0039  Tot=              0.0064
 Quadrupole moment (field-independent basis, Debye-Ang):
   XX=            -84.2636   YY=            -86.3347   ZZ=            -84.0891
   XY=              0.9808   XZ=              0.5482   YZ=              1.0561

 Normal termination of Gaussian 16 at Wed May  5 18:23:32 2021.
