 Gaussian 16, Revision A.03,
 Gaussian 16:  EM64L-G16RevA.03 25-Dec-2016

 -------------
 #p 6-31g* mp2
 -------------

 ------------------------------------------------------
 Input file generated by CHIRIPA (05-May-2021 14:57:22)
 ------------------------------------------------------
 Symbolic Z-matrix:
 Charge =  0 Multiplicity = 1

                         Standard orientation:
 ---------------------------------------------------------------------
 Center     Atomic      Atomic             Coordinates (Angstroms)
 Number     Number       Type             X           Y           Z
 ---------------------------------------------------------------------
      1          6           0       -1.473964    2.315996   -0.405614
      2          6           0       -1.103229    1.059915   -0.896874
      3          6           0       -1.974364   -0.028585   -0.792749
      4          6           0       -3.214066    0.175592   -0.188813
      5          6           0       -3.612332    1.414775    0.310288
      6          6           0       -2.725126    2.489112    0.195339
      7          1           0       -0.791004    3.156068   -0.490705
      8          1           0       -0.132195    0.922539   -1.364062
      9          1           0       -1.712848   -1.011839   -1.164554
     10          1           0       -4.586994    1.520826    0.770945
     11          1           0       -3.015716    3.463465    0.577750
     12          7           0       -4.144804   -0.969257   -0.072851
     13          8           0       -5.231339   -0.763297    0.463488
     14          8           0       -3.770158   -2.050873   -0.520496
     15          6           0        0.846761   -1.250397    1.032135
     16          6           0        1.664613   -0.504892    1.887623
     17          6           0        2.893324   -0.008955    1.441684
     18          6           0        3.274702   -0.278610    0.128243
     19          6           0        2.482034   -1.018180   -0.748115
     20          6           0        1.257358   -1.504215   -0.280689
     21          1           0       -0.106164   -1.631807    1.386897
     22          1           0        1.348301   -0.306223    2.907683
     23          1           0        3.546046    0.571011    2.082785
     24          1           0        2.824355   -1.199878   -1.759659
     25          1           0        0.624255   -2.082889   -0.947294
     26          7           0        4.573348    0.241175   -0.355226
     27          8           0        4.886543   -0.010192   -1.516846
     28          8           0        5.253442    0.890107    0.436605
 ---------------------------------------------------------------------

 SCF Done:  E(RHF) =  -868.336288048     A.U. after   16 cycles
 E2 =    -0.2603365275D+01 EUMP2 =    -0.87093965332295D+03

 The electronic state is 1-A.
 Alpha  occ. eigenvalues --  -20.61505 -20.61474 -20.61350 -20.61345 -15.86538
 Alpha  occ. eigenvalues --  -15.86410 -11.31855 -11.31843 -11.28467 -11.28417
 Alpha  occ. eigenvalues --  -11.28404 -11.28308 -11.28082 -11.27970 -11.27432
 Alpha  occ. eigenvalues --  -11.27346 -11.27331 -11.27259  -1.60569  -1.60429
 Alpha  occ. eigenvalues --   -1.40125  -1.39979  -1.20066  -1.19950  -1.09411
 Alpha  occ. eigenvalues --   -1.09343  -1.05516  -1.05299  -0.96263  -0.96167
 Alpha  occ. eigenvalues --   -0.86849  -0.86739  -0.83065  -0.83028  -0.78211
 Alpha  occ. eigenvalues --   -0.78030  -0.72751  -0.72617  -0.71904  -0.71765
 Alpha  occ. eigenvalues --   -0.71161  -0.70965  -0.65720  -0.65612  -0.65496
 Alpha  occ. eigenvalues --   -0.65235  -0.62937  -0.62555  -0.55866  -0.55811
 Alpha  occ. eigenvalues --   -0.54177  -0.53599  -0.53455  -0.53151  -0.49524
 Alpha  occ. eigenvalues --   -0.49493  -0.49383  -0.49373  -0.45540  -0.45371
 Alpha  occ. eigenvalues --   -0.38395  -0.37919  -0.37152  -0.36399
 Alpha virt. eigenvalues --    0.04113   0.04674   0.10441   0.10681   0.15649
 Alpha virt. eigenvalues --    0.16152   0.19556   0.21747   0.24988   0.27282
 Alpha virt. eigenvalues --    0.27666   0.28811   0.30116   0.30852   0.31419

 Mulliken charges:
               1
     1  C   -0.173534
     2  C   -0.211012
     3  C   -0.181337
     4  C    0.158129
     5  C   -0.172824
     6  C   -0.218044
     7  H    0.229499
     8  H    0.228897
     9  H    0.267511
    10  H    0.276525
    11  H    0.225673
    12  N    0.487782
    13  O   -0.457100
    14  O   -0.464306
    15  C   -0.163079
    16  C   -0.219815
    17  C   -0.171109
    18  C    0.157256
    19  C   -0.176921
    20  C   -0.232136
    21  H    0.233847
    22  H    0.226759
    23  H    0.277210
    24  H    0.277122
    25  H    0.225855
    26  N    0.487921
    27  O   -0.459697
    28  O   -0.459070
 Sum of Mulliken charges =  -0.00000

 Dipole moment (field-independent basis, Debye):
    X=             -1.2332    Y=              2.3302    Z=              1.4603  Tot=              3.0138
 Quadrupole moment (field-independent basis, Debye-Ang):
   XX=           -154.5529   YY=           -100.5555   ZZ=            -99.8152
   XY=            -19.3448   XZ=              4.8954   YZ=              1.9278

 Normal termination of Gaussian 16 at Thu May  6 06:34:07 2021.
