 Gaussian 16, Revision A.03,
 Gaussian 16:  EM64L-G16RevA.03 25-Dec-2016

 -------------
 #p 6-31g* mp2
 -------------

 ------------------------------------------------------
 Input file generated by CHIRIPA (05-May-2021 14:53:16)
 ------------------------------------------------------
 Symbolic Z-matrix:
 Charge =  0 Multiplicity = 1

                         Standard orientation:
 ---------------------------------------------------------------------
 Center     Atomic      Atomic             Coordinates (Angstroms)
 Number     Number       Type             X           Y           Z
 ---------------------------------------------------------------------
      1          6           0       -4.029671    1.228291    0.027408
      2          6           0       -2.670035    1.776722    0.461686
      3          6           0       -2.594448    3.301683    0.380613
      4          1           0       -4.237241    1.552944   -1.001407
      5          1           0       -4.813667    1.669263    0.658510
      6          1           0       -1.888701    1.333790   -0.169143
      7          1           0       -2.465592    1.450566    1.489519
      8          1           0       -3.352965    3.759718    1.023620
      9          1           0       -2.772795    3.642279   -0.644466
     10          1           0       -1.613991    3.672352    0.695525
     11          6           0       -4.120748   -0.294773    0.102960
     12          6           0       -5.480384   -0.843204   -0.331317
     13          6           0       -5.555972   -2.368166   -0.250244
     14          1           0       -3.336752   -0.735745   -0.528142
     15          1           0       -3.913179   -0.619427    1.131775
     16          1           0       -5.684827   -0.517048   -1.359151
     17          1           0       -6.261718   -0.400273    0.299511
     18          1           0       -5.377624   -2.708761    0.774835
     19          1           0       -4.797454   -2.826200   -0.893251
     20          1           0       -6.536428   -2.738834   -0.565156
     21          6           0        0.996962   -1.618725    0.054717
     22          6           0        2.176423   -2.230219    0.492288
     23          6           0        3.393769   -1.544865    0.438380
     24          6           0        3.395169   -0.243417   -0.061138
     25          6           0        2.236901    0.392993   -0.504634
     26          6           0        1.030907   -0.311375   -0.441473
     27          1           0        0.055708   -2.158510    0.100189
     28          1           0        2.153060   -3.245424    0.878113
     29          1           0        4.321743   -1.994296    0.770487
     30          1           0        2.291785    1.406067   -0.884222
     31          1           0        0.116481    0.166032   -0.781993
     32          7           0        4.677910    0.492203   -0.123106
     33          8           0        4.652469    1.637878   -0.567422
     34          8           0        5.684475   -0.090825    0.273812
 ---------------------------------------------------------------------

 SCF Done:  E(RHF) =  -669.535496442     A.U. after   15 cycles
 E2 =    -0.2091144555D+01 EUMP2 =    -0.67162664099680D+03

 The electronic state is 1-A.
 Alpha  occ. eigenvalues --  -20.60731 -20.60726 -15.85785 -11.31143 -11.27714
 Alpha  occ. eigenvalues --  -11.27706 -11.27445 -11.26726 -11.26697 -11.22551
 Alpha  occ. eigenvalues --  -11.22347 -11.22284 -11.22187 -11.21774 -11.21765
 Alpha  occ. eigenvalues --   -1.59807  -1.39361  -1.19314  -1.09271  -1.08709
 Alpha  occ. eigenvalues --   -1.04718  -1.04318  -0.96745  -0.95545  -0.87760
 Alpha  occ. eigenvalues --   -0.86118  -0.82381  -0.80395  -0.79107  -0.77427
 Alpha  occ. eigenvalues --   -0.72003  -0.71130  -0.70419  -0.65925  -0.64965
 Alpha  occ. eigenvalues --   -0.64725  -0.62119  -0.61671  -0.60111  -0.58365
 Alpha  occ. eigenvalues --   -0.56030  -0.55213  -0.53425  -0.53174  -0.53045
 Alpha  occ. eigenvalues --   -0.52825  -0.50682  -0.48794  -0.48758  -0.48662
 Alpha  occ. eigenvalues --   -0.47424  -0.46628  -0.46556  -0.44768  -0.44580
 Alpha  occ. eigenvalues --   -0.37291  -0.36318
 Alpha virt. eigenvalues --    0.05107   0.11304   0.16585   0.19278   0.22604
 Alpha virt. eigenvalues --    0.23453   0.24860   0.26277   0.27026   0.27831
 Alpha virt. eigenvalues --    0.29621   0.29668   0.30969   0.31317   0.31924

 Mulliken charges:
               1
     1  C   -0.298349
     2  C   -0.303916
     3  C   -0.476421
     4  H    0.151493
     5  H    0.153568
     6  H    0.143030
     7  H    0.155297
     8  H    0.158911
     9  H    0.156550
    10  H    0.162782
    11  C   -0.297716
    12  C   -0.300065
    13  C   -0.476142
    14  H    0.140933
    15  H    0.150334
    16  H    0.153779
    17  H    0.154778
    18  H    0.155334
    19  H    0.153084
    20  H    0.163345
    21  C   -0.173095
    22  C   -0.218636
    23  C   -0.171139
    24  C    0.158743
    25  C   -0.173042
    26  C   -0.222855
    27  H    0.226481
    28  H    0.223262
    29  H    0.275418
    30  H    0.275622
    31  H    0.231731
    32  N    0.488069
    33  O   -0.460541
    34  O   -0.460629
 Sum of Mulliken charges =  -0.00000

 Dipole moment (field-independent basis, Debye):
    X=             -4.7401    Y=             -2.5162    Z=              0.2775  Tot=              5.3738
 Quadrupole moment (field-independent basis, Debye-Ang):
   XX=           -123.8888   YY=            -91.4366   ZZ=            -93.8417
   XY=            -10.3920   XZ=              1.6330   YZ=             -1.5471

 Normal termination of Gaussian 16 at Wed May  5 20:22:00 2021.
