 Gaussian 16, Revision A.03,
 Gaussian 16:  EM64L-G16RevA.03 25-Dec-2016

 -------------
 #p 6-31g* mp2
 -------------

 ------------------------------------------------------
 Input file generated by CHIRIPA (05-May-2021 14:51:10)
 ------------------------------------------------------
 Symbolic Z-matrix:
 Charge =  0 Multiplicity = 1

                         Standard orientation:
 ---------------------------------------------------------------------
 Center     Atomic      Atomic             Coordinates (Angstroms)
 Number     Number       Type             X           Y           Z
 ---------------------------------------------------------------------
      1          6           0        3.090162    0.074146    0.203794
      2          6           0        2.723983    1.551864    0.061496
      3          6           0        3.816929    2.484703    0.584061
      4          1           0        3.288789   -0.147646    1.261291
      5          1           0        4.027069   -0.118002   -0.337203
      6          1           0        1.787316    1.740875    0.601445
      7          1           0        2.526018    1.770120   -0.995760
      8          1           0        4.752764    2.325147    0.038756
      9          1           0        4.009864    2.295735    1.645036
     10          1           0        3.534387    3.536185    0.472639
     11          6           0        2.007455   -0.870891   -0.314258
     12          6           0        2.373633   -2.348609   -0.171960
     13          6           0        1.280687   -3.281448   -0.694525
     14          1           0        1.070547   -0.678743    0.226739
     15          1           0        1.808828   -0.649098   -1.371756
     16          1           0        2.571598   -2.566865    0.885296
     17          1           0        3.310300   -2.537619   -0.711909
     18          1           0        1.087752   -3.092480   -1.755500
     19          1           0        0.344853   -3.121892   -0.149220
     20          1           0        1.563230   -4.332930   -0.583103
     21          6           0       -2.471095    1.115156    0.307452
     22          6           0       -2.375463    2.146681   -0.817180
     23          6           0       -2.220308    3.575973   -0.296751
     24          1           0       -3.322693    1.365680    0.954724
     25          1           0       -1.571378    1.182341    0.934660
     26          1           0       -3.274458    2.076625   -1.442892
     27          1           0       -1.524108    1.893561   -1.461960
     28          1           0       -1.314129    3.668567    0.310591
     29          1           0       -3.074423    3.852670    0.329769
     30          1           0       -2.153836    4.297043   -1.117421
     31          6           0       -2.626522   -0.318411   -0.196987
     32          6           0       -2.722153   -1.349936    0.927643
     33          6           0       -2.877308   -2.779228    0.407216
     34          1           0       -3.526238   -0.385597   -0.824196
     35          1           0       -1.774922   -0.568935   -0.844260
     36          1           0       -3.573507   -1.096817    1.572425
     37          1           0       -1.823158   -1.279880    1.553356
     38          1           0       -2.023193   -3.055925   -0.219305
     39          1           0       -3.783487   -2.871822   -0.200128
     40          1           0       -2.943781   -3.500298    1.227885
 ---------------------------------------------------------------------

 SCF Done:  E(RHF) =  -470.733392476     A.U. after   11 cycles
 E2 =    -0.1583835158D+01 EUMP2 =    -0.47231722763328D+03

 The electronic state is 1-A.
 Alpha  occ. eigenvalues --  -11.21679 -11.21669 -11.21614 -11.21574 -11.21491
 Alpha  occ. eigenvalues --  -11.21428 -11.21390 -11.21326 -11.21122 -11.21117
 Alpha  occ. eigenvalues --  -11.21053 -11.21033  -1.08512  -1.08412  -1.03606
 Alpha  occ. eigenvalues --   -1.03509  -0.96063  -0.95949  -0.87086  -0.86959
 Alpha  occ. eigenvalues --   -0.79681  -0.79563  -0.78330  -0.78222  -0.65251
 Alpha  occ. eigenvalues --   -0.64943  -0.61146  -0.60790  -0.59407  -0.59330
 Alpha  occ. eigenvalues --   -0.57698  -0.57550  -0.55528  -0.55081  -0.52737
 Alpha  occ. eigenvalues --   -0.52656  -0.52545  -0.52311  -0.50144  -0.49731
 Alpha  occ. eigenvalues --   -0.48090  -0.47797  -0.46729  -0.46564  -0.46030
 Alpha  occ. eigenvalues --   -0.45851  -0.45646  -0.45525  -0.43855  -0.43769
 Alpha virt. eigenvalues --    0.19105   0.22028   0.23690   0.25166   0.25512
 Alpha virt. eigenvalues --    0.26066   0.26637   0.27831   0.28875   0.29868
 Alpha virt. eigenvalues --    0.30587   0.31359   0.31540   0.31806   0.32376

 Mulliken charges:
               1
     1  C   -0.298321
     2  C   -0.300414
     3  C   -0.475799
     4  H    0.149912
     5  H    0.150074
     6  H    0.151677
     7  H    0.152168
     8  H    0.155460
     9  H    0.155359
    10  H    0.160626
    11  C   -0.301684
    12  C   -0.299327
    13  C   -0.482849
    14  H    0.151841
    15  H    0.149640
    16  H    0.152168
    17  H    0.152345
    18  H    0.155056
    19  H    0.162060
    20  H    0.161072
    21  C   -0.299051
    22  C   -0.299695
    23  C   -0.475861
    24  H    0.149560
    25  H    0.149343
    26  H    0.151747
    27  H    0.152894
    28  H    0.155297
    29  H    0.154978
    30  H    0.160199
    31  C   -0.300324
    32  C   -0.300611
    33  C   -0.481433
    34  H    0.149602
    35  H    0.152492
    36  H    0.152228
    37  H    0.150996
    38  H    0.161116
    39  H    0.155496
    40  H    0.159962
 Sum of Mulliken charges =  -0.00000

 Dipole moment (field-independent basis, Debye):
    X=              0.0320    Y=             -0.0140    Z=             -0.0191  Tot=              0.0398
 Quadrupole moment (field-independent basis, Debye-Ang):
   XX=            -83.9931   YY=            -86.5488   ZZ=            -84.0870
   XY=             -0.7826   XZ=             -0.6318   YZ=             -0.5176

 Normal termination of Gaussian 16 at Thu May  6 05:24:10 2021.
