 Gaussian 16, Revision A.03,
 Gaussian 16:  EM64L-G16RevA.03 25-Dec-2016

 -------------
 #p 6-31g* mp2
 -------------

 ------------------------------------------------------
 Input file generated by CHIRIPA (05-May-2021 14:51:08)
 ------------------------------------------------------
 Symbolic Z-matrix:
 Charge =  0 Multiplicity = 1

                         Standard orientation:
 ---------------------------------------------------------------------
 Center     Atomic      Atomic             Coordinates (Angstroms)
 Number     Number       Type             X           Y           Z
 ---------------------------------------------------------------------
      1          6           0        3.299723   -0.170987   -0.080740
      2          6           0        3.619108   -1.657123   -0.246202
      3          6           0        4.582190   -1.929680   -1.402047
      4          1           0        2.869369    0.211434   -1.016419
      5          1           0        4.235171    0.382036    0.082035
      6          1           0        2.683201   -2.207361   -0.407237
      7          1           0        4.048574   -2.036096    0.690043
      8          1           0        5.530825   -1.406311   -1.244635
      9          1           0        4.157694   -1.578549   -2.348150
     10          1           0        4.796808   -2.998204   -1.502325
     11          6           0        2.338154    0.117465    1.070741
     12          6           0        2.018769    1.603601    1.236202
     13          6           0        1.055686    1.876158    2.392048
     14          1           0        1.402706   -0.435559    0.907965
     15          1           0        2.768507   -0.264956    2.006420
     16          1           0        1.589303    1.982574    0.299957
     17          1           0        2.954676    2.153839    1.397238
     18          1           0        1.480183    1.525026    3.338151
     19          1           0        0.107052    1.352789    2.234635
     20          1           0        0.841069    2.944682    2.492326
     21          6           0       -3.492917   -0.253858   -0.270416
     22          6           0       -3.372326   -1.542909    0.543091
     23          6           0       -4.729088   -2.092064    0.985154
     24          1           0       -4.018666    0.502340    0.328496
     25          1           0       -4.118371   -0.443167   -1.153798
     26          1           0       -2.746146   -1.351577    1.423947
     27          1           0       -2.846633   -2.296066   -0.057757
     28          1           0       -5.357859   -2.310832    0.116025
     29          1           0       -5.256802   -1.360978    1.606146
     30          1           0       -4.619488   -3.013692    1.565198
     31          6           0       -2.144961    0.307381   -0.719585
     32          6           0       -2.265551    1.596431   -1.533091
     33          6           0       -0.908790    2.145586   -1.975155
     34          1           0       -1.519506    0.496689    0.163798
     35          1           0       -1.619211   -0.448818   -1.318497
     36          1           0       -2.791244    2.349588   -0.932244
     37          1           0       -2.891730    1.405100   -2.413947
     38          1           0       -0.381075    1.414501   -2.596147
     39          1           0       -0.280017    2.364355   -1.106025
     40          1           0       -1.018389    3.067214   -2.555199
 ---------------------------------------------------------------------

 SCF Done:  E(RHF) =  -470.733292494     A.U. after   11 cycles
 E2 =    -0.1583658010D+01 EUMP2 =    -0.47231695050407D+03

 The electronic state is 1-A.
 Alpha  occ. eigenvalues --  -11.21661 -11.21644 -11.21582 -11.21575 -11.21472
 Alpha  occ. eigenvalues --  -11.21406 -11.21371 -11.21312 -11.21124 -11.21117
 Alpha  occ. eigenvalues --  -11.21098 -11.21053  -1.08493  -1.08404  -1.03591
 Alpha  occ. eigenvalues --   -1.03515  -0.96034  -0.95974  -0.87057  -0.86985
 Alpha  occ. eigenvalues --   -0.79667  -0.79567  -0.78307  -0.78218  -0.65216
 Alpha  occ. eigenvalues --   -0.64961  -0.61133  -0.60786  -0.59393  -0.59344
 Alpha  occ. eigenvalues --   -0.57666  -0.57566  -0.55337  -0.55256  -0.52721
 Alpha  occ. eigenvalues --   -0.52676  -0.52475  -0.52398  -0.50094  -0.49821
 Alpha  occ. eigenvalues --   -0.48082  -0.47830  -0.46758  -0.46497  -0.45982
 Alpha  occ. eigenvalues --   -0.45793  -0.45640  -0.45540  -0.43837  -0.43770
 Alpha virt. eigenvalues --    0.19545   0.23102   0.23699   0.24555   0.25657
 Alpha virt. eigenvalues --    0.26022   0.26694   0.28004   0.28991   0.29338
 Alpha virt. eigenvalues --    0.30244   0.31457   0.31702   0.31794   0.31962

 Mulliken charges:
               1
     1  C   -0.298598
     2  C   -0.299707
     3  C   -0.475679
     4  H    0.150473
     5  H    0.149349
     6  H    0.152014
     7  H    0.151813
     8  H    0.155168
     9  H    0.155101
    10  H    0.160113
    11  C   -0.299329
    12  C   -0.306636
    13  C   -0.478842
    14  H    0.151284
    15  H    0.149382
    16  H    0.158471
    17  H    0.152316
    18  H    0.155804
    19  H    0.156478
    20  H    0.160224
    21  C   -0.298180
    22  C   -0.299781
    23  C   -0.475739
    24  H    0.150000
    25  H    0.149878
    26  H    0.151758
    27  H    0.151884
    28  H    0.155261
    29  H    0.155378
    30  H    0.160470
    31  C   -0.303868
    32  C   -0.299036
    33  C   -0.482985
    34  H    0.153929
    35  H    0.149443
    36  H    0.152376
    37  H    0.152289
    38  H    0.154653
    39  H    0.162162
    40  H    0.160913
 Sum of Mulliken charges =  -0.00000

 Dipole moment (field-independent basis, Debye):
    X=             -0.0210    Y=              0.0073    Z=             -0.0082  Tot=              0.0237
 Quadrupole moment (field-independent basis, Debye-Ang):
   XX=            -85.3897   YY=            -84.8542   ZZ=            -84.4393
   XY=             -0.1053   XZ=              1.4687   YZ=              0.4374

 Normal termination of Gaussian 16 at Thu May  6 14:51:28 2021.
