 Gaussian 16, Revision A.03,
 Gaussian 16:  EM64L-G16RevA.03 25-Dec-2016

 -------------
 #p 6-31g* mp2
 -------------

 ------------------------------------------------------
 Input file generated by CHIRIPA (05-May-2021 14:55:19)
 ------------------------------------------------------
 Symbolic Z-matrix:
 Charge =  0 Multiplicity = 1

                         Standard orientation:
 ---------------------------------------------------------------------
 Center     Atomic      Atomic             Coordinates (Angstroms)
 Number     Number       Type             X           Y           Z
 ---------------------------------------------------------------------
      1          6           0        5.134612   -1.028858    0.613040
      2          6           0        3.962195   -1.776644    0.763957
      3          6           0        2.729903   -1.254178    0.360183
      4          6           0        2.706536    0.025131   -0.193091
      5          6           0        3.857281    0.794777   -0.356555
      6          6           0        5.078512    0.252208    0.054250
      7          1           0        6.087590   -1.442530    0.929432
      8          1           0        4.002755   -2.771809    1.197599
      9          1           0        1.806936   -1.811375    0.465457
     10          1           0        3.785149    1.783930   -0.792206
     11          1           0        5.987420    0.835224   -0.064165
     12          7           0        1.407819    0.588883   -0.624270
     13          8           0        1.413996    1.718385   -1.108857
     14          8           0        0.408297   -0.109424   -0.469477
     15          6           0       -4.252582   -0.471513    0.241750
     16          6           0       -3.847904   -1.778507   -0.440883
     17          6           0       -4.886777   -2.885806   -0.260808
     18          1           0       -4.409772   -0.658103    1.312927
     19          1           0       -5.218537   -0.138581   -0.162579
     20          1           0       -2.882333   -2.108149   -0.036379
     21          1           0       -3.691473   -1.588744   -1.510526
     22          1           0       -5.850852   -2.581594   -0.681063
     23          1           0       -5.037115   -3.103950    0.801460
     24          1           0       -4.577333   -3.811122   -0.756686
     25          6           0       -3.224105    0.645037    0.070640
     26          6           0       -3.628783    1.952030    0.753273
     27          6           0       -2.589910    3.059329    0.573197
     28          1           0       -2.258149    0.312104    0.474968
     29          1           0       -3.066915    0.831626   -1.000537
     30          1           0       -3.785213    1.762268    1.822915
     31          1           0       -4.594354    2.281673    0.348768
     32          1           0       -2.439572    3.277473   -0.489071
     33          1           0       -1.625835    2.755118    0.993453
     34          1           0       -2.899353    3.984645    1.069076
 ---------------------------------------------------------------------

 SCF Done:  E(RHF) =  -669.535895107     A.U. after   15 cycles
 E2 =    -0.2091312617D+01 EUMP2 =    -0.67162720772392D+03

 The electronic state is 1-A.
 Alpha  occ. eigenvalues --  -20.60954 -20.60946 -15.85986 -11.31312 -11.27878
 Alpha  occ. eigenvalues --  -11.27871 -11.27613 -11.26883 -11.26873 -11.20555
 Alpha  occ. eigenvalues --  -11.20306 -11.20284 -11.20208 -11.19688 -11.19659
 Alpha  occ. eigenvalues --   -1.60013  -1.39570  -1.19481  -1.08884  -1.07143
 Alpha  occ. eigenvalues --   -1.04878  -1.02349  -0.95725  -0.94785  -0.86278
 Alpha  occ. eigenvalues --   -0.85800  -0.82560  -0.78421  -0.77614  -0.76867
 Alpha  occ. eigenvalues --   -0.72200  -0.71331  -0.70589  -0.65136  -0.64880
 Alpha  occ. eigenvalues --   -0.63789  -0.62225  -0.59765  -0.58181  -0.56381
 Alpha  occ. eigenvalues --   -0.55381  -0.54079  -0.53209  -0.52969  -0.51548
 Alpha  occ. eigenvalues --   -0.51187  -0.49003  -0.48959  -0.48707  -0.46722
 Alpha  occ. eigenvalues --   -0.45474  -0.45035  -0.44423  -0.44210  -0.42561
 Alpha  occ. eigenvalues --   -0.37459  -0.36479
 Alpha virt. eigenvalues --    0.04898   0.11176   0.16384   0.21298   0.24043
 Alpha virt. eigenvalues --    0.25454   0.27220   0.27758   0.28199   0.28879
 Alpha virt. eigenvalues --    0.29157   0.30927   0.32405   0.32545   0.32748

 Mulliken charges:
               1
     1  C   -0.170600
     2  C   -0.218516
     3  C   -0.170858
     4  C    0.157721
     5  C   -0.170611
     6  C   -0.218564
     7  H    0.226062
     8  H    0.223863
     9  H    0.275403
    10  H    0.275997
    11  H    0.223906
    12  N    0.490172
    13  O   -0.458651
    14  O   -0.461574
    15  C   -0.298153
    16  C   -0.297608
    17  C   -0.474990
    18  H    0.144083
    19  H    0.144713
    20  H    0.153629
    21  H    0.153058
    22  H    0.153359
    23  H    0.152080
    24  H    0.156448
    25  C   -0.301911
    26  C   -0.299887
    27  C   -0.472399
    28  H    0.169472
    29  H    0.152766
    30  H    0.145307
    31  H    0.146063
    32  H    0.159682
    33  H    0.158780
    34  H    0.151757
 Sum of Mulliken charges =  -0.00000

 Dipole moment (field-independent basis, Debye):
    X=              4.9779    Y=             -1.9654    Z=              1.4130  Tot=              5.5353
 Quadrupole moment (field-independent basis, Debye-Ang):
   XX=            -71.2270   YY=            -92.9360   ZZ=            -95.1261
   XY=             -3.9241   XZ=              3.3849   YZ=             -1.5586

 Normal termination of Gaussian 16 at Thu May  6 09:12:20 2021.
