 Gaussian 16, Revision A.03,
 Gaussian 16:  EM64L-G16RevA.03 25-Dec-2016

 -------------
 #p 6-31g* mp2
 -------------

 ------------------------------------------------------
 Input file generated by CHIRIPA (05-May-2021 14:55:21)
 ------------------------------------------------------
 Symbolic Z-matrix:
 Charge =  0 Multiplicity = 1

                         Standard orientation:
 ---------------------------------------------------------------------
 Center     Atomic      Atomic             Coordinates (Angstroms)
 Number     Number       Type             X           Y           Z
 ---------------------------------------------------------------------
      1          6           0        0.959350   -0.101963    1.131949
      2          6           0        2.093971   -0.010094    1.944793
      3          6           0        3.374177   -0.087361    1.388329
      4          6           0        3.483475   -0.257467    0.009051
      5          6           0        2.372217   -0.352379   -0.827243
      6          6           0        1.101843   -0.272512   -0.249040
      7          1           0       -0.031326   -0.040931    1.572667
      8          1           0        1.986331    0.122373    3.017598
      9          1           0        4.269498   -0.019221    1.994278
     10          1           0        2.511358   -0.484249   -1.893389
     11          1           0        0.222456   -0.344172   -0.882750
     12          7           0        4.833567   -0.340643   -0.591560
     13          8           0        4.902978   -0.490659   -1.809474
     14          8           0        5.796795   -0.254244    0.166968
     15          6           0       -4.416398   -0.366148    0.116249
     16          6           0       -5.782637   -0.769399   -0.439418
     17          6           0       -6.253958   -2.128410    0.078983
     18          1           0       -3.678702   -1.136519   -0.146960
     19          1           0       -4.466797   -0.343617    1.213676
     20          1           0       -5.730052   -0.789819   -1.535517
     21          1           0       -6.517127    0.002116   -0.175019
     22          1           0       -6.334650   -2.117381    1.170756
     23          1           0       -5.543104   -2.913815   -0.197472
     24          1           0       -7.232610   -2.397007   -0.330838
     25          6           0       -3.931668    0.990172   -0.392828
     26          6           0       -2.565429    1.393422    0.162839
     27          6           0       -2.094109    2.752433   -0.355562
     28          1           0       -3.881269    0.967639   -1.490255
     29          1           0       -4.669364    1.760542   -0.129618
     30          1           0       -1.830940    0.621908   -0.101560
     31          1           0       -2.618013    1.413842    1.258938
     32          1           0       -2.804963    3.537838   -0.079107
     33          1           0       -2.013416    2.741404   -1.447336
     34          1           0       -1.115456    3.021030    0.054259
 ---------------------------------------------------------------------

 SCF Done:  E(RHF) =  -669.535090119     A.U. after   15 cycles
 E2 =    -0.2092057317D+01 EUMP2 =    -0.67162714743576D+03

 The electronic state is 1-A.
 Alpha  occ. eigenvalues --  -20.60728 -20.60723 -15.85782 -11.31137 -11.27712
 Alpha  occ. eigenvalues --  -11.27708 -11.27399 -11.26711 -11.26700 -11.22857
 Alpha  occ. eigenvalues --  -11.22345 -11.22302 -11.22238 -11.21996 -11.21661
 Alpha  occ. eigenvalues --   -1.59804  -1.39358  -1.19309  -1.09366  -1.08700
 Alpha  occ. eigenvalues --   -1.04719  -1.04415  -0.96817  -0.95538  -0.87833
 Alpha  occ. eigenvalues --   -0.86120  -0.82375  -0.80535  -0.79178  -0.77427
 Alpha  occ. eigenvalues --   -0.72001  -0.71128  -0.70408  -0.66039  -0.64960
 Alpha  occ. eigenvalues --   -0.64734  -0.62158  -0.61717  -0.60196  -0.58440
 Alpha  occ. eigenvalues --   -0.56088  -0.55192  -0.53512  -0.53238  -0.53025
 Alpha  occ. eigenvalues --   -0.52816  -0.50760  -0.48813  -0.48760  -0.48747
 Alpha  occ. eigenvalues --   -0.47563  -0.46696  -0.46612  -0.44766  -0.44660
 Alpha  occ. eigenvalues --   -0.37273  -0.36320
 Alpha virt. eigenvalues --    0.05105   0.11286   0.16582   0.19730   0.22463
 Alpha virt. eigenvalues --    0.23813   0.24958   0.25743   0.27146   0.27644
 Alpha virt. eigenvalues --    0.29240   0.29669   0.30879   0.31504   0.31766

 Mulliken charges:
               1
     1  C   -0.172999
     2  C   -0.219360
     3  C   -0.170881
     4  C    0.158274
     5  C   -0.170981
     6  C   -0.221737
     7  H    0.230695
     8  H    0.223253
     9  H    0.275383
    10  H    0.275369
    11  H    0.225339
    12  N    0.488049
    13  O   -0.460602
    14  O   -0.460538
    15  C   -0.298786
    16  C   -0.300234
    17  C   -0.476260
    18  H    0.146311
    19  H    0.149486
    20  H    0.153391
    21  H    0.153876
    22  H    0.155621
    23  H    0.155489
    24  H    0.162805
    25  C   -0.297858
    26  C   -0.306533
    27  C   -0.476694
    28  H    0.151652
    29  H    0.153873
    30  H    0.143321
    31  H    0.150850
    32  H    0.159595
    33  H    0.157437
    34  H    0.163394
 Sum of Mulliken charges =  -0.00000

 Dipole moment (field-independent basis, Debye):
    X=             -4.9855    Y=              0.3758    Z=              2.0954  Tot=              5.4210
 Quadrupole moment (field-independent basis, Debye-Ang):
   XX=           -126.7739   YY=            -96.0867   ZZ=            -90.1434
   XY=              1.6906   XZ=              9.4064   YZ=              0.6372

 Normal termination of Gaussian 16 at Thu May  6 09:20:36 2021.
