 Gaussian 16, Revision A.03,
 Gaussian 16:  EM64L-G16RevA.03 25-Dec-2016

 -------------
 #p 6-31g* mp2
 -------------

 ------------------------------------------------------
 Input file generated by CHIRIPA (05-May-2021 14:51:08)
 ------------------------------------------------------
 Symbolic Z-matrix:
 Charge =  0 Multiplicity = 1

                         Standard orientation:
 ---------------------------------------------------------------------
 Center     Atomic      Atomic             Coordinates (Angstroms)
 Number     Number       Type             X           Y           Z
 ---------------------------------------------------------------------
      1          6           0       -3.012800    0.744477   -0.577812
      2          6           0       -2.189493    1.908398   -0.025147
      3          6           0       -2.814701    3.270640   -0.327149
      4          1           0       -3.124212    0.865683   -1.664017
      5          1           0       -4.025357    0.786494   -0.153127
      6          1           0       -1.178374    1.863397   -0.449681
      7          1           0       -2.079866    1.784306    1.059841
      8          1           0       -3.815774    3.340612    0.110522
      9          1           0       -2.909161    3.420153   -1.407577
     10          1           0       -2.209859    4.088419    0.076912
     11          6           0       -2.400628   -0.623953   -0.283920
     12          6           0       -3.223935   -1.787874   -0.836584
     13          6           0       -2.598728   -3.150117   -0.534583
     14          1           0       -1.388071   -0.665970   -0.708604
     15          1           0       -2.289216   -0.745159    0.802286
     16          1           0       -3.333563   -1.663782   -1.921572
     17          1           0       -4.235054   -1.742873   -0.412050
     18          1           0       -2.504268   -3.299629    0.545845
     19          1           0       -1.597654   -3.220088   -0.972254
     20          1           0       -3.203569   -3.967895   -0.938643
     21          6           0        2.499988   -0.179561    1.156444
     22          6           0        0.990531   -0.083150    1.380563
     23          6           0        0.592564   -0.324190    2.837037
     24          1           0        2.848762   -1.171776    1.473952
     25          1           0        3.006871    0.551203    1.801773
     26          1           0        0.486558   -0.812923    0.733987
     27          1           0        0.645279    0.908883    1.062307
     28          1           0        1.068806    0.411399    3.493317
     29          1           0        0.909183   -1.320189    3.163132
     30          1           0       -0.490717   -0.250574    2.974676
     31          6           0        2.913440    0.059037   -0.294712
     32          6           0        4.422898   -0.037373   -0.518832
     33          6           0        4.820865    0.203666   -1.975305
     34          1           0        2.406558   -0.671726   -0.940042
     35          1           0        2.564666    1.051252   -0.612220
     36          1           0        4.768148   -1.029407   -0.200575
     37          1           0        4.926871    0.692398    0.127744
     38          1           0        4.504245    1.199665   -2.301400
     39          1           0        4.344622   -0.531923   -2.631586
     40          1           0        5.904145    0.130051   -2.112944
 ---------------------------------------------------------------------

 SCF Done:  E(RHF) =  -470.732062058     A.U. after   11 cycles
 E2 =    -0.1584706162D+01 EUMP2 =    -0.47231676822064D+03

 The electronic state is 1-A.
 Alpha  occ. eigenvalues --  -11.21599 -11.21595 -11.21590 -11.21406 -11.21389
 Alpha  occ. eigenvalues --  -11.21379 -11.21315 -11.21284 -11.21102 -11.21076
 Alpha  occ. eigenvalues --  -11.21074 -11.21021  -1.08470  -1.08349  -1.03541
 Alpha  occ. eigenvalues --   -1.03479  -0.96001  -0.95933  -0.87007  -0.86961
 Alpha  occ. eigenvalues --   -0.79640  -0.79587  -0.78498  -0.77907  -0.65075
 Alpha  occ. eigenvalues --   -0.65015  -0.60961  -0.60881  -0.59381  -0.59300
 Alpha  occ. eigenvalues --   -0.57695  -0.57465  -0.55280  -0.55236  -0.52707
 Alpha  occ. eigenvalues --   -0.52623  -0.52424  -0.52372  -0.49969  -0.49860
 Alpha  occ. eigenvalues --   -0.48049  -0.47963  -0.46704  -0.46461  -0.46213
 Alpha  occ. eigenvalues --   -0.45716  -0.45593  -0.45070  -0.43787  -0.43722
 Alpha virt. eigenvalues --    0.21142   0.23081   0.23586   0.23796   0.24838
 Alpha virt. eigenvalues --    0.26184   0.26538   0.27816   0.28946   0.29740
 Alpha virt. eigenvalues --    0.30373   0.31208   0.31718   0.31794   0.32111

 Mulliken charges:
               1
     1  C   -0.297951
     2  C   -0.302893
     3  C   -0.475408
     4  H    0.149411
     5  H    0.149160
     6  H    0.154686
     7  H    0.153025
     8  H    0.155133
     9  H    0.155150
    10  H    0.159897
    11  C   -0.303091
    12  C   -0.299157
    13  C   -0.476193
    14  H    0.153821
    15  H    0.152228
    16  H    0.151766
    17  H    0.151715
    18  H    0.155376
    19  H    0.154301
    20  H    0.160624
    21  C   -0.297859
    22  C   -0.307109
    23  C   -0.477515
    24  H    0.149068
    25  H    0.148798
    26  H    0.157792
    27  H    0.157368
    28  H    0.154728
    29  H    0.154825
    30  H    0.160037
    31  C   -0.298237
    32  C   -0.299446
    33  C   -0.475699
    34  H    0.148348
    35  H    0.148869
    36  H    0.152069
    37  H    0.152066
    38  H    0.155037
    39  H    0.154964
    40  H    0.160296
 Sum of Mulliken charges =  -0.00000

 Dipole moment (field-independent basis, Debye):
    X=             -0.0292    Y=              0.0040    Z=             -0.0158  Tot=              0.0335
 Quadrupole moment (field-independent basis, Debye-Ang):
   XX=            -84.9531   YY=            -84.9571   ZZ=            -85.1138
   XY=              0.4106   XZ=             -0.0733   YZ=              0.4564

 Normal termination of Gaussian 16 at Thu May  6 06:53:05 2021.
