 Gaussian 16, Revision A.03,
 Gaussian 16:  EM64L-G16RevA.03 25-Dec-2016

 -------------
 #p 6-31g* mp2
 -------------

 ------------------------------------------------------
 Input file generated by CHIRIPA (05-May-2021 14:55:18)
 ------------------------------------------------------
 Symbolic Z-matrix:
 Charge =  0 Multiplicity = 1

                         Standard orientation:
 ---------------------------------------------------------------------
 Center     Atomic      Atomic             Coordinates (Angstroms)
 Number     Number       Type             X           Y           Z
 ---------------------------------------------------------------------
      1          6           0       -5.695199    1.203419    0.253736
      2          6           0       -5.699335   -0.168888   -0.016963
      3          6           0       -4.503823   -0.844354   -0.279726
      4          6           0       -3.317094   -0.113119   -0.263597
      5          6           0       -3.280313    1.254736    0.002691
      6          6           0       -4.487830    1.909606    0.262684
      7          1           0       -6.628565    1.720137    0.456781
      8          1           0       -6.635495   -0.719879   -0.024579
      9          1           0       -4.478206   -1.906226   -0.492306
     10          1           0       -2.331311    1.777051    0.003252
     11          1           0       -4.481597    2.975412    0.472596
     12          7           0       -2.045105   -0.817303   -0.540306
     13          8           0       -1.012927   -0.150339   -0.520161
     14          8           0       -2.104382   -2.022872   -0.772097
     15          6           0        4.982610    0.516679   -0.026229
     16          6           0        6.380443   -0.026456   -0.324645
     17          6           0        7.305922    1.026517   -0.935000
     18          1           0        4.539892    0.901955   -0.954942
     19          1           0        5.067634    1.372295    0.657940
     20          1           0        6.292705   -0.881657   -1.006956
     21          1           0        6.819810   -0.410657    0.604851
     22          1           0        7.423084    1.876842   -0.255428
     23          1           0        6.892984    1.403167   -1.876392
     24          1           0        8.299847    0.616868   -1.140334
     25          6           0        4.045828   -0.524202    0.584289
     26          6           0        2.647995    0.018933    0.882706
     27          6           0        1.722516   -1.034040    1.493060
     28          1           0        3.960804   -1.379818   -0.099880
     29          1           0        4.488546   -0.909478    1.513002
     30          1           0        2.208628    0.403134   -0.046790
     31          1           0        2.735733    0.874134    1.565016
     32          1           0        2.135454   -1.410690    2.434452
     33          1           0        1.605354   -1.884366    0.813488
     34          1           0        0.728592   -0.624391    1.698394
 ---------------------------------------------------------------------

 SCF Done:  E(RHF) =  -669.535946198     A.U. after   15 cycles
 E2 =    -0.2091227143D+01 EUMP2 =    -0.67162717334084D+03

 The electronic state is 1-A.
 Alpha  occ. eigenvalues --  -20.60949 -20.60935 -15.85969 -11.31295 -11.27858
 Alpha  occ. eigenvalues --  -11.27854 -11.27596 -11.26866 -11.26856 -11.20928
 Alpha  occ. eigenvalues --  -11.20556 -11.20526 -11.20325 -11.20219 -11.19433
 Alpha  occ. eigenvalues --   -1.60000  -1.39558  -1.19464  -1.08867  -1.07460
 Alpha  occ. eigenvalues --   -1.04860  -1.02480  -0.95712  -0.94929  -0.86261
 Alpha  occ. eigenvalues --   -0.85959  -0.82542  -0.78598  -0.77597  -0.77232
 Alpha  occ. eigenvalues --   -0.72198  -0.71318  -0.70572  -0.65120  -0.64863
 Alpha  occ. eigenvalues --   -0.64092  -0.62207  -0.59868  -0.58363  -0.56524
 Alpha  occ. eigenvalues --   -0.55365  -0.54225  -0.53193  -0.52951  -0.51630
 Alpha  occ. eigenvalues --   -0.51370  -0.49055  -0.48947  -0.48762  -0.46908
 Alpha  occ. eigenvalues --   -0.45644  -0.44948  -0.44770  -0.44666  -0.42729
 Alpha  occ. eigenvalues --   -0.37441  -0.36461
 Alpha virt. eigenvalues --    0.04913   0.11193   0.16393   0.21314   0.23777
 Alpha virt. eigenvalues --    0.25396   0.27243   0.27560   0.28111   0.28475
 Alpha virt. eigenvalues --    0.29095   0.30887   0.32277   0.32460   0.32640

 Mulliken charges:
               1
     1  C   -0.170611
     2  C   -0.218557
     3  C   -0.170701
     4  C    0.158075
     5  C   -0.171008
     6  C   -0.218516
     7  H    0.226002
     8  H    0.223833
     9  H    0.275896
    10  H    0.275767
    11  H    0.223868
    12  N    0.489357
    13  O   -0.460036
    14  O   -0.458941
    15  C   -0.297507
    16  C   -0.298946
    17  C   -0.475149
    18  H    0.149742
    19  H    0.146514
    20  H    0.151987
    21  H    0.150441
    22  H    0.153603
    23  H    0.154601
    24  H    0.158265
    25  C   -0.298023
    26  C   -0.301028
    27  C   -0.469012
    28  H    0.150780
    29  H    0.145712
    30  H    0.162788
    31  H    0.142933
    32  H    0.142295
    33  H    0.162418
    34  H    0.163160
 Sum of Mulliken charges =  -0.00000

 Dipole moment (field-independent basis, Debye):
    X=             -4.8326    Y=              2.4427    Z=              0.8418  Tot=              5.4799
 Quadrupole moment (field-independent basis, Debye-Ang):
   XX=            -65.9709   YY=            -92.1662   ZZ=            -95.8297
   XY=             -5.9544   XZ=             -1.5104   YZ=              0.5101

 Normal termination of Gaussian 16 at Wed May  5 23:41:55 2021.
