 Gaussian 16, Revision A.03,
 Gaussian 16:  EM64L-G16RevA.03 25-Dec-2016

 -------------
 #p 6-31g* mp2
 -------------

 ------------------------------------------------------
 Input file generated by CHIRIPA (05-May-2021 14:57:23)
 ------------------------------------------------------
 Symbolic Z-matrix:
 Charge =  0 Multiplicity = 1

                         Standard orientation:
 ---------------------------------------------------------------------
 Center     Atomic      Atomic             Coordinates (Angstroms)
 Number     Number       Type             X           Y           Z
 ---------------------------------------------------------------------
      1          6           0        2.967290   -2.364396    0.728897
      2          6           0        3.788257   -1.511370    1.473801
      3          6           0        3.885347   -0.155450    1.147301
      4          6           0        3.144234    0.315885    0.064765
      5          6           0        2.317558   -0.508846   -0.696625
      6          6           0        2.235850   -1.861298   -0.352033
      7          1           0        2.897843   -3.416361    0.989557
      8          1           0        4.357446   -1.899316    2.313781
      9          1           0        4.513212    0.527134    1.707017
     10          1           0        1.762209   -0.092970   -1.528523
     11          1           0        1.597470   -2.521443   -0.932313
     12          7           0        3.238876    1.749502   -0.290463
     13          8           0        2.575783    2.140137   -1.248768
     14          8           0        3.974359    2.455390    0.396141
     15          6           0       -4.646017    1.381650    1.265286
     16          6           0       -3.788779    1.958877    0.322698
     17          6           0       -2.943698    1.158953   -0.452226
     18          6           0       -2.981940   -0.220876   -0.257555
     19          6           0       -3.824858   -0.825796    0.673494
     20          6           0       -4.661294   -0.006398    1.437372
     21          1           0       -5.299139    2.010614    1.862974
     22          1           0       -3.774785    3.036564    0.186906
     23          1           0       -2.270196    1.579518   -1.189070
     24          1           0       -3.816371   -1.903124    0.786232
     25          1           0       -5.326004   -0.457437    2.168651
     26          7           0       -2.091867   -1.078029   -1.072085
     27          8           0       -2.144501   -2.291097   -0.881478
     28          8           0       -1.358446   -0.520566   -1.885698
 ---------------------------------------------------------------------

 SCF Done:  E(RHF) =  -868.340809725     A.U. after   16 cycles
 E2 =    -0.2598572473D+01 EUMP2 =    -0.87093938219825D+03

 The electronic state is 1-A.
 Alpha  occ. eigenvalues --  -20.61384 -20.61378 -20.60190 -20.60181 -15.86398
 Alpha  occ. eigenvalues --  -15.85230 -11.31442 -11.30374 -11.28009 -11.27927
 Alpha  occ. eigenvalues --  -11.27677 -11.27006 -11.26954 -11.26886 -11.26746
 Alpha  occ. eigenvalues --  -11.26653 -11.26002 -11.25723  -1.60446  -1.59271
 Alpha  occ. eigenvalues --   -1.40005  -1.38827  -1.19591  -1.18535  -1.09051
 Alpha  occ. eigenvalues --   -1.07984  -1.04942  -1.03872  -0.95936  -0.94845
 Alpha  occ. eigenvalues --   -0.86357  -0.85290  -0.82777  -0.81662  -0.77853
 Alpha  occ. eigenvalues --   -0.76725  -0.72636  -0.71742  -0.71454  -0.70697
 Alpha  occ. eigenvalues --   -0.70594  -0.69636  -0.65247  -0.64943  -0.64174
 Alpha  occ. eigenvalues --   -0.63846  -0.62286  -0.61183  -0.55467  -0.54421
 Alpha  occ. eigenvalues --   -0.53294  -0.53027  -0.52269  -0.51928  -0.49398
 Alpha  occ. eigenvalues --   -0.49376  -0.48217  -0.48193  -0.45474  -0.44281
 Alpha  occ. eigenvalues --   -0.37562  -0.36551  -0.36529  -0.35479
 Alpha virt. eigenvalues --    0.04620   0.05752   0.11128   0.12159   0.16163
 Alpha virt. eigenvalues --    0.17281   0.21282   0.22418   0.27243   0.27992
 Alpha virt. eigenvalues --    0.28531   0.29248   0.30916   0.31881   0.32363

 Mulliken charges:
               1
     1  C   -0.171935
     2  C   -0.219694
     3  C   -0.172973
     4  C    0.156294
     5  C   -0.175563
     6  C   -0.223395
     7  H    0.224135
     8  H    0.219553
     9  H    0.271776
    10  H    0.288651
    11  H    0.238425
    12  N    0.487735
    13  O   -0.461032
    14  O   -0.464602
    15  C   -0.169774
    16  C   -0.218700
    17  C   -0.170085
    18  C    0.157222
    19  C   -0.170906
    20  C   -0.218859
    21  H    0.227108
    22  H    0.227199
    23  H    0.280703
    24  H    0.274042
    25  H    0.223689
    26  N    0.489661
    27  O   -0.463935
    28  O   -0.464739
 Sum of Mulliken charges =  -0.00000

 Dipole moment (field-independent basis, Debye):
    X=             -3.8350    Y=             -2.0214    Z=              3.9872  Tot=              5.8899
 Quadrupole moment (field-independent basis, Debye-Ang):
   XX=            -87.2213   YY=           -106.6867   ZZ=           -103.2495
   XY=            -23.0005   XZ=             -2.7512   YZ=             -2.7359

 Normal termination of Gaussian 16 at Thu May  6 14:36:56 2021.
