 Gaussian 16, Revision A.03,
 Gaussian 16:  EM64L-G16RevA.03 25-Dec-2016

 -------------
 #p 6-31g* mp2
 -------------

 ------------------------------------------------------
 Input file generated by CHIRIPA (05-May-2021 14:57:24)
 ------------------------------------------------------
 Symbolic Z-matrix:
 Charge =  0 Multiplicity = 1

                         Standard orientation:
 ---------------------------------------------------------------------
 Center     Atomic      Atomic             Coordinates (Angstroms)
 Number     Number       Type             X           Y           Z
 ---------------------------------------------------------------------
      1          6           0       -2.417807    1.307077    2.002771
      2          6           0       -3.706105    1.621944    1.558175
      3          6           0       -4.302700    0.884693    0.531003
      4          6           0       -3.579115   -0.165615   -0.031640
      5          6           0       -2.293972   -0.503794    0.389469
      6          6           0       -1.717087    0.247081    1.418030
      7          1           0       -1.962013    1.885083    2.801243
      8          1           0       -4.252647    2.444615    2.010448
      9          1           0       -5.298664    1.106863    0.167529
     10          1           0       -1.773946   -1.329517   -0.080821
     11          1           0       -0.716431    0.000288    1.761288
     12          7           0       -4.200270   -0.953322   -1.119797
     13          8           0       -3.541858   -1.873879   -1.599072
     14          8           0       -5.333781   -0.635254   -1.472814
     15          6           0        2.960883    2.229943   -1.281506
     16          6           0        4.279562    1.767782   -1.218134
     17          6           0        4.577039    0.553487   -0.592399
     18          6           0        3.526612   -0.176331   -0.038089
     19          6           0        2.202624    0.257420   -0.085041
     20          6           0        1.928444    1.474619   -0.715755
     21          1           0        2.738844    3.174364   -1.769526
     22          1           0        5.083382    2.352273   -1.656638
     23          1           0        5.588953    0.172126   -0.529056
     24          1           0        1.422562   -0.347383    0.361205
     25          1           0        0.903402    1.831069   -0.763473
     26          7           0        3.829207   -1.463387    0.626984
     27          8           0        2.885857   -2.087655    1.107629
     28          8           0        5.003999   -1.823543    0.655031
 ---------------------------------------------------------------------

 SCF Done:  E(RHF) =  -868.337593810     A.U. after   16 cycles
 E2 =    -0.2599896034D+01 EUMP2 =    -0.87093748984421D+03

 The electronic state is 1-A.
 Alpha  occ. eigenvalues --  -20.61257 -20.61234 -20.61080 -20.61071 -15.86301
 Alpha  occ. eigenvalues --  -15.86138 -11.31693 -11.31625 -11.28332 -11.28236
 Alpha  occ. eigenvalues --  -11.28214 -11.28198 -11.27989 -11.27935 -11.27292
 Alpha  occ. eigenvalues --  -11.27256 -11.27225 -11.27218  -1.60319  -1.60154
 Alpha  occ. eigenvalues --   -1.39875  -1.39703  -1.19848  -1.19824  -1.09223
 Alpha  occ. eigenvalues --   -1.09190  -1.05291  -1.05218  -0.96067  -0.95999
 Alpha  occ. eigenvalues --   -0.86664  -0.86616  -0.82917  -0.82819  -0.78000
 Alpha  occ. eigenvalues --   -0.77823  -0.72518  -0.72350  -0.71640  -0.71483
 Alpha  occ. eigenvalues --   -0.70972  -0.70896  -0.65508  -0.65471  -0.65333
 Alpha  occ. eigenvalues --   -0.65162  -0.62800  -0.62390  -0.55763  -0.55687
 Alpha  occ. eigenvalues --   -0.53581  -0.53570  -0.53437  -0.53217  -0.49285
 Alpha  occ. eigenvalues --   -0.49265  -0.49121  -0.49098  -0.45275  -0.45081
 Alpha  occ. eigenvalues --   -0.37812  -0.37798  -0.36880  -0.36847
 Alpha virt. eigenvalues --    0.04571   0.04668   0.10749   0.10783   0.16007
 Alpha virt. eigenvalues --    0.16094   0.19071   0.21822   0.24676   0.27310
 Alpha virt. eigenvalues --    0.27843   0.29082   0.30077   0.31086   0.32066

 Mulliken charges:
               1
     1  C   -0.171687
     2  C   -0.219074
     3  C   -0.170170
     4  C    0.158409
     5  C   -0.173759
     6  C   -0.228849
     7  H    0.227921
     8  H    0.224978
     9  H    0.277204
    10  H    0.279309
    11  H    0.227211
    12  N    0.487883
    13  O   -0.458015
    14  O   -0.459633
    15  C   -0.170604
    16  C   -0.217826
    17  C   -0.170238
    18  C    0.161065
    19  C   -0.176663
    20  C   -0.219863
    21  H    0.227544
    22  H    0.225489
    23  H    0.277209
    24  H    0.268906
    25  H    0.225923
    26  N    0.487997
    27  O   -0.463364
    28  O   -0.457305
 Sum of Mulliken charges =  -0.00000

 Dipole moment (field-independent basis, Debye):
    X=              1.1256    Y=              7.3652    Z=              1.4284  Tot=              7.5864
 Quadrupole moment (field-independent basis, Debye-Ang):
   XX=           -118.8309   YY=           -106.5891   ZZ=           -105.9727
   XY=              4.0742   XZ=            -23.9134   YZ=             -0.4728

 Normal termination of Gaussian 16 at Fri May  7 04:58:53 2021.
