 Gaussian 16, Revision A.03,
 Gaussian 16:  EM64L-G16RevA.03 25-Dec-2016

 -------------
 #p 6-31g* mp2
 -------------

 ------------------------------------------------------
 Input file generated by CHIRIPA (05-May-2021 14:57:22)
 ------------------------------------------------------
 Symbolic Z-matrix:
 Charge =  0 Multiplicity = 1

                         Standard orientation:
 ---------------------------------------------------------------------
 Center     Atomic      Atomic             Coordinates (Angstroms)
 Number     Number       Type             X           Y           Z
 ---------------------------------------------------------------------
      1          6           0        3.857649    2.308221   -0.498073
      2          6           0        4.513354    1.441890    0.382860
      3          6           0        4.033997    0.145341    0.591965
      4          6           0        2.891224   -0.253702   -0.099500
      5          6           0        2.215771    0.586089   -0.983698
      6          6           0        2.712969    1.878313   -1.177343
      7          1           0        4.236955    3.313732   -0.654506
      8          1           0        5.402540    1.773053    0.911748
      9          1           0        4.522071   -0.545953    1.268216
     10          1           0        1.331628    0.227429   -1.496602
     11          1           0        2.201691    2.548957   -1.862088
     12          7           0        2.374307   -1.624012    0.113687
     13          8           0        1.365630   -1.951474   -0.507584
     14          8           0        2.987612   -2.344651    0.898016
     15          6           0       -3.581888    2.436779    0.577840
     16          6           0       -2.655053    1.785579    1.398471
     17          6           0       -2.312051    0.451002    1.162248
     18          6           0       -2.917884   -0.205027    0.091788
     19          6           0       -3.844799    0.416407   -0.743638
     20          6           0       -4.172762    1.751323   -0.488715
     21          1           0       -3.842499    3.473642    0.768606
     22          1           0       -2.194589    2.315425    2.227495
     23          1           0       -1.597603   -0.077290    1.781837
     24          1           0       -4.287117   -0.137995   -1.562425
     25          1           0       -4.892877    2.254521   -1.127675
     26          7           0       -2.562723   -1.618063   -0.168188
     27          8           0       -3.110556   -2.173885   -1.117702
     28          8           0       -1.743241   -2.143024    0.582479
 ---------------------------------------------------------------------

 SCF Done:  E(RHF) =  -868.335252428     A.U. after   16 cycles
 E2 =    -0.2600997909D+01 EUMP2 =    -0.87093625033646D+03

 The electronic state is 1-A.
 Alpha  occ. eigenvalues --  -20.60241 -20.60139 -20.60101 -20.59963 -15.85245
 Alpha  occ. eigenvalues --  -15.85087 -11.30972 -11.30882 -11.27578 -11.27573
 Alpha  occ. eigenvalues --  -11.27498 -11.27478 -11.27387 -11.27321 -11.26677
 Alpha  occ. eigenvalues --  -11.26662 -11.26608 -11.26597  -1.59261  -1.59093
 Alpha  occ. eigenvalues --   -1.38807  -1.38633  -1.19178  -1.19095  -1.08507
 Alpha  occ. eigenvalues --   -1.08410  -1.04629  -1.04553  -0.95281  -0.95166
 Alpha  occ. eigenvalues --   -0.86010  -0.85929  -0.82114  -0.81987  -0.77103
 Alpha  occ. eigenvalues --   -0.76968  -0.71511  -0.71259  -0.70640  -0.70375
 Alpha  occ. eigenvalues --   -0.70270  -0.70189  -0.64817  -0.64726  -0.64631
 Alpha  occ. eigenvalues --   -0.64555  -0.61968  -0.61887  -0.55119  -0.55044
 Alpha  occ. eigenvalues --   -0.52955  -0.52871  -0.52719  -0.52644  -0.48256
 Alpha  occ. eigenvalues --   -0.48207  -0.48068  -0.48033  -0.44339  -0.43693
 Alpha  occ. eigenvalues --   -0.37190  -0.37101  -0.36266  -0.36172
 Alpha virt. eigenvalues --    0.05339   0.05673   0.11346   0.11508   0.16779
 Alpha virt. eigenvalues --    0.17076   0.21504   0.21582   0.27392   0.27468
 Alpha virt. eigenvalues --    0.28406   0.28516   0.30932   0.31182   0.32609

 Mulliken charges:
               1
     1  C   -0.172450
     2  C   -0.218757
     3  C   -0.171982
     4  C    0.158422
     5  C   -0.172487
     6  C   -0.218974
     7  H    0.223707
     8  H    0.222376
     9  H    0.275911
    10  H    0.275956
    11  H    0.221530
    12  N    0.486585
    13  O   -0.447632
    14  O   -0.462423
    15  C   -0.173045
    16  C   -0.219353
    17  C   -0.172666
    18  C    0.158605
    19  C   -0.172642
    20  C   -0.219163
    21  H    0.223175
    22  H    0.221619
    23  H    0.277783
    24  H    0.275650
    25  H    0.221779
    26  N    0.487547
    27  O   -0.464041
    28  O   -0.445029
 Sum of Mulliken charges =  -0.00000

 Dipole moment (field-independent basis, Debye):
    X=              0.5868    Y=              9.4637    Z=              0.1873  Tot=              9.4837
 Quadrupole moment (field-independent basis, Debye-Ang):
   XX=            -84.1886   YY=           -110.4872   ZZ=           -100.3111
   XY=             -1.3546   XZ=              0.3831   YZ=             -0.6868

 Normal termination of Gaussian 16 at Fri May  7 01:46:29 2021.
