 Gaussian 16, Revision A.03,
 Gaussian 16:  EM64L-G16RevA.03 25-Dec-2016

 -------------
 #p 6-31g* mp2
 -------------

 ------------------------------------------------------
 Input file generated by CHIRIPA (05-May-2021 14:55:24)
 ------------------------------------------------------
 Symbolic Z-matrix:
 Charge =  0 Multiplicity = 1

                         Standard orientation:
 ---------------------------------------------------------------------
 Center     Atomic      Atomic             Coordinates (Angstroms)
 Number     Number       Type             X           Y           Z
 ---------------------------------------------------------------------
      1          6           0        3.335954    0.485524   -1.570963
      2          6           0        2.932608   -0.853004   -1.524330
      3          6           0        2.119298   -1.313663   -0.484681
      4          6           0        1.726129   -0.404400    0.496109
      5          6           0        2.111401    0.935191    0.477354
      6          6           0        2.924789    1.373784   -0.571734
      7          1           0        3.967783    0.834804   -2.382253
      8          1           0        3.250400   -1.545082   -2.298979
      9          1           0        1.792400   -2.344628   -0.424132
     10          1           0        1.778544    1.601438    1.263953
     11          1           0        3.236498    2.413855   -0.605387
     12          7           0        0.865074   -0.880399    1.601735
     13          8           0        0.532256   -0.059370    2.453663
     14          8           0        0.539300   -2.065502    1.595461
     15          6           0       -2.633993   -0.263233   -0.153942
     16          6           0       -2.612397   -1.345088   -1.234269
     17          6           0       -3.101112   -2.700720   -0.723179
     18          1           0       -2.009609   -0.585018    0.690774
     19          1           0       -3.657092   -0.162707    0.234073
     20          1           0       -1.589915   -1.442577   -1.621104
     21          1           0       -3.236751   -1.020605   -2.076593
     22          1           0       -4.129493   -2.625745   -0.355194
     23          1           0       -2.473299   -3.050114    0.102882
     24          1           0       -3.077404   -3.459354   -1.511704
     25          6           0       -2.148194    1.097664   -0.649613
     26          6           0       -2.169790    2.179520    0.430715
     27          6           0       -1.681075    3.535152   -0.080376
     28          1           0       -1.125093    0.997139   -1.037629
     29          1           0       -2.772577    1.419449   -1.494329
     30          1           0       -1.545436    1.855037    1.273038
     31          1           0       -3.192272    2.277008    0.817549
     32          1           0       -2.308887    3.884545   -0.906437
     33          1           0       -0.652693    3.460177   -0.448361
     34          1           0       -1.704782    4.293785    0.708149
 ---------------------------------------------------------------------

 SCF Done:  E(RHF) =  -669.536925999     A.U. after   15 cycles
 E2 =    -0.2094138939D+01 EUMP2 =    -0.67163106493772D+03

 The electronic state is 1-A.
 Alpha  occ. eigenvalues --  -20.61113 -20.61108 -15.86106 -11.31395 -11.27946
 Alpha  occ. eigenvalues --  -11.27943 -11.27662 -11.26939 -11.26928 -11.21073
 Alpha  occ. eigenvalues --  -11.21056 -11.20925 -11.20888 -11.20679 -11.20357
 Alpha  occ. eigenvalues --   -1.60157  -1.39712  -1.19553  -1.08963  -1.07900
 Alpha  occ. eigenvalues --   -1.04938  -1.03029  -0.95812  -0.95497  -0.86510
 Alpha  occ. eigenvalues --   -0.86337  -0.82646  -0.79089  -0.77724  -0.77677
 Alpha  occ. eigenvalues --   -0.72332  -0.71500  -0.70650  -0.65206  -0.64935
 Alpha  occ. eigenvalues --   -0.64505  -0.62286  -0.60431  -0.58867  -0.57096
 Alpha  occ. eigenvalues --   -0.55438  -0.54793  -0.53274  -0.53022  -0.52204
 Alpha  occ. eigenvalues --   -0.51909  -0.49444  -0.49104  -0.49087  -0.47416
 Alpha  occ. eigenvalues --   -0.46155  -0.45246  -0.45185  -0.44958  -0.43277
 Alpha  occ. eigenvalues --   -0.37507  -0.36525
 Alpha virt. eigenvalues --    0.04732   0.11055   0.16193   0.20930   0.22975
 Alpha virt. eigenvalues --    0.24420   0.26749   0.27209   0.27737   0.28143
 Alpha virt. eigenvalues --    0.28914   0.30942   0.31183   0.32117   0.32282

 Mulliken charges:
               1
     1  C   -0.170150
     2  C   -0.218406
     3  C   -0.171287
     4  C    0.159033
     5  C   -0.171271
     6  C   -0.218935
     7  H    0.226672
     8  H    0.224494
     9  H    0.276416
    10  H    0.277082
    11  H    0.224817
    12  N    0.487801
    13  O   -0.458553
    14  O   -0.458775
    15  C   -0.307165
    16  C   -0.296597
    17  C   -0.479794
    18  H    0.165318
    19  H    0.149763
    20  H    0.144976
    21  H    0.148126
    22  H    0.153862
    23  H    0.169259
    24  H    0.154817
    25  C   -0.299912
    26  C   -0.307372
    27  C   -0.474999
    28  H    0.144751
    29  H    0.146677
    30  H    0.166815
    31  H    0.152302
    32  H    0.154077
    33  H    0.146542
    34  H    0.159616
 Sum of Mulliken charges =  -0.00000

 Dipole moment (field-independent basis, Debye):
    X=              3.1936    Y=              1.5471    Z=             -3.6853  Tot=              5.1161
 Quadrupole moment (field-independent basis, Debye-Ang):
   XX=            -84.0873   YY=            -93.3653   ZZ=            -98.5061
   XY=              1.2273   XZ=             -5.6392   YZ=              4.5913

 Normal termination of Gaussian 16 at Thu May  6 04:44:47 2021.
