 Gaussian 16, Revision A.03,
 Gaussian 16:  EM64L-G16RevA.03 25-Dec-2016

 -------------
 #p 6-31g* mp2
 -------------

 ------------------------------------------------------
 Input file generated by CHIRIPA (05-May-2021 14:57:24)
 ------------------------------------------------------
 Symbolic Z-matrix:
 Charge =  0 Multiplicity = 1

                         Standard orientation:
 ---------------------------------------------------------------------
 Center     Atomic      Atomic             Coordinates (Angstroms)
 Number     Number       Type             X           Y           Z
 ---------------------------------------------------------------------
      1          6           0       -2.699493    2.329756    1.205248
      2          6           0       -2.964461    1.133911    1.880724
      3          6           0       -2.873015   -0.092457    1.215737
      4          6           0       -2.512371   -0.086073   -0.130808
      5          6           0       -2.242211    1.088500   -0.831296
      6          6           0       -2.339848    2.303280   -0.146223
      7          1           0       -2.772935    3.277927    1.729628
      8          1           0       -3.243981    1.151442    2.930299
      9          1           0       -3.072705   -1.033131    1.714409
     10          1           0       -1.965833    1.039096   -1.877523
     11          1           0       -2.133499    3.230428   -0.673350
     12          7           0       -2.412284   -1.378240   -0.845432
     13          8           0       -2.092648   -1.345659   -2.031774
     14          8           0       -2.655368   -2.399154   -0.205680
     15          6           0        3.144764    2.205857   -0.725127
     16          6           0        3.986974    1.500312    0.140556
     17          6           0        3.655754    0.207193    0.556108
     18          6           0        2.469324   -0.352413    0.084393
     19          6           0        1.609507    0.325047   -0.778772
     20          6           0        1.960806    1.617011   -1.181225
     21          1           0        3.409863    3.209934   -1.042851
     22          1           0        4.907083    1.955114    0.496367
     23          1           0        4.289498   -0.361508    1.225709
     24          1           0        0.698947   -0.154708   -1.116608
     25          1           0        1.304820    2.162588   -1.853589
     26          7           0        2.108047   -1.720769    0.517385
     27          8           0        1.057188   -2.191505    0.087572
     28          8           0        2.882580   -2.296640    1.278376
 ---------------------------------------------------------------------

 SCF Done:  E(RHF) =  -868.336875203     A.U. after   16 cycles
 E2 =    -0.2602553497D+01 EUMP2 =    -0.87093942869925D+03

 The electronic state is 1-A.
 Alpha  occ. eigenvalues --  -20.60621 -20.60533 -20.60489 -20.60446 -15.85614
 Alpha  occ. eigenvalues --  -15.85520 -11.31272 -11.31036 -11.27957 -11.27767
 Alpha  occ. eigenvalues --  -11.27660 -11.27627 -11.27599 -11.27469 -11.27016
 Alpha  occ. eigenvalues --  -11.26869 -11.26737 -11.26706  -1.59603  -1.59542
 Alpha  occ. eigenvalues --   -1.39165  -1.39091  -1.19460  -1.19247  -1.08790
 Alpha  occ. eigenvalues --   -1.08625  -1.04919  -1.04672  -0.95583  -0.95422
 Alpha  occ. eigenvalues --   -0.86299  -0.86071  -0.82423  -0.82253  -0.77450
 Alpha  occ. eigenvalues --   -0.77258  -0.71837  -0.71775  -0.70920  -0.70808
 Alpha  occ. eigenvalues --   -0.70570  -0.70349  -0.65113  -0.64936  -0.64888
 Alpha  occ. eigenvalues --   -0.64694  -0.62307  -0.61980  -0.55385  -0.55202
 Alpha  occ. eigenvalues --   -0.53282  -0.53008  -0.52943  -0.52759  -0.48627
 Alpha  occ. eigenvalues --   -0.48571  -0.48508  -0.48471  -0.44550  -0.44395
 Alpha  occ. eigenvalues --   -0.37444  -0.37248  -0.36673  -0.36118
 Alpha virt. eigenvalues --    0.05113   0.05280   0.10923   0.11463   0.16484
 Alpha virt. eigenvalues --    0.16778   0.20367   0.21892   0.25803   0.27638
 Alpha virt. eigenvalues --    0.28125   0.28785   0.30583   0.31276   0.32268

 Mulliken charges:
               1
     1  C   -0.171254
     2  C   -0.217899
     3  C   -0.167782
     4  C    0.162509
     5  C   -0.182345
     6  C   -0.216817
     7  H    0.225044
     8  H    0.225094
     9  H    0.280399
    10  H    0.269764
    11  H    0.219086
    12  N    0.493497
    13  O   -0.466437
    14  O   -0.447410
    15  C   -0.171377
    16  C   -0.219272
    17  C   -0.170602
    18  C    0.157220
    19  C   -0.172008
    20  C   -0.219300
    21  H    0.223251
    22  H    0.222395
    23  H    0.275446
    24  H    0.281397
    25  H    0.216549
    26  N    0.487599
    27  O   -0.454631
    28  O   -0.462116
 Sum of Mulliken charges =  -0.00000

 Dipole moment (field-independent basis, Debye):
    X=              0.7236    Y=              8.9950    Z=              1.1969  Tot=              9.1031
 Quadrupole moment (field-independent basis, Debye-Ang):
   XX=            -93.7815   YY=           -108.8634   ZZ=           -101.6852
   XY=              0.9626   XZ=             -9.0954   YZ=             -2.1712

 Normal termination of Gaussian 16 at Thu May  6 06:40:52 2021.
