 Gaussian 16, Revision A.03,
 Gaussian 16:  EM64L-G16RevA.03 25-Dec-2016

 -------------
 #p 6-31g* mp2
 -------------

 ------------------------------------------------------
 Input file generated by CHIRIPA (05-May-2021 14:57:26)
 ------------------------------------------------------
 Symbolic Z-matrix:
 Charge =  0 Multiplicity = 1

                         Standard orientation:
 ---------------------------------------------------------------------
 Center     Atomic      Atomic             Coordinates (Angstroms)
 Number     Number       Type             X           Y           Z
 ---------------------------------------------------------------------
      1          6           0        3.234331    2.348502   -0.534337
      2          6           0        2.415229    1.332088   -0.031848
      3          6           0        2.938901    0.062618    0.230376
      4          6           0        4.292125   -0.156599   -0.022644
      5          6           0        5.133846    0.835542   -0.523097
      6          6           0        4.588637    2.097428   -0.777928
      7          1           0        2.819165    3.331711   -0.735168
      8          1           0        1.363097    1.524214    0.158283
      9          1           0        2.327395   -0.742379    0.619554
     10          1           0        6.178868    0.613872   -0.702567
     11          1           0        5.227133    2.884889   -1.168150
     12          7           0        4.857913   -1.496516    0.251048
     13          8           0        6.053309   -1.664193    0.019642
     14          8           0        4.095267   -2.353694    0.691792
     15          6           0       -1.827588    0.355877    0.820362
     16          6           0       -2.889336    1.010099    1.453770
     17          6           0       -4.207234    0.784958    1.045106
     18          6           0       -4.428124   -0.104850   -0.005008
     19          6           0       -3.391508   -0.771871   -0.656009
     20          6           0       -2.081614   -0.531456   -0.230653
     21          1           0       -0.806922    0.536704    1.144306
     22          1           0       -2.695034    1.699743    2.270276
     23          1           0       -5.047937    1.278019    1.517892
     24          1           0       -3.616582   -1.453752   -1.467056
     25          1           0       -1.259011   -1.040939   -0.724408
     26          7           0       -5.819085   -0.351282   -0.446478
     27          8           0       -5.987193   -1.139925   -1.374066
     28          8           0       -6.714876    0.248874    0.143446
 ---------------------------------------------------------------------

 SCF Done:  E(RHF) =  -868.336618004     A.U. after   16 cycles
 E2 =    -0.2599695522D+01 EUMP2 =    -0.87093631352607D+03

 The electronic state is 1-A.
 Alpha  occ. eigenvalues --  -20.61431 -20.61418 -20.61142 -20.61136 -15.86488
 Alpha  occ. eigenvalues --  -15.86198 -11.31974 -11.31702 -11.28651 -11.28510
 Alpha  occ. eigenvalues --  -11.28308 -11.28260 -11.28249 -11.28177 -11.27708
 Alpha  occ. eigenvalues --  -11.27522 -11.27368 -11.27358  -1.60500  -1.60213
 Alpha  occ. eigenvalues --   -1.40052  -1.39763  -1.20162  -1.19891  -1.09524
 Alpha  occ. eigenvalues --   -1.09293  -1.05605  -1.05299  -0.96340  -0.96102
 Alpha  occ. eigenvalues --   -0.86987  -0.86709  -0.83195  -0.82911  -0.78226
 Alpha  occ. eigenvalues --   -0.77911  -0.72701  -0.72415  -0.71826  -0.71536
 Alpha  occ. eigenvalues --   -0.71263  -0.71088  -0.65820  -0.65637  -0.65551
 Alpha  occ. eigenvalues --   -0.65304  -0.62967  -0.62629  -0.56113  -0.55875
 Alpha  occ. eigenvalues --   -0.53898  -0.53720  -0.53602  -0.53398  -0.49470
 Alpha  occ. eigenvalues --   -0.49450  -0.49186  -0.49160  -0.45431  -0.45136
 Alpha  occ. eigenvalues --   -0.38120  -0.37926  -0.37209  -0.36885
 Alpha virt. eigenvalues --    0.04343   0.04580   0.10450   0.10751   0.15805
 Alpha virt. eigenvalues --    0.15909   0.17690   0.22007   0.24681   0.26527
 Alpha virt. eigenvalues --    0.27617   0.29246   0.29793   0.31479   0.32371

 Mulliken charges:
               1
     1  C   -0.170264
     2  C   -0.221763
     3  C   -0.172385
     4  C    0.159415
     5  C   -0.169613
     6  C   -0.218064
     7  H    0.228401
     8  H    0.217839
     9  H    0.270672
    10  H    0.278337
    11  H    0.226593
    12  N    0.488116
    13  O   -0.457503
    14  O   -0.460670
    15  C   -0.176182
    16  C   -0.218048
    17  C   -0.170473
    18  C    0.159659
    19  C   -0.170161
    20  C   -0.218283
    21  H    0.219388
    22  H    0.224317
    23  H    0.277313
    24  H    0.278308
    25  H    0.224690
    26  N    0.487859
    27  O   -0.458421
    28  O   -0.459079
 Sum of Mulliken charges =  -0.00000

 Dipole moment (field-independent basis, Debye):
    X=              2.9432    Y=              5.5953    Z=              0.4965  Tot=              6.3416
 Quadrupole moment (field-independent basis, Debye-Ang):
   XX=           -159.2130   YY=           -104.7631   ZZ=           -103.0434
   XY=             17.0778   XZ=            -14.1920   YZ=              1.8445

 Normal termination of Gaussian 16 at Fri May  7 11:15:01 2021.
