 Gaussian 16, Revision A.03,
 Gaussian 16:  EM64L-G16RevA.03 25-Dec-2016

 -------------
 #p 6-31g* mp2
 -------------

 ------------------------------------------------------
 Input file generated by CHIRIPA (05-May-2021 14:57:25)
 ------------------------------------------------------
 Symbolic Z-matrix:
 Charge =  0 Multiplicity = 1

                         Standard orientation:
 ---------------------------------------------------------------------
 Center     Atomic      Atomic             Coordinates (Angstroms)
 Number     Number       Type             X           Y           Z
 ---------------------------------------------------------------------
      1          6           0       -1.494791    1.711526   -1.569700
      2          6           0       -2.834577    1.994822   -1.284675
      3          6           0       -3.620717    1.076284   -0.582664
      4          6           0       -3.032115   -0.121145   -0.178930
      5          6           0       -1.700131   -0.432375   -0.447711
      6          6           0       -0.932835    0.500966   -1.151047
      7          1           0       -0.891418    2.430818   -2.115553
      8          1           0       -3.273655    2.934155   -1.608570
      9          1           0       -4.660473    1.270035   -0.348599
     10          1           0       -1.290417   -1.377210   -0.111797
     11          1           0        0.107394    0.278275   -1.370995
     12          7           0       -3.854392   -1.101396    0.564958
     13          8           0       -3.312209   -2.149189    0.909639
     14          8           0       -5.025505   -0.803362    0.789252
     15          6           0        1.965815    1.883305    1.642759
     16          6           0        1.279731    0.665230    1.596894
     17          6           0        1.786105   -0.407454    0.856972
     18          6           0        2.986579   -0.226390    0.171867
     19          6           0        3.693456    0.974831    0.198021
     20          6           0        3.168368    2.033952    0.944407
     21          1           0        1.565184    2.711324    2.220058
     22          1           0        0.345598    0.545370    2.138255
     23          1           0        1.275534   -1.361369    0.804221
     24          1           0        4.622365    1.064129   -0.352043
     25          1           0        3.703345    2.978781    0.978220
     26          7           0        3.532559   -1.354813   -0.614876
     27          8           0        4.592104   -1.169813   -1.209668
     28          8           0        2.890616   -2.402905   -0.621838
 ---------------------------------------------------------------------

 SCF Done:  E(RHF) =  -868.335970179     A.U. after   16 cycles
 E2 =    -0.2603466559D+01 EUMP2 =    -0.87093943673848D+03

 The electronic state is 1-A.
 Alpha  occ. eigenvalues --  -20.61462 -20.61454 -20.61135 -20.61128 -15.86515
 Alpha  occ. eigenvalues --  -15.86184 -11.31978 -11.31595 -11.28476 -11.28464
 Alpha  occ. eigenvalues --  -11.28148 -11.28103 -11.28080 -11.27778 -11.27504
 Alpha  occ. eigenvalues --  -11.27430 -11.27146 -11.27033  -1.60541  -1.60211
 Alpha  occ. eigenvalues --   -1.40089  -1.39763  -1.20131  -1.19724  -1.09476
 Alpha  occ. eigenvalues --   -1.09107  -1.05566  -1.05073  -0.96308  -0.95945
 Alpha  occ. eigenvalues --   -0.86889  -0.86510  -0.83141  -0.82754  -0.78208
 Alpha  occ. eigenvalues --   -0.77807  -0.72713  -0.72394  -0.71887  -0.71542
 Alpha  occ. eigenvalues --   -0.71195  -0.70792  -0.65738  -0.65471  -0.65348
 Alpha  occ. eigenvalues --   -0.65121  -0.62923  -0.62387  -0.55948  -0.55601
 Alpha  occ. eigenvalues --   -0.54158  -0.53574  -0.53355  -0.52955  -0.49484
 Alpha  occ. eigenvalues --   -0.49475  -0.49158  -0.49152  -0.45468  -0.45159
 Alpha  occ. eigenvalues --   -0.38174  -0.37792  -0.37516  -0.36079
 Alpha virt. eigenvalues --    0.04161   0.04828   0.10348   0.10927   0.15567
 Alpha virt. eigenvalues --    0.16490   0.19964   0.21537   0.24955   0.27185
 Alpha virt. eigenvalues --    0.27414   0.28847   0.30552   0.30684   0.31333

 Mulliken charges:
               1
     1  C   -0.174807
     2  C   -0.218237
     3  C   -0.173014
     4  C    0.159183
     5  C   -0.183928
     6  C   -0.212063
     7  H    0.226475
     8  H    0.223953
     9  H    0.275991
    10  H    0.274788
    11  H    0.230611
    12  N    0.487643
    13  O   -0.460176
    14  O   -0.459088
    15  C   -0.173763
    16  C   -0.209651
    17  C   -0.189424
    18  C    0.158155
    19  C   -0.173583
    20  C   -0.218777
    21  H    0.228562
    22  H    0.230826
    23  H    0.277302
    24  H    0.277276
    25  H    0.225548
    26  N    0.487228
    27  O   -0.457807
    28  O   -0.459223
 Sum of Mulliken charges =  -0.00000

 Dipole moment (field-independent basis, Debye):
    X=              1.0652    Y=              7.5286    Z=              0.1990  Tot=              7.6062
 Quadrupole moment (field-independent basis, Debye-Ang):
   XX=           -128.0970   YY=           -104.6363   ZZ=           -103.7443
   XY=              1.3413   XZ=             14.6623   YZ=             -1.2107

 Normal termination of Gaussian 16 at Thu May  6 06:44:26 2021.
