 Gaussian 16, Revision A.03,
 Gaussian 16:  EM64L-G16RevA.03 25-Dec-2016

 -------------
 #p 6-31g* mp2
 -------------

 ------------------------------------------------------
 Input file generated by CHIRIPA (05-May-2021 14:57:24)
 ------------------------------------------------------
 Symbolic Z-matrix:
 Charge =  0 Multiplicity = 1

                         Standard orientation:
 ---------------------------------------------------------------------
 Center     Atomic      Atomic             Coordinates (Angstroms)
 Number     Number       Type             X           Y           Z
 ---------------------------------------------------------------------
      1          6           0        2.226230    2.319631   -0.881835
      2          6           0        3.493432    2.343678   -0.290108
      3          6           0        4.058658    1.173481    0.225361
      4          6           0        3.325558   -0.008511    0.131833
      5          6           0        2.060871   -0.064716   -0.451860
      6          6           0        1.515247    1.117630   -0.960684
      7          1           0        1.794763    3.233387   -1.279683
      8          1           0        4.047879    3.275726   -0.227488
      9          1           0        5.037793    1.163645    0.688627
     10          1           0        1.532273   -1.009022   -0.499694
     11          1           0        0.530923    1.095972   -1.419685
     12          7           0        3.913560   -1.253777    0.674020
     13          8           0        3.247350   -2.282285    0.579306
     14          8           0        5.029514   -1.177728    1.183433
     15          6           0       -4.277545    1.722478    1.215461
     16          6           0       -3.352604    1.975232    0.197069
     17          6           0       -2.765144    0.919611   -0.506567
     18          6           0       -3.127244   -0.382265   -0.164087
     19          6           0       -4.045579   -0.666379    0.845482
     20          6           0       -4.620475    0.404802    1.535852
     21          1           0       -4.729018    2.548553    1.756910
     22          1           0       -3.084391    2.997542   -0.053903
     23          1           0       -2.046257    1.086792   -1.299455
     24          1           0       -4.293038   -1.696148    1.072989
     25          1           0       -5.338500    0.205525    2.326279
     26          7           0       -2.511977   -1.508040   -0.901973
     27          8           0       -2.847796   -2.645979   -0.581105
     28          8           0       -1.705561   -1.231168   -1.787225
 ---------------------------------------------------------------------

 SCF Done:  E(RHF) =  -868.338011676     A.U. after   16 cycles
 E2 =    -0.2599995285D+01 EUMP2 =    -0.87093800696102D+03

 The electronic state is 1-A.
 Alpha  occ. eigenvalues --  -20.61559 -20.61483 -20.60373 -20.60348 -15.86553
 Alpha  occ. eigenvalues --  -15.85416 -11.31863 -11.30815 -11.28522 -11.28347
 Alpha  occ. eigenvalues --  -11.28101 -11.27454 -11.27449 -11.27349 -11.27296
 Alpha  occ. eigenvalues --  -11.27247 -11.26499 -11.26414  -1.60575  -1.59440
 Alpha  occ. eigenvalues --   -1.40138  -1.38990  -1.20015  -1.19015  -1.09410
 Alpha  occ. eigenvalues --   -1.08429  -1.05419  -1.04406  -0.96263  -0.95242
 Alpha  occ. eigenvalues --   -0.86821  -0.85826  -0.83104  -0.82057  -0.78183
 Alpha  occ. eigenvalues --   -0.77074  -0.72769  -0.71888  -0.71633  -0.71131
 Alpha  occ. eigenvalues --   -0.70766  -0.70151  -0.65672  -0.65443  -0.64668
 Alpha  occ. eigenvalues --   -0.64433  -0.62793  -0.61708  -0.55897  -0.54985
 Alpha  occ. eigenvalues --   -0.53731  -0.53531  -0.52763  -0.52476  -0.49543
 Alpha  occ. eigenvalues --   -0.49503  -0.48405  -0.48379  -0.45548  -0.44386
 Alpha  occ. eigenvalues --   -0.37965  -0.37074  -0.36989  -0.36006
 Alpha virt. eigenvalues --    0.04335   0.05435   0.10588   0.11628   0.15868
 Alpha virt. eigenvalues --    0.16890   0.19490   0.21988   0.25058   0.27135
 Alpha virt. eigenvalues --    0.28570   0.28898   0.30149   0.31112   0.32485

 Mulliken charges:
               1
     1  C   -0.172434
     2  C   -0.218913
     3  C   -0.171373
     4  C    0.158357
     5  C   -0.173716
     6  C   -0.224527
     7  H    0.220341
     8  H    0.221126
     9  H    0.274472
    10  H    0.287154
    11  H    0.228382
    12  N    0.487646
    13  O   -0.456567
    14  O   -0.462943
    15  C   -0.169960
    16  C   -0.218007
    17  C   -0.173090
    18  C    0.158975
    19  C   -0.169221
    20  C   -0.217698
    21  H    0.227856
    22  H    0.222340
    23  H    0.269702
    24  H    0.278675
    25  H    0.226607
    26  N    0.488781
    27  O   -0.451481
    28  O   -0.470484
 Sum of Mulliken charges =  -0.00000

 Dipole moment (field-independent basis, Debye):
    X=             -4.5784    Y=              8.0935    Z=              0.8330  Tot=              9.3359
 Quadrupole moment (field-independent basis, Debye-Ang):
   XX=           -100.3981   YY=           -105.3027   ZZ=           -105.6368
   XY=              7.2035   XZ=            -15.5138   YZ=             -2.1280

 Normal termination of Gaussian 16 at Thu May  6 22:48:37 2021.
