 Gaussian 16, Revision A.03,
 Gaussian 16:  EM64L-G16RevA.03 25-Dec-2016

 -------------
 #p 6-31g* mp2
 -------------

 ------------------------------------------------------
 Input file generated by CHIRIPA (05-May-2021 14:53:11)
 ------------------------------------------------------
 Symbolic Z-matrix:
 Charge =  0 Multiplicity = 1

                         Standard orientation:
 ---------------------------------------------------------------------
 Center     Atomic      Atomic             Coordinates (Angstroms)
 Number     Number       Type             X           Y           Z
 ---------------------------------------------------------------------
      1          6           0       -2.731769    1.111628    0.026510
      2          6           0       -2.476342    1.703605    1.412982
      3          6           0       -1.718526    3.030470    1.358786
      4          1           0       -1.770859    0.966057   -0.485746
      5          1           0       -3.299894    1.835140   -0.574455
      6          1           0       -1.910063    0.978631    2.011612
      7          1           0       -3.437959    1.847605    1.922071
      8          1           0       -2.282109    3.772809    0.784409
      9          1           0       -0.745532    2.898898    0.874459
     10          1           0       -1.546679    3.435870    2.360774
     11          6           0       -3.488442   -0.214929    0.064197
     12          6           0       -3.743870   -0.806907   -1.322275
     13          6           0       -4.501686   -2.133772   -1.268079
     14          1           0       -2.920318   -0.938442    0.665162
     15          1           0       -4.449352   -0.069359    0.576453
     16          1           0       -2.782252   -0.950906   -1.831364
     17          1           0       -4.310148   -0.081932   -1.920905
     18          1           0       -5.474680   -2.002199   -0.783752
     19          1           0       -3.938103   -2.876110   -0.693702
     20          1           0       -4.673532   -2.539172   -2.270067
     21          6           0        1.333944   -2.076606    1.442695
     22          6           0        0.547178   -1.203734    0.684003
     23          6           0        1.143550   -0.243294   -0.138460
     24          6           0        2.535711   -0.183378   -0.178332
     25          6           0        3.346749   -1.038942    0.565654
     26          6           0        2.728759   -1.991574    1.381208
     27          1           0        0.862271   -2.819666    2.078921
     28          1           0       -0.536282   -1.267477    0.729777
     29          1           0        0.558431    0.444895   -0.736331
     30          1           0        4.424388   -0.951230    0.499179
     31          1           0        3.342284   -2.668154    1.969317
     32          7           0        3.178506    0.829264   -1.045380
     33          8           0        4.407034    0.861644   -1.062908
     34          8           0        2.441629    1.571417   -1.691026
 ---------------------------------------------------------------------

 SCF Done:  E(RHF) =  -669.534883962     A.U. after   15 cycles
 E2 =    -0.2093425584D+01 EUMP2 =    -0.67162830954631D+03

 The electronic state is 1-A.
 Alpha  occ. eigenvalues --  -20.60779 -20.60774 -15.85830 -11.31196 -11.27767
 Alpha  occ. eigenvalues --  -11.27756 -11.27506 -11.26784 -11.26748 -11.22346
 Alpha  occ. eigenvalues --  -11.22289 -11.22230 -11.22172 -11.21705 -11.21383
 Alpha  occ. eigenvalues --   -1.59853  -1.39406  -1.19370  -1.09220  -1.08762
 Alpha  occ. eigenvalues --   -1.04777  -1.04154  -0.96609  -0.95600  -0.87611
 Alpha  occ. eigenvalues --   -0.86176  -0.82437  -0.80221  -0.79040  -0.77492
 Alpha  occ. eigenvalues --   -0.72049  -0.71175  -0.70496  -0.66027  -0.65012
 Alpha  occ. eigenvalues --   -0.64734  -0.62104  -0.61519  -0.59969  -0.58212
 Alpha  occ. eigenvalues --   -0.55926  -0.55252  -0.53245  -0.53097  -0.53005
 Alpha  occ. eigenvalues --   -0.52887  -0.50549  -0.48810  -0.48805  -0.48518
 Alpha  occ. eigenvalues --   -0.47274  -0.46523  -0.46498  -0.44811  -0.44461
 Alpha  occ. eigenvalues --   -0.37348  -0.36368
 Alpha virt. eigenvalues --    0.05031   0.11222   0.16458   0.18349   0.23001
 Alpha virt. eigenvalues --    0.23432   0.24847   0.25249   0.27170   0.28650
 Alpha virt. eigenvalues --    0.29912   0.30982   0.31362   0.31536   0.31888

 Mulliken charges:
               1
     1  C   -0.304917
     2  C   -0.300972
     3  C   -0.477132
     4  H    0.145219
     5  H    0.157553
     6  H    0.147695
     7  H    0.154484
     8  H    0.158168
     9  H    0.159563
    10  H    0.162360
    11  C   -0.302256
    12  C   -0.300749
    13  C   -0.475518
    14  H    0.139629
    15  H    0.155666
    16  H    0.151063
    17  H    0.157113
    18  H    0.157126
    19  H    0.151927
    20  H    0.163958
    21  C   -0.173023
    22  C   -0.226544
    23  C   -0.182525
    24  C    0.161151
    25  C   -0.170587
    26  C   -0.218488
    27  H    0.226132
    28  H    0.235242
    29  H    0.282058
    30  H    0.275669
    31  H    0.223564
    32  N    0.488271
    33  O   -0.460312
    34  O   -0.460587
 Sum of Mulliken charges =  -0.00000

 Dipole moment (field-independent basis, Debye):
    X=             -2.4199    Y=             -3.4505    Z=              3.0166  Tot=              5.1828
 Quadrupole moment (field-independent basis, Debye-Ang):
   XX=           -100.9103   YY=            -93.8406   ZZ=            -96.0760
   XY=            -11.6486   XZ=              9.9659   YZ=             -0.5795

 Normal termination of Gaussian 16 at Thu May  6 05:39:32 2021.
