 Gaussian 16, Revision A.03,
 Gaussian 16:  EM64L-G16RevA.03 25-Dec-2016

 -------------
 #p 6-31g* mp2
 -------------

 ------------------------------------------------------
 Input file generated by CHIRIPA (05-May-2021 14:51:11)
 ------------------------------------------------------
 Symbolic Z-matrix:
 Charge =  0 Multiplicity = 1

                         Standard orientation:
 ---------------------------------------------------------------------
 Center     Atomic      Atomic             Coordinates (Angstroms)
 Number     Number       Type             X           Y           Z
 ---------------------------------------------------------------------
      1          6           0        3.239722   -0.084250   -0.585287
      2          6           0        3.955117   -1.188349    0.193917
      3          6           0        4.376727   -2.360018   -0.693344
      4          1           0        2.355264   -0.507827   -1.080528
      5          1           0        3.901258    0.278909   -1.383961
      6          1           0        3.292953   -1.548360    0.991756
      7          1           0        4.837867   -0.762054    0.687516
      8          1           0        5.057401   -2.021277   -1.481086
      9          1           0        3.503709   -2.812051   -1.175118
     10          1           0        4.886271   -3.137767   -0.115995
     11          6           0        2.812043    1.093946    0.288025
     12          6           0        2.096647    2.198045   -0.491179
     13          6           0        1.675037    3.369714    0.396081
     14          1           0        2.150506    0.730787    1.086698
     15          1           0        3.696500    1.517522    0.783266
     16          1           0        1.213897    1.771749   -0.984779
     17          1           0        2.758811    2.558056   -1.289018
     18          1           0        2.548055    3.821747    0.877856
     19          1           0        0.994363    3.030973    1.183824
     20          1           0        1.165494    4.147463   -0.181267
     21          6           0       -2.508396   -0.752484    0.652929
     22          6           0       -1.087159   -0.797656    0.090764
     23          6           0       -0.063228   -1.295112    1.111497
     24          1           0       -2.525235   -0.102085    1.538164
     25          1           0       -2.791006   -1.756849    0.997570
     26          1           0       -0.807825    0.206206   -0.253983
     27          1           0       -1.073742   -1.447872   -0.793349
     28          1           0       -0.314651   -2.306110    1.448053
     29          1           0       -0.047224   -0.642635    1.990485
     30          1           0        0.945961   -1.319467    0.688643
     31          6           0       -3.543368   -0.257212   -0.355667
     32          6           0       -4.964605   -0.212039    0.206499
     33          6           0       -5.988537    0.285416   -0.814235
     34          1           0       -3.260757    0.747154   -0.700308
     35          1           0       -3.526530   -0.907611   -1.240902
     36          1           0       -4.978023    0.438176    1.090611
     37          1           0       -5.243939   -1.215902    0.551245
     38          1           0       -6.004540   -0.367061   -1.693222
     39          1           0       -5.737113    1.296414   -1.150791
     40          1           0       -6.997725    0.309772   -0.391381
 ---------------------------------------------------------------------

 SCF Done:  E(RHF) =  -470.731585739     A.U. after   11 cycles
 E2 =    -0.1585271899D+01 EUMP2 =    -0.47231685763789D+03

 The electronic state is 1-A.
 Alpha  occ. eigenvalues --  -11.21685 -11.21630 -11.21594 -11.21581 -11.21455
 Alpha  occ. eigenvalues --  -11.21392 -11.21378 -11.21278 -11.21091 -11.21087
 Alpha  occ. eigenvalues --  -11.21084 -11.21073  -1.08524  -1.08396  -1.03586
 Alpha  occ. eigenvalues --   -1.03532  -0.96095  -0.95925  -0.87072  -0.86986
 Alpha  occ. eigenvalues --   -0.79677  -0.79584  -0.78333  -0.78188  -0.65376
 Alpha  occ. eigenvalues --   -0.65013  -0.61169  -0.60786  -0.59402  -0.59278
 Alpha  occ. eigenvalues --   -0.57631  -0.57586  -0.55430  -0.55161  -0.52776
 Alpha  occ. eigenvalues --   -0.52608  -0.52448  -0.52375  -0.50029  -0.49883
 Alpha  occ. eigenvalues --   -0.48043  -0.47824  -0.46869  -0.46513  -0.45896
 Alpha  occ. eigenvalues --   -0.45816  -0.45701  -0.45539  -0.43801  -0.43734
 Alpha virt. eigenvalues --    0.20006   0.22951   0.23498   0.25158   0.25816
 Alpha virt. eigenvalues --    0.26303   0.26973   0.27771   0.28236   0.29659
 Alpha virt. eigenvalues --    0.29987   0.31383   0.31796   0.31867   0.32542

 Mulliken charges:
               1
     1  C   -0.304665
     2  C   -0.303872
     3  C   -0.475494
     4  H    0.150808
     5  H    0.151661
     6  H    0.154687
     7  H    0.152873
     8  H    0.155361
     9  H    0.154923
    10  H    0.160432
    11  C   -0.302441
    12  C   -0.302972
    13  C   -0.475799
    14  H    0.156355
    15  H    0.149535
    16  H    0.154733
    17  H    0.151972
    18  H    0.155483
    19  H    0.154534
    20  H    0.160013
    21  C   -0.298459
    22  C   -0.304033
    23  C   -0.486323
    24  H    0.149802
    25  H    0.149911
    26  H    0.155847
    27  H    0.151858
    28  H    0.155617
    29  H    0.154458
    30  H    0.172740
    31  C   -0.298369
    32  C   -0.299689
    33  C   -0.475752
    34  H    0.149624
    35  H    0.149722
    36  H    0.152050
    37  H    0.151995
    38  H    0.155214
    39  H    0.155291
    40  H    0.160370
 Sum of Mulliken charges =  -0.00000

 Dipole moment (field-independent basis, Debye):
    X=             -0.0039    Y=             -0.0134    Z=              0.0084  Tot=              0.0163
 Quadrupole moment (field-independent basis, Debye-Ang):
   XX=            -84.7980   YY=            -84.6590   ZZ=            -85.3224
   XY=              1.1517   XZ=             -0.4105   YZ=             -0.0240

 Normal termination of Gaussian 16 at Thu May  6 03:52:51 2021.
