 Gaussian 16, Revision A.03,
 Gaussian 16:  EM64L-G16RevA.03 25-Dec-2016

 -------------
 #p 6-31g* mp2
 -------------

 ------------------------------------------------------
 Input file generated by CHIRIPA (05-May-2021 14:55:25)
 ------------------------------------------------------
 Symbolic Z-matrix:
 Charge =  0 Multiplicity = 1

                         Standard orientation:
 ---------------------------------------------------------------------
 Center     Atomic      Atomic             Coordinates (Angstroms)
 Number     Number       Type             X           Y           Z
 ---------------------------------------------------------------------
      1          6           0        3.472082    2.030108    0.123013
      2          6           0        2.188349    1.687947   -0.314569
      3          6           0        1.803100    0.347104   -0.405505
      4          6           0        2.731076   -0.630255   -0.049245
      5          6           0        4.017370   -0.321178    0.390312
      6          6           0        4.380893    1.026223    0.473439
      7          1           0        3.762914    3.074254    0.190621
      8          1           0        1.480473    2.465466   -0.587373
      9          1           0        0.815701    0.054132   -0.741105
     10          1           0        4.701083   -1.118503    0.655315
     11          1           0        5.378530    1.289005    0.813602
     12          7           0        2.334731   -2.053217   -0.141381
     13          8           0        3.170796   -2.895480    0.178344
     14          8           0        1.195515   -2.299327   -0.531579
     15          6           0       -3.966647   -0.068105   -0.277729
     16          6           0       -4.952025   -0.743651    0.676552
     17          6           0       -5.719195   -1.891291    0.019159
     18          1           0       -4.513378    0.308402   -1.153098
     19          1           0       -3.256338   -0.818392   -0.651794
     20          1           0       -5.659412    0.007962    1.049780
     21          1           0       -4.402913   -1.118425    1.549843
     22          1           0       -5.028301   -2.661899   -0.337814
     23          1           0       -6.291939   -1.529114   -0.840720
     24          1           0       -6.417939   -2.360008    0.719104
     25          6           0       -3.192134    1.081181    0.364921
     26          6           0       -2.206756    1.756728   -0.589359
     27          6           0       -1.439586    2.904369    0.068034
     28          1           0       -3.902443    1.831469    0.738986
     29          1           0       -2.645403    0.704675    1.240291
     30          1           0       -2.755869    2.131502   -1.462650
     31          1           0       -1.499369    1.005116   -0.962586
     32          1           0       -0.866842    2.542191    0.927912
     33          1           0       -2.130481    3.674976    0.425008
     34          1           0       -0.740843    3.373085   -0.631910
 ---------------------------------------------------------------------

 SCF Done:  E(RHF) =  -669.535109512     A.U. after   15 cycles
 E2 =    -0.2092272122D+01 EUMP2 =    -0.67162738163349D+03

 The electronic state is 1-A.
 Alpha  occ. eigenvalues --  -20.60765 -20.60759 -15.85815 -11.31147 -11.27711
 Alpha  occ. eigenvalues --  -11.27689 -11.27431 -11.26727 -11.26640 -11.22288
 Alpha  occ. eigenvalues --  -11.21987 -11.21697 -11.21545 -11.21408 -11.20911
 Alpha  occ. eigenvalues --   -1.59839  -1.39394  -1.19311  -1.08719  -1.08690
 Alpha  occ. eigenvalues --   -1.04713  -1.03847  -0.96305  -0.95555  -0.87338
 Alpha  occ. eigenvalues --   -0.86102  -0.82386  -0.79949  -0.78423  -0.77445
 Alpha  occ. eigenvalues --   -0.72035  -0.71161  -0.70433  -0.65346  -0.64953
 Alpha  occ. eigenvalues --   -0.64736  -0.62212  -0.61132  -0.59715  -0.57880
 Alpha  occ. eigenvalues --   -0.55586  -0.55182  -0.53218  -0.53042  -0.52817
 Alpha  occ. eigenvalues --   -0.52541  -0.50202  -0.48794  -0.48786  -0.48237
 Alpha  occ. eigenvalues --   -0.46958  -0.45978  -0.45843  -0.44807  -0.44073
 Alpha  occ. eigenvalues --   -0.37293  -0.36300
 Alpha virt. eigenvalues --    0.05075   0.11333   0.16526   0.19341   0.22970
 Alpha virt. eigenvalues --    0.23998   0.25176   0.26403   0.26935   0.28408
 Alpha virt. eigenvalues --    0.29568   0.29653   0.31297   0.31586   0.32311

 Mulliken charges:
               1
     1  C   -0.172492
     2  C   -0.223833
     3  C   -0.181129
     4  C    0.159834
     5  C   -0.170744
     6  C   -0.218673
     7  H    0.225859
     8  H    0.232497
     9  H    0.282523
    10  H    0.275323
    11  H    0.223194
    12  N    0.487627
    13  O   -0.460380
    14  O   -0.461199
    15  C   -0.300640
    16  C   -0.300066
    17  C   -0.476597
    18  H    0.149072
    19  H    0.156721
    20  H    0.150426
    21  H    0.154226
    22  H    0.159465
    23  H    0.154230
    24  H    0.160479
    25  C   -0.298688
    26  C   -0.304338
    27  C   -0.483098
    28  H    0.150284
    29  H    0.152604
    30  H    0.156081
    31  H    0.149707
    32  H    0.158575
    33  H    0.161748
    34  H    0.151404
 Sum of Mulliken charges =  -0.00000

 Dipole moment (field-independent basis, Debye):
    X=              1.2220    Y=              4.9679    Z=              0.3694  Tot=              5.1293
 Quadrupole moment (field-independent basis, Debye-Ang):
   XX=            -82.5269   YY=           -101.6092   ZZ=            -95.1094
   XY=             10.6375   XZ=              2.5392   YZ=             -1.3419

 Normal termination of Gaussian 16 at Wed May  5 16:07:58 2021.
