 Gaussian 16, Revision A.03,
 Gaussian 16:  EM64L-G16RevA.03 25-Dec-2016

 -------------
 #p 6-31g* mp2
 -------------

 ------------------------------------------------------
 Input file generated by CHIRIPA (05-May-2021 14:51:12)
 ------------------------------------------------------
 Symbolic Z-matrix:
 Charge =  0 Multiplicity = 1

                         Standard orientation:
 ---------------------------------------------------------------------
 Center     Atomic      Atomic             Coordinates (Angstroms)
 Number     Number       Type             X           Y           Z
 ---------------------------------------------------------------------
      1          6           0       -2.391814   -0.267579   -0.088739
      2          6           0       -3.244724   -1.454675   -0.537441
      3          6           0       -2.473921   -2.775081   -0.523790
      4          1           0       -1.512978   -0.187548   -0.743099
      5          1           0       -2.011076   -0.460508    0.923788
      6          1           0       -3.624874   -1.258953   -1.548279
      7          1           0       -4.121731   -1.531773    0.117945
      8          1           0       -2.107838   -2.997048    0.483838
      9          1           0       -1.608158   -2.722678   -1.191853
     10          1           0       -3.102555   -3.610288   -0.847997
     11          6           0       -3.148441    1.059514   -0.097068
     12          6           0       -2.295531    2.246610    0.351634
     13          6           0       -3.066334    3.567016    0.337983
     14          1           0       -3.529179    1.252442   -1.109595
     15          1           0       -4.027277    0.979483    0.557292
     16          1           0       -1.418524    2.323708   -0.303752
     17          1           0       -1.915381    2.050888    1.362472
     18          1           0       -3.932097    3.514613    1.006046
     19          1           0       -3.432417    3.788983   -0.669645
     20          1           0       -2.437701    4.402222    0.662190
     21          6           0        3.160238    0.044940   -0.393765
     22          6           0        3.873254    1.214522    0.285700
     23          6           0        4.649365    2.087416   -0.700962
     24          1           0        3.900544   -0.568889   -0.924900
     25          1           0        2.473601    0.436642   -1.156978
     26          1           0        4.557322    0.820797    1.048358
     27          1           0        3.131187    1.825531    0.815438
     28          1           0        3.976488    2.507685   -1.455422
     29          1           0        5.410726    1.497243   -1.221179
     30          1           0        5.151305    2.917407   -0.193977
     31          6           0        2.380017   -0.836875    0.579572
     32          6           0        1.667001   -2.006456   -0.099893
     33          6           0        0.890890   -2.879351    0.886768
     34          1           0        3.066655   -1.228577    1.342785
     35          1           0        1.639710   -0.223046    1.110707
     36          1           0        2.409067   -2.617465   -0.629632
     37          1           0        0.982933   -1.612731   -0.862551
     38          1           0        0.129530   -2.289177    1.406986
     39          1           0        1.563767   -3.299619    1.641229
     40          1           0        0.388950   -3.709341    0.379784
 ---------------------------------------------------------------------

 SCF Done:  E(RHF) =  -470.732134934     A.U. after   11 cycles
 E2 =    -0.1584297861D+01 EUMP2 =    -0.47231643279507D+03

 The electronic state is 1-A.
 Alpha  occ. eigenvalues --  -11.21664 -11.21605 -11.21580 -11.21544 -11.21464
 Alpha  occ. eigenvalues --  -11.21403 -11.21371 -11.21306 -11.21116 -11.21059
 Alpha  occ. eigenvalues --  -11.20965 -11.20921  -1.08485  -1.08379  -1.03596
 Alpha  occ. eigenvalues --   -1.03441  -0.96065  -0.95870  -0.87109  -0.86864
 Alpha  occ. eigenvalues --   -0.79670  -0.79507  -0.78299  -0.78207  -0.65116
 Alpha  occ. eigenvalues --   -0.65015  -0.60959  -0.60921  -0.59415  -0.59280
 Alpha  occ. eigenvalues --   -0.57738  -0.57422  -0.55329  -0.55185  -0.52850
 Alpha  occ. eigenvalues --   -0.52675  -0.52404  -0.52143  -0.50020  -0.49816
 Alpha  occ. eigenvalues --   -0.47876  -0.47858  -0.46859  -0.46441  -0.45935
 Alpha  occ. eigenvalues --   -0.45843  -0.45598  -0.45484  -0.43816  -0.43715
 Alpha virt. eigenvalues --    0.20365   0.23199   0.23421   0.24643   0.25164
 Alpha virt. eigenvalues --    0.25954   0.26753   0.28162   0.28980   0.29597
 Alpha virt. eigenvalues --    0.29874   0.30531   0.31178   0.31956   0.32309

 Mulliken charges:
               1
     1  C   -0.301486
     2  C   -0.300161
     3  C   -0.479166
     4  H    0.151048
     5  H    0.149989
     6  H    0.151558
     7  H    0.151799
     8  H    0.160340
     9  H    0.157097
    10  H    0.159143
    11  C   -0.298188
    12  C   -0.299673
    13  C   -0.475710
    14  H    0.149839
    15  H    0.150023
    16  H    0.151409
    17  H    0.151689
    18  H    0.155408
    19  H    0.155355
    20  H    0.160373
    21  C   -0.298062
    22  C   -0.299712
    23  C   -0.475648
    24  H    0.149526
    25  H    0.148738
    26  H    0.151896
    27  H    0.152173
    28  H    0.154977
    29  H    0.155123
    30  H    0.160202
    31  C   -0.298886
    32  C   -0.302435
    33  C   -0.477567
    34  H    0.149392
    35  H    0.150653
    36  H    0.151487
    37  H    0.153547
    38  H    0.157068
    39  H    0.153424
    40  H    0.163419
 Sum of Mulliken charges =  -0.00000

 Dipole moment (field-independent basis, Debye):
    X=             -0.0306    Y=             -0.0140    Z=              0.0107  Tot=              0.0353
 Quadrupole moment (field-independent basis, Debye-Ang):
   XX=            -84.6560   YY=            -85.9605   ZZ=            -84.2041
   XY=             -0.4400   XZ=              0.1502   YZ=              0.1391

 Normal termination of Gaussian 16 at Wed May  5 23:10:30 2021.
