 Gaussian 16, Revision A.03,
 Gaussian 16:  EM64L-G16RevA.03 25-Dec-2016

 -------------
 #p 6-31g* mp2
 -------------

 ------------------------------------------------------
 Input file generated by CHIRIPA (05-May-2021 14:57:26)
 ------------------------------------------------------
 Symbolic Z-matrix:
 Charge =  0 Multiplicity = 1

                         Standard orientation:
 ---------------------------------------------------------------------
 Center     Atomic      Atomic             Coordinates (Angstroms)
 Number     Number       Type             X           Y           Z
 ---------------------------------------------------------------------
      1          6           0        5.352684    1.455671    0.868486
      2          6           0        4.204242    2.001356    0.285537
      3          6           0        3.214971    1.169727   -0.247645
      4          6           0        3.407536   -0.209299   -0.180591
      5          6           0        4.540689   -0.783218    0.393751
      6          6           0        5.516953    0.067572    0.920641
      7          1           0        6.116122    2.109143    1.280231
      8          1           0        4.073996    3.079004    0.243638
      9          1           0        2.316119    1.565495   -0.704649
     10          1           0        4.642360   -1.861341    0.420811
     11          1           0        6.407825   -0.359011    1.372769
     12          7           0        2.367124   -1.099850   -0.741716
     13          8           0        2.560553   -2.311506   -0.670224
     14          8           0        1.377920   -0.569345   -1.242394
     15          6           0       -3.175414   -2.398877    0.468281
     16          6           0       -2.231902   -1.633735   -0.225163
     17          6           0       -2.445068   -0.269094   -0.441636
     18          6           0       -3.618026    0.300484    0.051357
     19          6           0       -4.576956   -0.435231    0.745956
     20          6           0       -4.342871   -1.798242    0.950776
     21          1           0       -3.001696   -3.458332    0.631916
     22          1           0       -1.324334   -2.097529   -0.601010
     23          1           0       -1.731298    0.346738   -0.975208
     24          1           0       -5.472123    0.055217    1.108660
     25          1           0       -5.077361   -2.390000    1.489657
     26          7           0       -3.854769    1.744307   -0.171645
     27          8           0       -4.896201    2.222369    0.272778
     28          8           0       -2.994412    2.370575   -0.786636
 ---------------------------------------------------------------------

 SCF Done:  E(RHF) =  -868.341422029     A.U. after   16 cycles
 E2 =    -0.2598466099D+01 EUMP2 =    -0.87093988812769D+03

 The electronic state is 1-A.
 Alpha  occ. eigenvalues --  -20.61662 -20.61650 -20.60087 -20.60081 -15.86662
 Alpha  occ. eigenvalues --  -15.85126 -11.31647 -11.30228 -11.28187 -11.28139
 Alpha  occ. eigenvalues --  -11.27852 -11.27120 -11.27071 -11.26835 -11.26597
 Alpha  occ. eigenvalues --  -11.26453 -11.25835 -11.25481  -1.60708  -1.59166
 Alpha  occ. eigenvalues --   -1.40271  -1.38726  -1.19786  -1.18368  -1.09255
 Alpha  occ. eigenvalues --   -1.07823  -1.05127  -1.03689  -0.96151  -0.94699
 Alpha  occ. eigenvalues --   -0.86545  -0.85115  -0.83000  -0.81510  -0.78080
 Alpha  occ. eigenvalues --   -0.76584  -0.72903  -0.71994  -0.71354  -0.70889
 Alpha  occ. eigenvalues --   -0.70485  -0.69480  -0.65442  -0.65126  -0.64001
 Alpha  occ. eigenvalues --   -0.63655  -0.62474  -0.61003  -0.55650  -0.54245
 Alpha  occ. eigenvalues --   -0.53481  -0.53211  -0.52097  -0.51745  -0.49658
 Alpha  occ. eigenvalues --   -0.49624  -0.48118  -0.48083  -0.45752  -0.44189
 Alpha  occ. eigenvalues --   -0.37749  -0.36712  -0.36381  -0.35298
 Alpha virt. eigenvalues --    0.04399   0.05882   0.10947   0.12335   0.15960
 Alpha virt. eigenvalues --    0.17438   0.21075   0.22603   0.27039   0.27654
 Alpha virt. eigenvalues --    0.28779   0.29298   0.30827   0.32100   0.32224

 Mulliken charges:
               1
     1  C   -0.169546
     2  C   -0.218729
     3  C   -0.170166
     4  C    0.157188
     5  C   -0.170595
     6  C   -0.218758
     7  H    0.227840
     8  H    0.227497
     9  H    0.278661
    10  H    0.275115
    11  H    0.224669
    12  N    0.491113
    13  O   -0.460226
    14  O   -0.469919
    15  C   -0.172288
    16  C   -0.225790
    17  C   -0.175168
    18  C    0.157674
    19  C   -0.173400
    20  C   -0.219169
    21  H    0.224080
    22  H    0.244762
    23  H    0.283379
    24  H    0.271479
    25  H    0.219241
    26  N    0.488127
    27  O   -0.464039
    28  O   -0.463034
 Sum of Mulliken charges =  -0.00000

 Dipole moment (field-independent basis, Debye):
    X=              5.0729    Y=             -1.9522    Z=              2.7050  Tot=              6.0715
 Quadrupole moment (field-independent basis, Debye-Ang):
   XX=            -81.8482   YY=           -106.7283   ZZ=           -105.4542
   XY=             27.2256   XZ=              2.2965   YZ=             -2.2458

 Normal termination of Gaussian 16 at Thu May  6 13:09:11 2021.
