 Gaussian 16, Revision A.03,
 Gaussian 16:  EM64L-G16RevA.03 25-Dec-2016

 -------------
 #p 6-31g* mp2
 -------------

 ------------------------------------------------------
 Input file generated by CHIRIPA (05-May-2021 14:53:17)
 ------------------------------------------------------
 Symbolic Z-matrix:
 Charge =  0 Multiplicity = 1

                         Standard orientation:
 ---------------------------------------------------------------------
 Center     Atomic      Atomic             Coordinates (Angstroms)
 Number     Number       Type             X           Y           Z
 ---------------------------------------------------------------------
      1          6           0       -4.059924   -0.306820    0.135876
      2          6           0       -4.417354    0.883579   -0.754729
      3          6           0       -5.873175    0.856731   -1.221269
      4          1           0       -4.253378   -1.238520   -0.413174
      5          1           0       -4.725908   -0.314994    1.009829
      6          1           0       -3.749983    0.890300   -1.626042
      7          1           0       -4.222846    1.812556   -0.203563
      8          1           0       -6.553033    0.873736   -0.363304
      9          1           0       -6.077484   -0.053759   -1.793865
     10          1           0       -6.107082    1.716693   -1.856575
     11          6           0       -2.607857   -0.294041    0.610289
     12          6           0       -2.250426   -1.484440    1.500895
     13          6           0       -0.794606   -1.457593    1.967435
     14          1           0       -1.941872   -0.285868   -0.263663
     15          1           0       -2.414403    0.637658    1.159340
     16          1           0       -2.444935   -2.413417    0.949728
     17          1           0       -2.917798   -1.491162    2.372207
     18          1           0       -0.590297   -0.547102    2.540030
     19          1           0       -0.114747   -1.474597    1.109469
     20          1           0       -0.560699   -2.317554    2.602741
     21          6           0        2.780838   -2.134987   -1.139643
     22          6           0        1.566507   -1.446948   -1.231957
     23          6           0        1.457307   -0.133630   -0.765244
     24          6           0        2.587564    0.463805   -0.209472
     25          6           0        3.811279   -0.195421   -0.103491
     26          6           0        3.897380   -1.508132   -0.576697
     27          1           0        2.856695   -3.154967   -1.504719
     28          1           0        0.697737   -1.931263   -1.668676
     29          1           0        0.529430    0.422218   -0.824351
     30          1           0        4.659947    0.313794    0.336828
     31          1           0        4.841727   -2.040041   -0.503709
     32          7           0        2.484186    1.853835    0.288052
     33          8           0        3.494603    2.357867    0.773486
     34          8           0        1.394699    2.412988    0.183157
 ---------------------------------------------------------------------

 SCF Done:  E(RHF) =  -669.534276231     A.U. after   15 cycles
 E2 =    -0.2093463537D+01 EUMP2 =    -0.67162773976799D+03

 The electronic state is 1-A.
 Alpha  occ. eigenvalues --  -20.60767 -20.60762 -15.85822 -11.31193 -11.27787
 Alpha  occ. eigenvalues --  -11.27767 -11.27541 -11.26797 -11.26787 -11.21801
 Alpha  occ. eigenvalues --  -11.21681 -11.21656 -11.21541 -11.21131 -11.21054
 Alpha  occ. eigenvalues --   -1.59842  -1.39394  -1.19397  -1.08779  -1.08612
 Alpha  occ. eigenvalues --   -1.04821  -1.03652  -0.96106  -0.95611  -0.87120
 Alpha  occ. eigenvalues --   -0.86195  -0.82454  -0.79722  -0.78446  -0.77476
 Alpha  occ. eigenvalues --   -0.72041  -0.71165  -0.70502  -0.65282  -0.65032
 Alpha  occ. eigenvalues --   -0.64802  -0.62172  -0.61049  -0.59469  -0.57736
 Alpha  occ. eigenvalues --   -0.55467  -0.55296  -0.53271  -0.52901  -0.52765
 Alpha  occ. eigenvalues --   -0.52393  -0.50027  -0.48802  -0.48793  -0.48017
 Alpha  occ. eigenvalues --   -0.46758  -0.45968  -0.45889  -0.44794  -0.43929
 Alpha  occ. eigenvalues --   -0.37375  -0.36291
 Alpha virt. eigenvalues --    0.05030   0.11207   0.16414   0.20026   0.22965
 Alpha virt. eigenvalues --    0.24152   0.25315   0.26907   0.27836   0.28087
 Alpha virt. eigenvalues --    0.29542   0.30453   0.31552   0.31702   0.32122

 Mulliken charges:
               1
     1  C   -0.298168
     2  C   -0.299776
     3  C   -0.475895
     4  H    0.147109
     5  H    0.151742
     6  H    0.149519
     7  H    0.156754
     8  H    0.155926
     9  H    0.153703
    10  H    0.161647
    11  C   -0.299349
    12  C   -0.299631
    13  C   -0.484170
    14  H    0.137086
    15  H    0.159816
    16  H    0.147321
    17  H    0.154278
    18  H    0.160584
    19  H    0.158317
    20  H    0.158799
    21  C   -0.170184
    22  C   -0.220892
    23  C   -0.174831
    24  C    0.160574
    25  C   -0.170312
    26  C   -0.218866
    27  H    0.225916
    28  H    0.223875
    29  H    0.282435
    30  H    0.275822
    31  H    0.223645
    32  N    0.487912
    33  O   -0.460561
    34  O   -0.460146
 Sum of Mulliken charges =  -0.00000

 Dipole moment (field-independent basis, Debye):
    X=              0.3752    Y=             -4.7917    Z=             -1.6975  Tot=              5.0973
 Quadrupole moment (field-independent basis, Debye-Ang):
   XX=            -88.8843   YY=            -99.8074   ZZ=            -93.8732
   XY=            -13.2109   XZ=             -4.0102   YZ=              0.8586

 Normal termination of Gaussian 16 at Thu May  6 09:08:50 2021.
