 Gaussian 16, Revision A.03,
 Gaussian 16:  EM64L-G16RevA.03 25-Dec-2016

 -------------
 #p 6-31g* mp2
 -------------

 ------------------------------------------------------
 Input file generated by CHIRIPA (05-May-2021 14:53:14)
 ------------------------------------------------------
 Symbolic Z-matrix:
 Charge =  0 Multiplicity = 1

                         Standard orientation:
 ---------------------------------------------------------------------
 Center     Atomic      Atomic             Coordinates (Angstroms)
 Number     Number       Type             X           Y           Z
 ---------------------------------------------------------------------
      1          6           0        5.135376   -0.482564   -0.120281
      2          6           0        6.619348   -0.223043    0.141370
      3          6           0        7.522794   -1.300344   -0.459463
      4          1           0        4.862915   -1.463607    0.292351
      5          1           0        4.966187   -0.541531   -1.204390
      6          1           0        6.785452   -0.163206    1.224627
      7          1           0        6.888262    0.757580   -0.271763
      8          1           0        7.386369   -1.356481   -1.544284
      9          1           0        7.282975   -2.282499   -0.039392
     10          1           0        8.579280   -1.095072   -0.260564
     11          6           0        4.219497    0.585830    0.474218
     12          6           0        2.735525    0.326309    0.212567
     13          6           0        1.832078    1.403610    0.813400
     14          1           0        4.388686    0.644797    1.558327
     15          1           0        4.491958    1.566874    0.061586
     16          1           0        2.466610   -0.654314    0.625700
     17          1           0        2.569421    0.266472   -0.870690
     18          1           0        2.071898    2.385765    0.393329
     19          1           0        1.968504    1.459747    1.898221
     20          1           0        0.775592    1.198338    0.614501
     21          6           0       -2.262110    2.009434   -0.613975
     22          6           0       -3.572574    2.146765   -0.144568
     23          6           0       -4.353095    1.018013    0.122364
     24          6           0       -3.788834   -0.238503   -0.092266
     25          6           0       -2.486316   -0.408015   -0.559172
     26          6           0       -1.724111    0.734729   -0.819417
     27          1           0       -1.662897    2.891711   -0.818738
     28          1           0       -3.993003    3.135469    0.015901
     29          1           0       -5.370375    1.095490    0.486449
     30          1           0       -2.094733   -1.406764   -0.709444
     31          1           0       -0.706677    0.625053   -1.183893
     32          7           0       -4.605441   -1.440869    0.186784
     33          8           0       -4.085090   -2.536750   -0.010487
     34          8           0       -5.750386   -1.264634    0.597490
 ---------------------------------------------------------------------

 SCF Done:  E(RHF) =  -669.535277522     A.U. after   15 cycles
 E2 =    -0.2091536369D+01 EUMP2 =    -0.67162681389184D+03

 The electronic state is 1-A.
 Alpha  occ. eigenvalues --  -20.60773 -20.60768 -15.85828 -11.31205 -11.27780
 Alpha  occ. eigenvalues --  -11.27776 -11.27519 -11.26785 -11.26762 -11.22357
 Alpha  occ. eigenvalues --  -11.21965 -11.21949 -11.21848 -11.21811 -11.21360
 Alpha  occ. eigenvalues --   -1.59849  -1.39402  -1.19384  -1.08964  -1.08773
 Alpha  occ. eigenvalues --   -1.04792  -1.04081  -0.96528  -0.95603  -0.87550
 Alpha  occ. eigenvalues --   -0.86181  -0.82435  -0.80155  -0.78753  -0.77486
 Alpha  occ. eigenvalues --   -0.72046  -0.71172  -0.70479  -0.65592  -0.65034
 Alpha  occ. eigenvalues --   -0.64833  -0.62184  -0.61469  -0.59893  -0.58134
 Alpha  occ. eigenvalues --   -0.55798  -0.55276  -0.53451  -0.53055  -0.52996
 Alpha  occ. eigenvalues --   -0.52633  -0.50457  -0.48807  -0.48800  -0.48459
 Alpha  occ. eigenvalues --   -0.47186  -0.46298  -0.46206  -0.44805  -0.44329
 Alpha  occ. eigenvalues --   -0.37341  -0.36370
 Alpha virt. eigenvalues --    0.05055   0.11105   0.16523   0.20342   0.22578
 Alpha virt. eigenvalues --    0.23858   0.25964   0.26427   0.27024   0.28107
 Alpha virt. eigenvalues --    0.28943   0.30140   0.30881   0.31627   0.31915

 Mulliken charges:
               1
     1  C   -0.298845
     2  C   -0.300069
     3  C   -0.476031
     4  H    0.151217
     5  H    0.149202
     6  H    0.152869
     7  H    0.151939
     8  H    0.155336
     9  H    0.156190
    10  H    0.161349
    11  C   -0.298233
    12  C   -0.301085
    13  C   -0.484024
    14  H    0.151905
    15  H    0.149728
    16  H    0.155158
    17  H    0.146872
    18  H    0.152815
    19  H    0.160702
    20  H    0.159478
    21  C   -0.170924
    22  C   -0.218546
    23  C   -0.170536
    24  C    0.158426
    25  C   -0.172675
    26  C   -0.219789
    27  H    0.226888
    28  H    0.223656
    29  H    0.275775
    30  H    0.276078
    31  H    0.227740
    32  N    0.488121
    33  O   -0.460306
    34  O   -0.460381
 Sum of Mulliken charges =  -0.00000

 Dipole moment (field-independent basis, Debye):
    X=              2.9600    Y=              4.2222    Z=             -0.9416  Tot=              5.2417
 Quadrupole moment (field-independent basis, Debye-Ang):
   XX=           -113.8616   YY=            -95.6986   ZZ=            -94.3276
   XY=            -19.0359   XZ=              2.6510   YZ=              0.0355

 Normal termination of Gaussian 16 at Wed May  5 17:07:51 2021.
