 Gaussian 16, Revision A.03,
 Gaussian 16:  EM64L-G16RevA.03 25-Dec-2016

 -------------
 #p 6-31g* mp2
 -------------

 ------------------------------------------------------
 Input file generated by CHIRIPA (05-May-2021 14:57:24)
 ------------------------------------------------------
 Symbolic Z-matrix:
 Charge =  0 Multiplicity = 1

                         Standard orientation:
 ---------------------------------------------------------------------
 Center     Atomic      Atomic             Coordinates (Angstroms)
 Number     Number       Type             X           Y           Z
 ---------------------------------------------------------------------
      1          6           0        4.621363    1.516085    0.477140
      2          6           0        4.208707    0.559698    1.410714
      3          6           0        3.189236   -0.344340    1.097757
      4          6           0        2.601641   -0.263309   -0.163773
      5          6           0        2.990695    0.678159   -1.115385
      6          6           0        4.012114    1.572164   -0.780712
      7          1           0        5.414069    2.214466    0.728687
      8          1           0        4.680062    0.513820    2.388346
      9          1           0        2.850284   -1.094805    1.801555
     10          1           0        2.501904    0.699375   -2.081848
     11          1           0        4.330546    2.313852   -1.507723
     12          7           0        1.521342   -1.215063   -0.506581
     13          8           0        1.019644   -1.122975   -1.624819
     14          8           0        1.196756   -2.035114    0.349455
     15          6           0       -3.508935    2.520677    0.032274
     16          6           0       -3.380143    1.866214    1.261750
     17          6           0       -2.976805    0.528678    1.315283
     18          6           0       -2.709186   -0.126950    0.114524
     19          6           0       -2.828290    0.497698   -1.126007
     20          6           0       -3.233084    1.835538   -1.155587
     21          1           0       -3.822823    3.559824   -0.000009
     22          1           0       -3.593704    2.395804    2.185855
     23          1           0       -2.868968   -0.002171    2.253360
     24          1           0       -2.608367   -0.056531   -2.030376
     25          1           0       -3.332253    2.341267   -2.111854
     26          7           0       -2.281422   -1.543100    0.158518
     27          8           0       -2.051587   -2.098500   -0.913556
     28          8           0       -2.184073   -2.070864    1.264242
 ---------------------------------------------------------------------

 SCF Done:  E(RHF) =  -868.334882318     A.U. after   16 cycles
 E2 =    -0.2602329415D+01 EUMP2 =    -0.87093721173284D+03

 The electronic state is 1-A.
 Alpha  occ. eigenvalues --  -20.60180 -20.60117 -20.59319 -20.59188 -15.85211
 Alpha  occ. eigenvalues --  -15.84317 -11.30879 -11.30250 -11.27506 -11.27456
 Alpha  occ. eigenvalues --  -11.27283 -11.26926 -11.26843 -11.26772 -11.26577
 Alpha  occ. eigenvalues --  -11.26545 -11.26062 -11.26022  -1.59230  -1.58295
 Alpha  occ. eigenvalues --   -1.38772  -1.37843  -1.19081  -1.18487  -1.08419
 Alpha  occ. eigenvalues --   -1.07781  -1.04526  -1.03970  -0.95198  -0.94516
 Alpha  occ. eigenvalues --   -0.85910  -0.85340  -0.82026  -0.81356  -0.77030
 Alpha  occ. eigenvalues --   -0.76287  -0.71395  -0.70728  -0.70547  -0.70184
 Alpha  occ. eigenvalues --   -0.69590  -0.69514  -0.64722  -0.64526  -0.64123
 Alpha  occ. eigenvalues --   -0.63983  -0.61868  -0.61302  -0.55016  -0.54471
 Alpha  occ. eigenvalues --   -0.52844  -0.52620  -0.52282  -0.52069  -0.48194
 Alpha  occ. eigenvalues --   -0.48153  -0.47297  -0.47253  -0.44191  -0.42984
 Alpha  occ. eigenvalues --   -0.37083  -0.36512  -0.36145  -0.35603
 Alpha virt. eigenvalues --    0.05472   0.06277   0.11504   0.12045   0.16926
 Alpha virt. eigenvalues --    0.17651   0.21614   0.22096   0.27504   0.27968
 Alpha virt. eigenvalues --    0.28532   0.29061   0.31135   0.31605   0.32787

 Mulliken charges:
               1
     1  C   -0.171872
     2  C   -0.218736
     3  C   -0.171730
     4  C    0.158711
     5  C   -0.171900
     6  C   -0.218660
     7  H    0.223923
     8  H    0.222619
     9  H    0.278134
    10  H    0.273580
    11  H    0.221319
    12  N    0.483167
    13  O   -0.458897
    14  O   -0.448818
    15  C   -0.173042
    16  C   -0.219305
    17  C   -0.172856
    18  C    0.157537
    19  C   -0.168851
    20  C   -0.220037
    21  H    0.221053
    22  H    0.219152
    23  H    0.273837
    24  H    0.280583
    25  H    0.219896
    26  N    0.489440
    27  O   -0.444995
    28  O   -0.463252
 Sum of Mulliken charges =  -0.00000

 Dipole moment (field-independent basis, Debye):
    X=              2.3975    Y=              7.8934    Z=              0.9415  Tot=              8.3031
 Quadrupole moment (field-independent basis, Debye-Ang):
   XX=            -79.6369   YY=           -108.3354   ZZ=            -96.3893
   XY=             -5.3775   XZ=              3.3708   YZ=             -2.2870

 Normal termination of Gaussian 16 at Fri May  7 06:32:19 2021.
