 Gaussian 16, Revision A.03,
 Gaussian 16:  EM64L-G16RevA.03 25-Dec-2016

 -------------
 #p 6-31g* mp2
 -------------

 ------------------------------------------------------
 Input file generated by CHIRIPA (05-May-2021 14:55:25)
 ------------------------------------------------------
 Symbolic Z-matrix:
 Charge =  0 Multiplicity = 1

                         Standard orientation:
 ---------------------------------------------------------------------
 Center     Atomic      Atomic             Coordinates (Angstroms)
 Number     Number       Type             X           Y           Z
 ---------------------------------------------------------------------
      1          6           0       -0.727079   -2.091541   -0.730289
      2          6           0       -0.539126   -0.714139   -0.885072
      3          6           0       -1.552671    0.184163   -0.538187
      4          6           0       -2.746851   -0.331856   -0.037240
      5          6           0       -2.964358   -1.698782    0.128579
      6          6           0       -1.936962   -2.578608   -0.224849
      7          1           0        0.065647   -2.782187   -1.002299
      8          1           0        0.399444   -0.333033   -1.277359
      9          1           0       -1.433851    1.255279   -0.647775
     10          1           0       -3.910942   -2.048726    0.522199
     11          1           0       -2.085726   -3.647816   -0.103569
     12          7           0       -3.827178    0.609356    0.333455
     13          8           0       -4.869991    0.129448    0.772621
     14          8           0       -3.610669    1.809164    0.177820
     15          6           0        3.838636    0.157766   -0.126225
     16          6           0        4.136033   -1.000993    0.826043
     17          6           0        5.239711   -1.923604    0.307894
     18          1           0        3.550683   -0.246208   -1.106446
     19          1           0        4.758214    0.737872   -0.285119
     20          1           0        3.215840   -1.577928    0.984183
     21          1           0        4.423126   -0.594216    1.804166
     22          1           0        6.172252   -1.367535    0.167337
     23          1           0        4.958107   -2.356836   -0.657305
     24          1           0        5.436118   -2.744956    1.004073
     25          6           0        2.737494    1.088900    0.377963
     26          6           0        2.440097    2.247661   -0.574305
     27          6           0        1.336418    3.170271   -0.056157
     28          1           0        1.817915    0.508795    0.536857
     29          1           0        3.025447    1.492875    1.358184
     30          1           0        2.153004    1.840883   -1.552429
     31          1           0        3.360289    2.824595   -0.732446
     32          1           0        1.618022    3.603504    0.909042
     33          1           0        0.403878    2.614203    0.084401
     34          1           0        1.140010    3.991623   -0.752335
 ---------------------------------------------------------------------

 SCF Done:  E(RHF) =  -669.534701069     A.U. after   15 cycles
 E2 =    -0.2093408118D+01 EUMP2 =    -0.67162810918690D+03

 The electronic state is 1-A.
 Alpha  occ. eigenvalues --  -20.60785 -20.60779 -15.85838 -11.31229 -11.27803
 Alpha  occ. eigenvalues --  -11.27789 -11.27550 -11.26823 -11.26798 -11.22384
 Alpha  occ. eigenvalues --  -11.22330 -11.22189 -11.22074 -11.21738 -11.21678
 Alpha  occ. eigenvalues --   -1.59859  -1.39412  -1.19410  -1.09210  -1.08795
 Alpha  occ. eigenvalues --   -1.04826  -1.04251  -0.96685  -0.95627  -0.87698
 Alpha  occ. eigenvalues --   -0.86209  -0.82465  -0.80308  -0.79006  -0.77507
 Alpha  occ. eigenvalues --   -0.72057  -0.71182  -0.70525  -0.66016  -0.65060
 Alpha  occ. eigenvalues --   -0.64748  -0.62329  -0.61474  -0.60035  -0.58281
 Alpha  occ. eigenvalues --   -0.56023  -0.55308  -0.53348  -0.53191  -0.53138
 Alpha  occ. eigenvalues --   -0.52819  -0.50585  -0.48820  -0.48810  -0.48602
 Alpha  occ. eigenvalues --   -0.47370  -0.46530  -0.46486  -0.44811  -0.44500
 Alpha  occ. eigenvalues --   -0.37382  -0.36382
 Alpha virt. eigenvalues --    0.04998   0.11124   0.16372   0.18571   0.22779
 Alpha virt. eigenvalues --    0.23455   0.25234   0.25797   0.26890   0.28429
 Alpha virt. eigenvalues --    0.29216   0.30595   0.31112   0.31423   0.32355

 Mulliken charges:
               1
     1  C   -0.173177
     2  C   -0.222545
     3  C   -0.178875
     4  C    0.160151
     5  C   -0.170393
     6  C   -0.218293
     7  H    0.226101
     8  H    0.230949
     9  H    0.282119
    10  H    0.275886
    11  H    0.223751
    12  N    0.487746
    13  O   -0.460329
    14  O   -0.459873
    15  C   -0.298613
    16  C   -0.299700
    17  C   -0.475855
    18  H    0.142523
    19  H    0.153657
    20  H    0.148645
    21  H    0.155851
    22  H    0.157817
    23  H    0.152612
    24  H    0.162070
    25  C   -0.306827
    26  C   -0.303193
    27  C   -0.479405
    28  H    0.150722
    29  H    0.155435
    30  H    0.144439
    31  H    0.157151
    32  H    0.161454
    33  H    0.152805
    34  H    0.165194
 Sum of Mulliken charges =  -0.00000

 Dipole moment (field-independent basis, Debye):
    X=              3.8985    Y=             -3.2283    Z=             -1.2008  Tot=              5.2021
 Quadrupole moment (field-independent basis, Debye-Ang):
   XX=           -113.9782   YY=            -89.5311   ZZ=            -94.9409
   XY=             11.7440   XZ=              3.4009   YZ=             -0.4403

 Normal termination of Gaussian 16 at Wed May  5 20:49:55 2021.
