 Gaussian 16, Revision A.03,
 Gaussian 16:  EM64L-G16RevA.03 25-Dec-2016

 -------------
 #p 6-31g* mp2
 -------------

 ------------------------------------------------------
 Input file generated by CHIRIPA (05-May-2021 14:57:22)
 ------------------------------------------------------
 Symbolic Z-matrix:
 Charge =  0 Multiplicity = 1

                         Standard orientation:
 ---------------------------------------------------------------------
 Center     Atomic      Atomic             Coordinates (Angstroms)
 Number     Number       Type             X           Y           Z
 ---------------------------------------------------------------------
      1          6           0        3.200913   -1.488250    1.513966
      2          6           0        2.952933   -1.765510    0.165577
      3          6           0        2.585864   -0.742520   -0.713798
      4          6           0        2.475654    0.552070   -0.208644
      5          6           0        2.716148    0.860050    1.129490
      6          6           0        3.081939   -0.178663    1.990779
      7          1           0        3.485565   -2.289040    2.190061
      8          1           0        3.044560   -2.781610   -0.207505
      9          1           0        2.388085   -0.929159   -1.762353
     10          1           0        2.616694    1.882874    1.472067
     11          1           0        3.273915    0.039596    3.037465
     12          7           0        2.087731    1.643386   -1.130025
     13          8           0        1.997488    2.775543   -0.660222
     14          8           0        1.881266    1.345940   -2.304561
     15          6           0       -1.003769   -2.066009   -1.010084
     16          6           0       -0.688917   -1.525957    0.241208
     17          6           0       -1.532549   -0.586752    0.841813
     18          6           0       -2.688066   -0.208457    0.159930
     19          6           0       -3.029131   -0.728394   -1.087720
     20          6           0       -2.170814   -1.666209   -1.669392
     21          1           0       -0.342712   -2.795066   -1.469295
     22          1           0        0.216756   -1.834594    0.755547
     23          1           0       -1.312951   -0.152663    1.809677
     24          1           0       -3.939005   -0.401201   -1.576077
     25          1           0       -2.417864   -2.083943   -2.641252
     26          7           0       -3.588955    0.785101    0.785742
     27          8           0       -4.601011    1.101894    0.164435
     28          8           0       -3.265957    1.228247    1.885711
 ---------------------------------------------------------------------

 SCF Done:  E(RHF) =  -868.335791604     A.U. after   16 cycles
 E2 =    -0.2604018613D+01 EUMP2 =    -0.87093981021628D+03

 The electronic state is 1-A.
 Alpha  occ. eigenvalues --  -20.61299 -20.61280 -20.60587 -20.60577 -15.86357
 Alpha  occ. eigenvalues --  -15.85635 -11.31994 -11.31042 -11.28647 -11.28590
 Alpha  occ. eigenvalues --  -11.28444 -11.27716 -11.27655 -11.27573 -11.27560
 Alpha  occ. eigenvalues --  -11.27396 -11.26652 -11.26535  -1.60358  -1.59654
 Alpha  occ. eigenvalues --   -1.39905  -1.39209  -1.20254  -1.19199  -1.09577
 Alpha  occ. eigenvalues --   -1.08614  -1.05697  -1.04599  -0.96351  -0.95445
 Alpha  occ. eigenvalues --   -0.87048  -0.86019  -0.83177  -0.82270  -0.78169
 Alpha  occ. eigenvalues --   -0.77304  -0.72573  -0.71861  -0.71683  -0.71314
 Alpha  occ. eigenvalues --   -0.70970  -0.70374  -0.65873  -0.65658  -0.64863
 Alpha  occ. eigenvalues --   -0.64673  -0.62997  -0.62003  -0.56147  -0.55225
 Alpha  occ. eigenvalues --   -0.54216  -0.53746  -0.52892  -0.52421  -0.49352
 Alpha  occ. eigenvalues --   -0.49309  -0.48618  -0.48608  -0.45251  -0.44606
 Alpha  occ. eigenvalues --   -0.38350  -0.37659  -0.36879  -0.36022
 Alpha virt. eigenvalues --    0.04321   0.05227   0.10081   0.11661   0.15703
 Alpha virt. eigenvalues --    0.16682   0.20127   0.21894   0.25882   0.27344
 Alpha virt. eigenvalues --    0.27714   0.29030   0.30148   0.31191   0.31943

 Mulliken charges:
               1
     1  C   -0.174897
     2  C   -0.233269
     3  C   -0.167210
     4  C    0.163644
     5  C   -0.171235
     6  C   -0.220220
     7  H    0.228951
     8  H    0.222910
     9  H    0.275355
    10  H    0.281372
    11  H    0.228470
    12  N    0.488603
    13  O   -0.455587
    14  O   -0.459427
    15  C   -0.174912
    16  C   -0.219940
    17  C   -0.175498
    18  C    0.161347
    19  C   -0.170234
    20  C   -0.214785
    21  H    0.217031
    22  H    0.228906
    23  H    0.273012
    24  H    0.276304
    25  H    0.223572
    26  N    0.488476
    27  O   -0.459284
    28  O   -0.461455
 Sum of Mulliken charges =  -0.00000

 Dipole moment (field-independent basis, Debye):
    X=              4.6642    Y=             -7.0488    Z=              1.0241  Tot=              8.5140
 Quadrupole moment (field-independent basis, Debye-Ang):
   XX=           -113.9783   YY=           -106.7364   ZZ=           -101.3043
   XY=              0.6171   XZ=             17.7030   YZ=              5.6320

 Normal termination of Gaussian 16 at Thu May  6 19:32:23 2021.
