 Gaussian 16, Revision A.03,
 Gaussian 16:  EM64L-G16RevA.03 25-Dec-2016

 -------------
 #p 6-31g* mp2
 -------------

 ------------------------------------------------------
 Input file generated by CHIRIPA (05-May-2021 14:53:12)
 ------------------------------------------------------
 Symbolic Z-matrix:
 Charge =  0 Multiplicity = 1

                         Standard orientation:
 ---------------------------------------------------------------------
 Center     Atomic      Atomic             Coordinates (Angstroms)
 Number     Number       Type             X           Y           Z
 ---------------------------------------------------------------------
      1          6           0       -5.455460   -0.070720    0.402540
      2          6           0       -6.515432   -0.434918   -0.637558
      3          6           0       -7.907560   -0.604585   -0.028471
      4          1           0       -5.426394   -0.850639    1.175732
      5          1           0       -5.751573    0.859170    0.907532
      6          1           0       -6.216716   -1.363103   -1.141400
      7          1           0       -6.541845    0.345863   -1.408466
      8          1           0       -8.230642    0.321414    0.458093
      9          1           0       -7.903666   -1.397262    0.726676
     10          1           0       -8.649787   -0.864733   -0.789577
     11          6           0       -4.058523    0.102282   -0.191062
     12          6           0       -2.998551    0.466480    0.849036
     13          6           0       -1.606423    0.636146    0.239949
     14          1           0       -3.762409   -0.827608   -0.696054
     15          1           0       -4.087589    0.882201   -0.964254
     16          1           0       -2.972138   -0.314301    1.619944
     17          1           0       -3.297267    1.394665    1.352878
     18          1           0       -1.610317    1.428824   -0.515199
     19          1           0       -1.283341   -0.289853   -0.246615
     20          1           0       -0.864196    0.896295    1.001055
     21          6           0        2.879115    2.362346   -0.243217
     22          6           0        2.006573    1.294963   -0.479618
     23          6           0        2.459552   -0.024857   -0.393411
     24          6           0        3.797345   -0.241903   -0.067082
     25          6           0        4.691122    0.800351    0.174077
     26          6           0        4.216247    2.112075    0.082302
     27          1           0        2.518725    3.384470   -0.312347
     28          1           0        0.967623    1.486339   -0.732606
     29          1           0        1.805627   -0.869900   -0.571460
     30          1           0        5.721366    0.578094    0.424312
     31          1           0        4.896134    2.939058    0.266415
     32          7           0        4.288484   -1.634853    0.027129
     33          8           0        5.471668   -1.799490    0.316277
     34          8           0        3.480955   -2.535633   -0.189961
 ---------------------------------------------------------------------

 SCF Done:  E(RHF) =  -669.535421159     A.U. after   15 cycles
 E2 =    -0.2091351760D+01 EUMP2 =    -0.67162677291994D+03

 The electronic state is 1-A.
 Alpha  occ. eigenvalues --  -20.60698 -20.60693 -15.85750 -11.31091 -11.27659
 Alpha  occ. eigenvalues --  -11.27630 -11.27381 -11.26679 -11.26567 -11.22286
 Alpha  occ. eigenvalues --  -11.22112 -11.21909 -11.21897 -11.21751 -11.21309
 Alpha  occ. eigenvalues --   -1.59774  -1.39328  -1.19255  -1.08922  -1.08656
 Alpha  occ. eigenvalues --   -1.04654  -1.04071  -0.96561  -0.95497  -0.87610
 Alpha  occ. eigenvalues --   -0.86042  -0.82328  -0.80163  -0.78699  -0.77366
 Alpha  occ. eigenvalues --   -0.71969  -0.71096  -0.70369  -0.65549  -0.64903
 Alpha  occ. eigenvalues --   -0.64659  -0.62020  -0.61468  -0.59915  -0.58135
 Alpha  occ. eigenvalues --   -0.55854  -0.55167  -0.53430  -0.53037  -0.52917
 Alpha  occ. eigenvalues --   -0.52555  -0.50495  -0.48726  -0.48725  -0.48456
 Alpha  occ. eigenvalues --   -0.47156  -0.46251  -0.46145  -0.44739  -0.44300
 Alpha  occ. eigenvalues --   -0.37241  -0.36238
 Alpha virt. eigenvalues --    0.05140   0.11371   0.16592   0.20641   0.22468
 Alpha virt. eigenvalues --    0.23828   0.25552   0.25898   0.27198   0.27918
 Alpha virt. eigenvalues --    0.28996   0.29691   0.31101   0.31316   0.32054

 Mulliken charges:
               1
     1  C   -0.298918
     2  C   -0.300067
     3  C   -0.476021
     4  H    0.151457
     5  H    0.149742
     6  H    0.153132
     7  H    0.151749
     8  H    0.155232
     9  H    0.156163
    10  H    0.161303
    11  C   -0.299317
    12  C   -0.299783
    13  C   -0.485787
    14  H    0.151499
    15  H    0.148983
    16  H    0.156832
    17  H    0.153514
    18  H    0.149612
    19  H    0.156508
    20  H    0.164277
    21  C   -0.172966
    22  C   -0.223888
    23  C   -0.174476
    24  C    0.158787
    25  C   -0.171404
    26  C   -0.218432
    27  H    0.225290
    28  H    0.236914
    29  H    0.275488
    30  H    0.275142
    31  H    0.222849
    32  N    0.488154
    33  O   -0.460811
    34  O   -0.460758
 Sum of Mulliken charges =  -0.00000

 Dipole moment (field-independent basis, Debye):
    X=             -1.9548    Y=              4.8830    Z=             -0.2863  Tot=              5.2675
 Quadrupole moment (field-independent basis, Debye-Ang):
   XX=           -104.4307   YY=            -96.2345   ZZ=            -95.3390
   XY=             20.7609   XZ=              0.2876   YZ=              0.0959

 Normal termination of Gaussian 16 at Thu May  6 10:22:55 2021.
