 Gaussian 16, Revision A.03,
 Gaussian 16:  EM64L-G16RevA.03 25-Dec-2016

 -------------
 #p 6-31g* mp2
 -------------

 ------------------------------------------------------
 Input file generated by CHIRIPA (05-May-2021 14:55:23)
 ------------------------------------------------------
 Symbolic Z-matrix:
 Charge =  0 Multiplicity = 1

                         Standard orientation:
 ---------------------------------------------------------------------
 Center     Atomic      Atomic             Coordinates (Angstroms)
 Number     Number       Type             X           Y           Z
 ---------------------------------------------------------------------
      1          6           0        1.703269    1.639327    0.905364
      2          6           0        1.643464    0.313152    1.346050
      3          6           0        2.622506   -0.607717    0.961310
      4          6           0        3.651885   -0.166258    0.131381
      5          6           0        3.738999    1.148303   -0.324283
      6          6           0        2.749002    2.051942    0.073071
      7          1           0        0.938471    2.347988    1.209139
      8          1           0        0.832491   -0.010099    1.992484
      9          1           0        2.600497   -1.640345    1.287829
     10          1           0        4.559609    1.440947   -0.968004
     11          1           0        2.797994    3.081244   -0.270707
     12          7           0        4.694151   -1.132021   -0.282603
     13          8           0        5.590742   -0.718114   -1.014343
     14          8           0        4.594753   -2.284605    0.132495
     15          6           0       -4.998863   -0.521132   -0.333108
     16          6           0       -6.308036   -0.152936    0.365808
     17          6           0       -7.387260   -1.223488    0.201527
     18          1           0       -5.194653   -0.685510   -1.401561
     19          1           0       -4.633132   -1.476413    0.068231
     20          1           0       -6.670470    0.802056   -0.035749
     21          1           0       -6.109072    0.010772    1.432686
     22          1           0       -7.050083   -2.177687    0.619160
     23          1           0       -7.614670   -1.381907   -0.857619
     24          1           0       -8.314615   -0.939861    0.708899
     25          6           0       -3.910210    0.539279   -0.177896
     26          6           0       -2.601037    0.171083   -0.876812
     27          6           0       -1.521813    1.241635   -0.712530
     28          1           0       -4.275941    1.494561   -0.579235
     29          1           0       -3.714421    0.703657    0.890557
     30          1           0       -2.800000    0.007376   -1.943691
     31          1           0       -2.238603   -0.783909   -0.475255
     32          1           0       -1.294404    1.400055    0.346615
     33          1           0       -1.858991    2.195834   -1.130164
     34          1           0       -0.594458    0.958008   -1.219904
 ---------------------------------------------------------------------

 SCF Done:  E(RHF) =  -669.534774572     A.U. after   15 cycles
 E2 =    -0.2091838336D+01 EUMP2 =    -0.67162661290742D+03

 The electronic state is 1-A.
 Alpha  occ. eigenvalues --  -20.60738 -20.60733 -15.85794 -11.31143 -11.27736
 Alpha  occ. eigenvalues --  -11.27731 -11.27449 -11.26726 -11.26716 -11.22214
 Alpha  occ. eigenvalues --  -11.22001 -11.21957 -11.21830 -11.21820 -11.21394
 Alpha  occ. eigenvalues --   -1.59815  -1.39369  -1.19332  -1.08954  -1.08723
 Alpha  occ. eigenvalues --   -1.04736  -1.04056  -0.96527  -0.95554  -0.87545
 Alpha  occ. eigenvalues --   -0.86130  -0.82393  -0.80129  -0.78750  -0.77440
 Alpha  occ. eigenvalues --   -0.72012  -0.71140  -0.70448  -0.65592  -0.64982
 Alpha  occ. eigenvalues --   -0.64740  -0.62092  -0.61456  -0.59881  -0.58116
 Alpha  occ. eigenvalues --   -0.55883  -0.55211  -0.53440  -0.52935  -0.52826
 Alpha  occ. eigenvalues --   -0.52804  -0.50459  -0.48770  -0.48767  -0.48437
 Alpha  occ. eigenvalues --   -0.47161  -0.46298  -0.46213  -0.44778  -0.44302
 Alpha  occ. eigenvalues --   -0.37230  -0.36343
 Alpha virt. eigenvalues --    0.05094   0.11258   0.16557   0.20468   0.22488
 Alpha virt. eigenvalues --    0.23903   0.25814   0.26464   0.27159   0.27503
 Alpha virt. eigenvalues --    0.28616   0.30644   0.31095   0.31261   0.31898

 Mulliken charges:
               1
     1  C   -0.165450
     2  C   -0.217681
     3  C   -0.171562
     4  C    0.157798
     5  C   -0.170887
     6  C   -0.220998
     7  H    0.226988
     8  H    0.222584
     9  H    0.275354
    10  H    0.275507
    11  H    0.223506
    12  N    0.488169
    13  O   -0.460650
    14  O   -0.460694
    15  C   -0.298601
    16  C   -0.299847
    17  C   -0.475973
    18  H    0.151368
    19  H    0.149921
    20  H    0.152304
    21  H    0.151243
    22  H    0.155703
    23  H    0.156132
    24  H    0.161130
    25  C   -0.298248
    26  C   -0.300213
    27  C   -0.476401
    28  H    0.150254
    29  H    0.146454
    30  H    0.155528
    31  H    0.151956
    32  H    0.142064
    33  H    0.154774
    34  H    0.168468
 Sum of Mulliken charges =  -0.00000

 Dipole moment (field-independent basis, Debye):
    X=             -3.7716    Y=              3.3940    Z=              1.3889  Tot=              5.2605
 Quadrupole moment (field-independent basis, Debye-Ang):
   XX=           -121.6146   YY=            -93.9253   ZZ=            -92.8206
   XY=             14.4598   XZ=              3.8980   YZ=             -2.4208

 Normal termination of Gaussian 16 at Thu May  6 17:35:48 2021.
