 Gaussian 16, Revision A.03,
 Gaussian 16:  EM64L-G16RevA.03 25-Dec-2016

 -------------
 #p 6-31g* mp2
 -------------

 ------------------------------------------------------
 Input file generated by CHIRIPA (05-May-2021 14:53:16)
 ------------------------------------------------------
 Symbolic Z-matrix:
 Charge =  0 Multiplicity = 1

                         Standard orientation:
 ---------------------------------------------------------------------
 Center     Atomic      Atomic             Coordinates (Angstroms)
 Number     Number       Type             X           Y           Z
 ---------------------------------------------------------------------
      1          6           0        4.081247    0.291955    0.217199
      2          6           0        3.046137   -0.302214    1.172969
      3          6           0        1.725406    0.468130    1.167228
      4          1           0        4.265112    1.339816    0.491289
      5          1           0        3.666650    0.303154   -0.800337
      6          1           0        3.463088   -0.313565    2.188174
      7          1           0        2.864857   -1.348839    0.896691
      8          1           0        1.283991    0.468489    0.165352
      9          1           0        1.885620    1.509646    1.464173
     10          1           0        0.999946    0.026325    1.857427
     11          6           0        5.406886   -0.467241    0.211731
     12          6           0        6.441995    0.126928   -0.744040
     13          6           0        7.762726   -0.643416   -0.738298
     14          1           0        5.821482   -0.478441    1.229267
     15          1           0        5.223021   -1.515103   -0.062359
     16          1           0        6.623275    1.173553   -0.467761
     17          1           0        6.025045    0.138278   -1.759244
     18          1           0        7.602512   -1.684932   -1.035243
     19          1           0        8.204141   -0.643776    0.263577
     20          1           0        8.488187   -0.201611   -1.428498
     21          6           0       -5.279278   -1.900253   -0.041864
     22          6           0       -3.904321   -2.111088   -0.188712
     23          6           0       -3.023458   -1.027748   -0.259463
     24          6           0       -3.554232    0.258800   -0.179702
     25          6           0       -4.919162    0.501326   -0.033289
     26          6           0       -5.781425   -0.597016    0.035243
     27          1           0       -5.956329   -2.747643    0.012235
     28          1           0       -3.511529   -3.122097   -0.248866
     29          1           0       -1.954626   -1.162323   -0.373055
     30          1           0       -5.281020    1.520745    0.023814
     31          1           0       -6.848774   -0.430276    0.149297
     32          7           0       -2.631548    1.413624   -0.253427
     33          8           0       -3.124233    2.537285   -0.180741
     34          8           0       -1.433135    1.173247   -0.382504
 ---------------------------------------------------------------------

 SCF Done:  E(RHF) =  -669.535670750     A.U. after   15 cycles
 E2 =    -0.2090798259D+01 EUMP2 =    -0.67162646900836D+03

 The electronic state is 1-A.
 Alpha  occ. eigenvalues --  -20.60825 -20.60818 -15.85869 -11.31229 -11.27798
 Alpha  occ. eigenvalues --  -11.27794 -11.27543 -11.26815 -11.26806 -11.21195
 Alpha  occ. eigenvalues --  -11.20911 -11.20857 -11.20753 -11.20727 -11.19885
 Alpha  occ. eigenvalues --   -1.59892  -1.39447  -1.19402  -1.08799  -1.07858
 Alpha  occ. eigenvalues --   -1.04805  -1.02900  -0.95641  -0.95312  -0.86322
 Alpha  occ. eigenvalues --   -0.86202  -0.82470  -0.78971  -0.77668  -0.77499
 Alpha  occ. eigenvalues --   -0.72095  -0.71209  -0.70511  -0.65059  -0.64808
 Alpha  occ. eigenvalues --   -0.64496  -0.62152  -0.60299  -0.58735  -0.56937
 Alpha  occ. eigenvalues --   -0.55308  -0.54594  -0.53135  -0.52898  -0.52010
 Alpha  occ. eigenvalues --   -0.51721  -0.49266  -0.48850  -0.48817  -0.47263
 Alpha  occ. eigenvalues --   -0.46018  -0.45196  -0.45127  -0.44825  -0.43158
 Alpha  occ. eigenvalues --   -0.37384  -0.36409
 Alpha virt. eigenvalues --    0.05012   0.11244   0.16498   0.21279   0.23379
 Alpha virt. eigenvalues --    0.24777   0.27046   0.27292   0.27780   0.28068
 Alpha virt. eigenvalues --    0.29055   0.30932   0.31910   0.32253   0.32736

 Mulliken charges:
               1
     1  C   -0.297664
     2  C   -0.300688
     3  C   -0.474830
     4  H    0.150579
     5  H    0.150454
     6  H    0.148052
     7  H    0.145266
     8  H    0.172096
     9  H    0.156533
    10  H    0.152850
    11  C   -0.297508
    12  C   -0.299295
    13  C   -0.475336
    14  H    0.148281
    15  H    0.147228
    16  H    0.152295
    17  H    0.151825
    18  H    0.153925
    19  H    0.154525
    20  H    0.159364
    21  C   -0.170758
    22  C   -0.218581
    23  C   -0.170841
    24  C    0.157920
    25  C   -0.170910
    26  C   -0.218561
    27  H    0.225728
    28  H    0.223592
    29  H    0.275891
    30  H    0.275732
    31  H    0.223580
    32  N    0.493500
    33  O   -0.459910
    34  O   -0.464337
 Sum of Mulliken charges =  -0.00000

 Dipole moment (field-independent basis, Debye):
    X=             -3.4621    Y=             -3.9661    Z=              0.1947  Tot=              5.2682
 Quadrupole moment (field-independent basis, Debye-Ang):
   XX=            -70.6262   YY=            -95.1327   ZZ=            -95.3766
   XY=             12.0417   XZ=             -0.5690   YZ=              1.6291

 Normal termination of Gaussian 16 at Thu May  6 05:56:00 2021.
