 Gaussian 16, Revision A.03,
 Gaussian 16:  EM64L-G16RevA.03 25-Dec-2016

 -------------
 #p 6-31g* mp2
 -------------

 ------------------------------------------------------
 Input file generated by CHIRIPA (05-May-2021 14:57:25)
 ------------------------------------------------------
 Symbolic Z-matrix:
 Charge =  0 Multiplicity = 1

                         Standard orientation:
 ---------------------------------------------------------------------
 Center     Atomic      Atomic             Coordinates (Angstroms)
 Number     Number       Type             X           Y           Z
 ---------------------------------------------------------------------
      1          6           0       -5.013579    2.159036    0.469113
      2          6           0       -5.330718    0.989716    1.168137
      3          6           0       -4.654359   -0.203890    0.899082
      4          6           0       -3.661966   -0.192149   -0.079850
      5          6           0       -3.323154    0.956523   -0.793328
      6          6           0       -4.012574    2.138743   -0.507667
      7          1           0       -5.544064    3.081836    0.684571
      8          1           0       -6.107655    1.002521    1.927248
      9          1           0       -4.879725   -1.123566    1.425223
     10          1           0       -2.543856    0.912612   -1.544451
     11          1           0       -3.764167    3.045340   -1.052112
     12          7           0       -2.939022   -1.449740   -0.373477
     13          8           0       -2.068781   -1.413099   -1.240642
     14          8           0       -3.256308   -2.448267    0.269103
     15          6           0        1.912213   -1.695991   -0.187144
     16          6           0        1.752434   -0.401795   -0.693156
     17          6           0        2.781244    0.537756   -0.577648
     18          6           0        3.961795    0.147383    0.052591
     19          6           0        4.151257   -1.134364    0.566904
     20          6           0        3.109004   -2.057508    0.440165
     21          1           0        1.107787   -2.419484   -0.281236
     22          1           0        0.824085   -0.118245   -1.180817
     23          1           0        2.684259    1.546466   -0.960420
     24          1           0        5.088223   -1.387604    1.047926
     25          1           0        3.235891   -3.061886    0.834081
     26          7           0        5.058066    1.133359    0.180819
     27          8           0        6.088388    0.764605    0.740367
     28          8           0        4.866242    2.256250   -0.280652
 ---------------------------------------------------------------------

 SCF Done:  E(RHF) =  -868.340538354     A.U. after   16 cycles
 E2 =    -0.2598468493D+01 EUMP2 =    -0.87093900684729D+03

 The electronic state is 1-A.
 Alpha  occ. eigenvalues --  -20.61951 -20.61890 -20.60299 -20.60291 -15.86937
 Alpha  occ. eigenvalues --  -15.85345 -11.31991 -11.30519 -11.28554 -11.28494
 Alpha  occ. eigenvalues --  -11.28176 -11.27460 -11.27436 -11.27079 -11.27070
 Alpha  occ. eigenvalues --  -11.26572 -11.25993 -11.25897  -1.60976  -1.59378
 Alpha  occ. eigenvalues --   -1.40541  -1.38938  -1.20128  -1.18651  -1.09575
 Alpha  occ. eigenvalues --   -1.08037  -1.05485  -1.04034  -0.96465  -0.94914
 Alpha  occ. eigenvalues --   -0.86897  -0.85406  -0.83312  -0.81770  -0.78402
 Alpha  occ. eigenvalues --   -0.76879  -0.73171  -0.72272  -0.71564  -0.71229
 Alpha  occ. eigenvalues --   -0.70701  -0.69649  -0.65785  -0.65480  -0.64278
 Alpha  occ. eigenvalues --   -0.63988  -0.62843  -0.61389  -0.55982  -0.54380
 Alpha  occ. eigenvalues --   -0.53824  -0.53572  -0.52371  -0.52098  -0.49938
 Alpha  occ. eigenvalues --   -0.49891  -0.48335  -0.48301  -0.46005  -0.44388
 Alpha  occ. eigenvalues --   -0.38076  -0.37072  -0.36562  -0.35663
 Alpha virt. eigenvalues --    0.04077   0.05655   0.10579   0.12013   0.15623
 Alpha virt. eigenvalues --    0.17223   0.20461   0.22292   0.25959   0.27094
 Alpha virt. eigenvalues --    0.28521   0.29233   0.30378   0.31154   0.32654

 Mulliken charges:
               1
     1  C   -0.169446
     2  C   -0.218189
     3  C   -0.170184
     4  C    0.158431
     5  C   -0.171258
     6  C   -0.217929
     7  H    0.228975
     8  H    0.226294
     9  H    0.276723
    10  H    0.271587
    11  H    0.226197
    12  N    0.490006
    13  O   -0.471977
    14  O   -0.455816
    15  C   -0.174356
    16  C   -0.223534
    17  C   -0.172940
    18  C    0.157690
    19  C   -0.172189
    20  C   -0.219634
    21  H    0.241909
    22  H    0.231006
    23  H    0.270528
    24  H    0.273044
    25  H    0.222602
    26  N    0.488302
    27  O   -0.462181
    28  O   -0.463659
 Sum of Mulliken charges =  -0.00000

 Dipole moment (field-independent basis, Debye):
    X=             -6.9694    Y=              0.8827    Z=              0.6546  Tot=              7.0555
 Quadrupole moment (field-independent basis, Debye-Ang):
   XX=           -114.6000   YY=           -104.4629   ZZ=           -102.6992
   XY=            -31.7469   XZ=             -6.7783   YZ=             -4.5377

 Normal termination of Gaussian 16 at Thu May  6 05:08:43 2021.
