 Gaussian 16, Revision A.03,
 Gaussian 16:  EM64L-G16RevA.03 25-Dec-2016

 -------------
 #p 6-31g* mp2
 -------------

 ------------------------------------------------------
 Input file generated by CHIRIPA (05-May-2021 14:57:24)
 ------------------------------------------------------
 Symbolic Z-matrix:
 Charge =  0 Multiplicity = 1

                         Standard orientation:
 ---------------------------------------------------------------------
 Center     Atomic      Atomic             Coordinates (Angstroms)
 Number     Number       Type             X           Y           Z
 ---------------------------------------------------------------------
      1          6           0        6.589045    0.445098   -0.188804
      2          6           0        6.120810   -0.825656    0.161143
      3          6           0        4.750625   -1.062254    0.306608
      4          6           0        3.872803   -0.000479    0.093647
      5          6           0        4.308437    1.276757   -0.255895
      6          6           0        5.682961    1.490406   -0.395841
      7          1           0        7.655123    0.619979   -0.299661
      8          1           0        6.822181   -1.639334    0.322548
      9          1           0        4.360886   -2.036188    0.576747
     10          1           0        3.584978    2.068080   -0.410277
     11          1           0        6.043742    2.478321   -0.667696
     12          7           0        2.419952   -0.238807    0.244723
     13          8           0        1.667104    0.713328    0.051604
     14          8           0        2.061566   -1.373231    0.553395
     15          6           0       -6.480927    0.781291    0.218905
     16          6           0       -5.411157    1.673809    0.343498
     17          6           0       -4.094619    1.230508    0.186140
     18          6           0       -3.883255   -0.118083   -0.096557
     19          6           0       -4.928011   -1.031777   -0.226710
     20          6           0       -6.236371   -0.566277   -0.065301
     21          1           0       -7.500468    1.134281    0.342717
     22          1           0       -5.598094    2.720901    0.564173
     23          1           0       -3.247836    1.899887    0.277286
     24          1           0       -4.710191   -2.069746   -0.447143
     25          1           0       -7.065219   -1.261680   -0.162619
     26          7           0       -2.493825   -0.599137   -0.265290
     27          8           0       -2.334183   -1.792164   -0.513963
     28          8           0       -1.590740    0.225948   -0.145673
 ---------------------------------------------------------------------

 SCF Done:  E(RHF) =  -868.333791483     A.U. after   16 cycles
 E2 =    -0.2600816919D+01 EUMP2 =    -0.87093460840138D+03

 The electronic state is 1-A.
 Alpha  occ. eigenvalues --  -20.59398 -20.59375 -20.59336 -20.59248 -15.84477
 Alpha  occ. eigenvalues --  -15.84366 -11.30313 -11.30225 -11.26945 -11.26932
 Alpha  occ. eigenvalues --  -11.26865 -11.26842 -11.26774 -11.26701 -11.26068
 Alpha  occ. eigenvalues --  -11.26053 -11.25990 -11.25978  -1.58454  -1.58373
 Alpha  occ. eigenvalues --   -1.38006  -1.37913  -1.18531  -1.18450  -1.07836
 Alpha  occ. eigenvalues --   -1.07752  -1.04005  -1.03925  -0.94598  -0.94485
 Alpha  occ. eigenvalues --   -0.85382  -0.85300  -0.81438  -0.81315  -0.76392
 Alpha  occ. eigenvalues --   -0.76293  -0.70785  -0.70419  -0.69827  -0.69741
 Alpha  occ. eigenvalues --   -0.69638  -0.69555  -0.64174  -0.64084  -0.64010
 Alpha  occ. eigenvalues --   -0.63933  -0.61349  -0.61267  -0.54495  -0.54416
 Alpha  occ. eigenvalues --   -0.52309  -0.52230  -0.52106  -0.52025  -0.47723
 Alpha  occ. eigenvalues --   -0.47402  -0.47328  -0.46937  -0.43330  -0.43203
 Alpha  occ. eigenvalues --   -0.36540  -0.36462  -0.35631  -0.35552
 Alpha virt. eigenvalues --    0.06145   0.06251   0.12015   0.12094   0.17556
 Alpha virt. eigenvalues --    0.17657   0.22084   0.22164   0.27962   0.28039
 Alpha virt. eigenvalues --    0.29015   0.29105   0.31599   0.31677   0.33279

 Mulliken charges:
               1
     1  C   -0.172436
     2  C   -0.218502
     3  C   -0.171680
     4  C    0.159547
     5  C   -0.171880
     6  C   -0.218504
     7  H    0.222360
     8  H    0.220846
     9  H    0.275567
    10  H    0.274580
    11  H    0.220326
    12  N    0.486317
    13  O   -0.449836
    14  O   -0.456247
    15  C   -0.172497
    16  C   -0.218646
    17  C   -0.171935
    18  C    0.159253
    19  C   -0.171868
    20  C   -0.218583
    21  H    0.222031
    22  H    0.220361
    23  H    0.277003
    24  H    0.274546
    25  H    0.220299
    26  N    0.486184
    27  O   -0.463084
    28  O   -0.443522
 Sum of Mulliken charges =  -0.00000

 Dipole moment (field-independent basis, Debye):
    X=              0.2758    Y=              2.5358    Z=              0.0720  Tot=              2.5518
 Quadrupole moment (field-independent basis, Debye-Ang):
   XX=            -31.6941   YY=            -96.7559   ZZ=           -106.4476
   XY=             -2.0970   XZ=             -2.9093   YZ=             -0.5598

 Normal termination of Gaussian 16 at Thu May  6 08:15:27 2021.
