 Gaussian 16, Revision A.03,
 Gaussian 16:  EM64L-G16RevA.03 25-Dec-2016

 -------------
 #p 6-31g* mp2
 -------------

 ------------------------------------------------------
 Input file generated by CHIRIPA (05-May-2021 14:53:14)
 ------------------------------------------------------
 Symbolic Z-matrix:
 Charge =  0 Multiplicity = 1

                         Standard orientation:
 ---------------------------------------------------------------------
 Center     Atomic      Atomic             Coordinates (Angstroms)
 Number     Number       Type             X           Y           Z
 ---------------------------------------------------------------------
      1          6           0        4.098851   -0.431902   -0.281897
      2          6           0        3.316634   -1.713039   -0.573119
      3          6           0        4.224004   -2.927803   -0.770150
      4          1           0        4.796584   -0.239959   -1.108499
      5          1           0        4.712820   -0.581766    0.616979
      6          1           0        2.703270   -1.560340   -1.470383
      7          1           0        2.620545   -1.901851    0.254182
      8          1           0        4.826184   -3.108270    0.126182
      9          1           0        4.909379   -2.764819   -1.608183
     10          1           0        3.644146   -3.832665   -0.977152
     11          6           0        3.205574    0.791225   -0.082533
     12          6           0        3.987791    2.072362    0.208688
     13          6           0        3.080421    3.287126    0.405720
     14          1           0        2.591605    0.941089   -0.981409
     15          1           0        2.507841    0.599282    0.744069
     16          1           0        4.683879    2.261174   -0.618613
     17          1           0        4.601155    1.919663    1.105953
     18          1           0        2.395046    3.124142    1.243752
     19          1           0        2.478241    3.467593   -0.490612
     20          1           0        3.660279    4.191988    0.612722
     21          6           0       -0.705913   -0.986793    1.161297
     22          6           0       -1.850503   -1.790728    1.172326
     23          6           0       -3.045771   -1.332026    0.610656
     24          6           0       -3.060892   -0.058531    0.043848
     25          6           0       -1.937247    0.766098    0.017390
     26          6           0       -0.752854    0.286809    0.584880
     27          1           0        0.218377   -1.351119    1.599877
     28          1           0       -1.816974   -2.780247    1.619286
     29          1           0       -3.946645   -1.933540    0.605544
     30          1           0       -2.001515    1.748042   -0.435462
     31          1           0        0.134501    0.913343    0.574884
     32          7           0       -4.320511    0.437973   -0.553848
     33          8           0       -4.307792    1.563689   -1.047043
     34          8           0       -5.296672   -0.307982   -0.517809
 ---------------------------------------------------------------------

 SCF Done:  E(RHF) =  -669.535355258     A.U. after   15 cycles
 E2 =    -0.2092203718D+01 EUMP2 =    -0.67162755897562D+03

 The electronic state is 1-A.
 Alpha  occ. eigenvalues --  -20.60693 -20.60688 -15.85744 -11.31090 -11.27656
 Alpha  occ. eigenvalues --  -11.27631 -11.27384 -11.26678 -11.26584 -11.22588
 Alpha  occ. eigenvalues --  -11.22570 -11.22511 -11.22334 -11.21989 -11.21843
 Alpha  occ. eigenvalues --   -1.59769  -1.39323  -1.19253  -1.09448  -1.08653
 Alpha  occ. eigenvalues --   -1.04650  -1.04458  -0.96909  -0.95495  -0.87921
 Alpha  occ. eigenvalues --   -0.86055  -0.82327  -0.80525  -0.79316  -0.77367
 Alpha  occ. eigenvalues --   -0.71964  -0.71092  -0.70376  -0.66088  -0.64902
 Alpha  occ. eigenvalues --   -0.64648  -0.62026  -0.61833  -0.60273  -0.58523
 Alpha  occ. eigenvalues --   -0.56197  -0.55166  -0.53561  -0.53361  -0.52983
 Alpha  occ. eigenvalues --   -0.52728  -0.50845  -0.48857  -0.48721  -0.48692
 Alpha  occ. eigenvalues --   -0.47558  -0.46795  -0.46719  -0.44737  -0.44733
 Alpha  occ. eigenvalues --   -0.37229  -0.36250
 Alpha virt. eigenvalues --    0.05139   0.11371   0.16577   0.19066   0.22250
 Alpha virt. eigenvalues --    0.22755   0.24827   0.26016   0.26516   0.27902
 Alpha virt. eigenvalues --    0.29449   0.30315   0.30912   0.31467   0.31762

 Mulliken charges:
               1
     1  C   -0.298527
     2  C   -0.300660
     3  C   -0.476379
     4  H    0.154496
     5  H    0.151291
     6  H    0.156508
     7  H    0.143108
     8  H    0.155927
     9  H    0.158569
    10  H    0.162064
    11  C   -0.303126
    12  C   -0.299597
    13  C   -0.478970
    14  H    0.152508
    15  H    0.140128
    16  H    0.156512
    17  H    0.154364
    18  H    0.152018
    19  H    0.156157
    20  H    0.166189
    21  C   -0.173632
    22  C   -0.218823
    23  C   -0.171504
    24  C    0.158920
    25  C   -0.172684
    26  C   -0.224250
    27  H    0.226412
    28  H    0.222896
    29  H    0.275127
    30  H    0.275477
    31  H    0.232935
    32  N    0.487967
    33  O   -0.460652
    34  O   -0.460768
 Sum of Mulliken charges =  -0.00000

 Dipole moment (field-independent basis, Debye):
    X=              4.7376    Y=             -1.7091    Z=              1.9961  Tot=              5.4176
 Quadrupole moment (field-independent basis, Debye-Ang):
   XX=           -120.7181   YY=            -91.5415   ZZ=            -94.0522
   XY=              8.0588   XZ=             -7.1982   YZ=             -1.7196

 Normal termination of Gaussian 16 at Thu May  6 07:23:35 2021.
