 Gaussian 16, Revision A.03,
 Gaussian 16:  EM64L-G16RevA.03 25-Dec-2016

 -------------
 #p 6-31g* mp2
 -------------

 ------------------------------------------------------
 Input file generated by CHIRIPA (05-May-2021 14:53:15)
 ------------------------------------------------------
 Symbolic Z-matrix:
 Charge =  0 Multiplicity = 1

                         Standard orientation:
 ---------------------------------------------------------------------
 Center     Atomic      Atomic             Coordinates (Angstroms)
 Number     Number       Type             X           Y           Z
 ---------------------------------------------------------------------
      1          6           0       -5.330892    0.291916    0.477770
      2          6           0       -6.629524    0.634545   -0.253081
      3          6           0       -7.696107    1.213710    0.676845
      4          1           0       -5.547930   -0.425581    1.280912
      5          1           0       -4.942170    1.197322    0.964114
      6          1           0       -7.014951   -0.270934   -0.739054
      7          1           0       -6.409338    1.351163   -1.054700
      8          1           0       -7.335582    2.131799    1.151962
      9          1           0       -7.944636    0.500485    1.469401
     10          1           0       -8.616061    1.451486    0.133701
     11          6           0       -4.254935   -0.288100   -0.438541
     12          6           0       -2.956302   -0.630729    0.292311
     13          6           0       -1.889720   -1.209895   -0.637616
     14          1           0       -4.643656   -1.193506   -0.924884
     15          1           0       -4.037896    0.429397   -1.241683
     16          1           0       -3.176488   -1.347348    1.093929
     17          1           0       -2.570875    0.274750    0.778284
     18          1           0       -1.641191   -0.496670   -1.430171
     19          1           0       -2.250244   -2.127984   -1.112732
     20          1           0       -0.969765   -1.447670   -0.094471
     21          6           0        5.698033    1.560655    0.315121
     22          6           0        4.758108    1.817765   -0.688352
     23          6           0        3.671721    0.959047   -0.880482
     24          6           0        3.555600   -0.152513   -0.047270
     25          6           0        4.475465   -0.435660    0.961177
     26          6           0        5.553965    0.436743    1.135236
     27          1           0        6.538901    2.233043    0.457353
     28          1           0        4.867457    2.689849   -1.326755
     29          1           0        2.929411    1.134287   -1.649692
     30          1           0        4.339741   -1.313008    1.581869
     31          1           0        6.282387    0.234572    1.915347
     32          7           0        2.409665   -1.068843   -0.241104
     33          8           0        2.329919   -2.041365    0.506211
     34          8           0        1.612925   -0.797191   -1.136675
 ---------------------------------------------------------------------

 SCF Done:  E(RHF) =  -669.535971524     A.U. after   15 cycles
 E2 =    -0.2091099649D+01 EUMP2 =    -0.67162707117297D+03

 The electronic state is 1-A.
 Alpha  occ. eigenvalues --  -20.60952 -20.60939 -15.85966 -11.31298 -11.27860
 Alpha  occ. eigenvalues --  -11.27856 -11.27598 -11.26867 -11.26857 -11.21050
 Alpha  occ. eigenvalues --  -11.20688 -11.20629 -11.20472 -11.20373 -11.19233
 Alpha  occ. eigenvalues --   -1.60004  -1.39558  -1.19465  -1.08869  -1.07590
 Alpha  occ. eigenvalues --   -1.04861  -1.02574  -0.95712  -0.94978  -0.86262
 Alpha  occ. eigenvalues --   -0.85984  -0.82541  -0.78674  -0.77596  -0.77365
 Alpha  occ. eigenvalues --   -0.72177  -0.71320  -0.70573  -0.65119  -0.64864
 Alpha  occ. eigenvalues --   -0.64238  -0.62208  -0.59988  -0.58427  -0.56584
 Alpha  occ. eigenvalues --   -0.55365  -0.54292  -0.53195  -0.52953  -0.51645
 Alpha  occ. eigenvalues --   -0.51416  -0.49025  -0.48943  -0.48815  -0.46958
 Alpha  occ. eigenvalues --   -0.45758  -0.44980  -0.44895  -0.44805  -0.42753
 Alpha  occ. eigenvalues --   -0.37443  -0.36462
 Alpha virt. eigenvalues --    0.04918   0.11193   0.16416   0.21330   0.23623
 Alpha virt. eigenvalues --    0.25332   0.27246   0.27419   0.28191   0.28262
 Alpha virt. eigenvalues --    0.29113   0.30894   0.32276   0.32441   0.32552

 Mulliken charges:
               1
     1  C   -0.297196
     2  C   -0.298885
     3  C   -0.475160
     4  H    0.148594
     5  H    0.147318
     6  H    0.151449
     7  H    0.150679
     8  H    0.153930
     9  H    0.154616
    10  H    0.158474
    11  C   -0.296950
    12  C   -0.300987
    13  C   -0.474633
    14  H    0.148328
    15  H    0.147367
    16  H    0.148650
    17  H    0.146598
    18  H    0.153848
    19  H    0.148884
    20  H    0.180305
    21  C   -0.170582
    22  C   -0.218573
    23  C   -0.170793
    24  C    0.158858
    25  C   -0.170768
    26  C   -0.218589
    27  H    0.225998
    28  H    0.223820
    29  H    0.275834
    30  H    0.275874
    31  H    0.223832
    32  N    0.487930
    33  O   -0.460488
    34  O   -0.457585
 Sum of Mulliken charges =  -0.00000

 Dipole moment (field-independent basis, Debye):
    X=              4.4237    Y=              3.1759    Z=              0.6461  Tot=              5.4838
 Quadrupole moment (field-independent basis, Debye-Ang):
   XX=            -68.0484   YY=            -93.9119   ZZ=            -92.7080
   XY=             10.9249   XZ=              4.2498   YZ=             -3.2216

 Normal termination of Gaussian 16 at Thu May  6 07:27:59 2021.
