 Gaussian 16, Revision A.03,
 Gaussian 16:  EM64L-G16RevA.03 25-Dec-2016

 -------------
 #p 6-31g* mp2
 -------------

 ------------------------------------------------------
 Input file generated by CHIRIPA (05-May-2021 14:51:09)
 ------------------------------------------------------
 Symbolic Z-matrix:
 Charge =  0 Multiplicity = 1

                         Standard orientation:
 ---------------------------------------------------------------------
 Center     Atomic      Atomic             Coordinates (Angstroms)
 Number     Number       Type             X           Y           Z
 ---------------------------------------------------------------------
      1          6           0       -3.426597    0.044751    0.550879
      2          6           0       -2.047234   -0.187642   -0.066646
      3          6           0       -0.910612    0.337777    0.810748
      4          1           0       -3.565445    1.120015    0.728287
      5          1           0       -3.466771   -0.442178    1.535095
      6          1           0       -2.010141    0.298408   -1.050005
      7          1           0       -1.911730   -1.262459   -0.242782
      8          1           0       -0.919135   -0.155121    1.788285
      9          1           0       -1.018106    1.414615    0.976476
     10          1           0        0.066471    0.161255    0.350302
     11          6           0       -4.573156   -0.475086   -0.314511
     12          6           0       -5.952519   -0.242693    0.303014
     13          6           0       -7.089142   -0.768112   -0.574380
     14          1           0       -4.532982    0.011843   -1.298727
     15          1           0       -4.434308   -1.550350   -0.491919
     16          1           0       -6.088024    0.832123    0.479150
     17          1           0       -5.989612   -0.728744    1.286373
     18          1           0       -6.981648   -1.844950   -0.740108
     19          1           0       -7.080618   -0.275214   -1.551917
     20          1           0       -8.066224   -0.591591   -0.113934
     21          6           0        3.706894    0.847481    0.194501
     22          6           0        2.712048    1.568921   -0.715330
     23          6           0        2.134569    2.831994   -0.075833
     24          1           0        3.208746    0.587361    1.138500
     25          1           0        4.523885    1.535847    0.451545
     26          1           0        1.897889    0.878967   -0.971702
     27          1           0        3.212567    1.827183   -1.657347
     28          1           0        2.932853    3.541633    0.164492
     29          1           0        1.610705    2.588029    0.854032
     30          1           0        1.425838    3.331930   -0.743386
     31          6           0        4.292860   -0.417146   -0.430869
     32          6           0        5.287706   -1.138584    0.478962
     33          6           0        5.865185   -2.401659   -0.160535
     34          1           0        3.475868   -1.105512   -0.687913
     35          1           0        4.791007   -0.157026   -1.374867
     36          1           0        4.787187   -1.396848    1.420979
     37          1           0        6.101864   -0.448631    0.735335
     38          1           0        6.389048   -2.157693   -1.090401
     39          1           0        5.066901   -3.111297   -0.400859
     40          1           0        6.573915   -2.901593    0.507018
 ---------------------------------------------------------------------

 SCF Done:  E(RHF) =  -470.733015600     A.U. after   11 cycles
 E2 =    -0.1582940469D+01 EUMP2 =    -0.47231595606877D+03

 The electronic state is 1-A.
 Alpha  occ. eigenvalues --  -11.21631 -11.21612 -11.21589 -11.21563 -11.21422
 Alpha  occ. eigenvalues --  -11.21388 -11.21362 -11.21327 -11.21080 -11.21079
 Alpha  occ. eigenvalues --  -11.21062 -11.20997  -1.08453  -1.08407  -1.03575
 Alpha  occ. eigenvalues --   -1.03481  -0.96031  -0.95921  -0.87027  -0.86961
 Alpha  occ. eigenvalues --   -0.79616  -0.79570  -0.78260  -0.78225  -0.65104
 Alpha  occ. eigenvalues --   -0.65045  -0.61072  -0.60876  -0.59357  -0.59274
 Alpha  occ. eigenvalues --   -0.57639  -0.57527  -0.55406  -0.55122  -0.52685
 Alpha  occ. eigenvalues --   -0.52641  -0.52438  -0.52363  -0.50026  -0.49796
 Alpha  occ. eigenvalues --   -0.47975  -0.47853  -0.46667  -0.46557  -0.45809
 Alpha  occ. eigenvalues --   -0.45764  -0.45725  -0.45674  -0.43798  -0.43735
 Alpha virt. eigenvalues --    0.20944   0.23011   0.23741   0.25077   0.26291
 Alpha virt. eigenvalues --    0.26455   0.26810   0.27636   0.27807   0.29047
 Alpha virt. eigenvalues --    0.30801   0.30946   0.31485   0.31842   0.32231

 Mulliken charges:
               1
     1  C   -0.298505
     2  C   -0.299668
     3  C   -0.482681
     4  H    0.149854
     5  H    0.149537
     6  H    0.152162
     7  H    0.151632
     8  H    0.154654
     9  H    0.157042
    10  H    0.166372
    11  C   -0.298285
    12  C   -0.299668
    13  C   -0.475716
    14  H    0.149592
    15  H    0.149624
    16  H    0.152006
    17  H    0.151927
    18  H    0.155176
    19  H    0.155217
    20  H    0.160298
    21  C   -0.299544
    22  C   -0.303108
    23  C   -0.477068
    24  H    0.150608
    25  H    0.149710
    26  H    0.154046
    27  H    0.152271
    28  H    0.154526
    29  H    0.158856
    30  H    0.159454
    31  C   -0.298112
    32  C   -0.299651
    33  C   -0.475700
    34  H    0.148949
    35  H    0.149675
    36  H    0.152059
    37  H    0.151946
    38  H    0.155151
    39  H    0.155141
    40  H    0.160222
 Sum of Mulliken charges =  -0.00000

 Dipole moment (field-independent basis, Debye):
    X=             -0.0130    Y=              0.0068    Z=              0.0107  Tot=              0.0182
 Quadrupole moment (field-independent basis, Debye-Ang):
   XX=            -85.3501   YY=            -84.6579   ZZ=            -84.8047
   XY=              0.5201   XZ=             -0.5619   YZ=             -1.1106

 Normal termination of Gaussian 16 at Thu May  6 03:43:07 2021.
