 Gaussian 16, Revision A.03,
 Gaussian 16:  EM64L-G16RevA.03 25-Dec-2016

 -------------
 #p 6-31g* mp2
 -------------

 ------------------------------------------------------
 Input file generated by CHIRIPA (05-May-2021 14:55:20)
 ------------------------------------------------------
 Symbolic Z-matrix:
 Charge =  0 Multiplicity = 1

                         Standard orientation:
 ---------------------------------------------------------------------
 Center     Atomic      Atomic             Coordinates (Angstroms)
 Number     Number       Type             X           Y           Z
 ---------------------------------------------------------------------
      1          6           0        1.215678   -2.529146    0.720339
      2          6           0        2.167072   -1.884513    1.517722
      3          6           0        2.759311   -0.691704    1.092274
      4          6           0        2.374963   -0.169204   -0.141648
      5          6           0        1.430036   -0.787870   -0.958750
      6          6           0        0.850840   -1.979736   -0.513177
      7          1           0        0.760679   -3.455383    1.058654
      8          1           0        2.452338   -2.308890    2.476143
      9          1           0        3.498468   -0.171827    1.689595
     10          1           0        1.165989   -0.340570   -1.909339
     11          1           0        0.112250   -2.478184   -1.134530
     12          7           0        2.995036    1.093071   -0.602703
     13          8           0        2.639270    1.532912   -1.693852
     14          8           0        3.825074    1.618699    0.135802
     15          6           0       -2.535367    1.006653    0.495596
     16          6           0       -2.862931    2.443882    0.089322
     17          6           0       -2.107429    3.480289    0.921713
     18          1           0       -2.774115    0.869534    1.559148
     19          1           0       -1.453716    0.841835    0.394286
     20          1           0       -3.943831    2.605524    0.190048
     21          1           0       -2.623554    2.577542   -0.973433
     22          1           0       -1.026132    3.347559    0.813181
     23          1           0       -2.353909    3.375699    1.983273
     24          1           0       -2.356489    4.500817    0.614546
     25          6           0       -3.282920   -0.040913   -0.327506
     26          6           0       -2.955354   -1.478142    0.078768
     27          6           0       -3.710856   -2.514548   -0.753623
     28          1           0       -4.364569    0.123906   -0.226197
     29          1           0       -3.044170    0.096207   -1.391058
     30          1           0       -3.194731   -1.611802    1.141523
     31          1           0       -1.874455   -1.639783   -0.021958
     32          1           0       -3.464377   -2.409959   -1.815183
     33          1           0       -4.792153   -2.381819   -0.645091
     34          1           0       -3.461796   -3.535076   -0.446456
 ---------------------------------------------------------------------

 SCF Done:  E(RHF) =  -669.534982398     A.U. after   15 cycles
 E2 =    -0.2093151366D+01 EUMP2 =    -0.67162813376355D+03

 The electronic state is 1-A.
 Alpha  occ. eigenvalues --  -20.60856 -20.60851 -15.85911 -11.31308 -11.27881
 Alpha  occ. eigenvalues --  -11.27856 -11.27599 -11.26879 -11.26867 -11.22058
 Alpha  occ. eigenvalues --  -11.21716 -11.21707 -11.21588 -11.21487 -11.20922
 Alpha  occ. eigenvalues --   -1.59932  -1.39484  -1.19480  -1.08871  -1.08675
 Alpha  occ. eigenvalues --   -1.04889  -1.03779  -0.96225  -0.95692  -0.87239
 Alpha  occ. eigenvalues --   -0.86283  -0.82527  -0.79869  -0.78460  -0.77569
 Alpha  occ. eigenvalues --   -0.72127  -0.71257  -0.70565  -0.65414  -0.65127
 Alpha  occ. eigenvalues --   -0.64838  -0.62256  -0.61152  -0.59632  -0.57822
 Alpha  occ. eigenvalues --   -0.55518  -0.55360  -0.53257  -0.52979  -0.52903
 Alpha  occ. eigenvalues --   -0.52638  -0.50164  -0.48892  -0.48881  -0.48163
 Alpha  occ. eigenvalues --   -0.46904  -0.45997  -0.45897  -0.44882  -0.44018
 Alpha  occ. eigenvalues --   -0.37414  -0.36422
 Alpha virt. eigenvalues --    0.04956   0.11031   0.16409   0.20416   0.22931
 Alpha virt. eigenvalues --    0.23954   0.26233   0.27100   0.27424   0.28084
 Alpha virt. eigenvalues --    0.28610   0.30512   0.31277   0.31707   0.31962

 Mulliken charges:
               1
     1  C   -0.169812
     2  C   -0.218098
     3  C   -0.170347
     4  C    0.158134
     5  C   -0.172747
     6  C   -0.218007
     7  H    0.226910
     8  H    0.224117
     9  H    0.276130
    10  H    0.276030
    11  H    0.226418
    12  N    0.487968
    13  O   -0.460337
    14  O   -0.459833
    15  C   -0.300237
    16  C   -0.300067
    17  C   -0.476210
    18  H    0.148876
    19  H    0.151529
    20  H    0.151015
    21  H    0.153794
    22  H    0.159396
    23  H    0.153488
    24  H    0.161863
    25  C   -0.297293
    26  C   -0.308143
    27  C   -0.476419
    28  H    0.150911
    29  H    0.148007
    30  H    0.152330
    31  H    0.152240
    32  H    0.153147
    33  H    0.159467
    34  H    0.155783
 Sum of Mulliken charges =  -0.00000

 Dipole moment (field-independent basis, Debye):
    X=             -2.0925    Y=             -4.3800    Z=              1.6623  Tot=              5.1309
 Quadrupole moment (field-independent basis, Debye-Ang):
   XX=           -103.9083   YY=            -94.5926   ZZ=            -91.7467
   XY=            -10.8073   XZ=              6.1152   YZ=             -0.0379

 Normal termination of Gaussian 16 at Thu May  6 14:08:44 2021.
