 Gaussian 16, Revision A.03,
 Gaussian 16:  EM64L-G16RevA.03 25-Dec-2016

 -------------
 #p 6-31g* mp2
 -------------

 ------------------------------------------------------
 Input file generated by CHIRIPA (05-May-2021 14:57:26)
 ------------------------------------------------------
 Symbolic Z-matrix:
 Charge =  0 Multiplicity = 1

                         Standard orientation:
 ---------------------------------------------------------------------
 Center     Atomic      Atomic             Coordinates (Angstroms)
 Number     Number       Type             X           Y           Z
 ---------------------------------------------------------------------
      1          6           0        3.688635    2.632888   -0.039664
      2          6           0        4.831290    1.848931    0.150790
      3          6           0        4.756251    0.454840    0.077112
      4          6           0        3.516852   -0.124681   -0.189971
      5          6           0        2.360519    0.629236   -0.384372
      6          6           0        2.459064    2.021616   -0.306167
      7          1           0        3.756056    3.715186    0.019329
      8          1           0        5.787517    2.320924    0.357904
      9          1           0        5.625082   -0.176036    0.220454
     10          1           0        1.421287    0.129978   -0.589314
     11          1           0        1.570010    2.627935   -0.454506
     12          7           0        3.424970   -1.599637   -0.270367
     13          8           0        2.321252   -2.085921   -0.506951
     14          8           0        4.458410   -2.241495   -0.095275
     15          6           0       -1.539346   -0.866369    1.531648
     16          6           0       -2.564986   -0.135337    2.140070
     17          6           0       -3.673768    0.284284    1.399078
     18          6           0       -3.724637   -0.046099    0.045731
     19          6           0       -2.718796   -0.773128   -0.589092
     20          6           0       -1.619383   -1.182374    0.171408
     21          1           0       -0.681657   -1.188311    2.114845
     22          1           0       -2.505498    0.111514    3.196276
     23          1           0       -4.481926    0.851385    1.844830
     24          1           0       -2.806235   -1.004058   -1.643816
     25          1           0       -0.824341   -1.749982   -0.303749
     26          7           0       -4.893495    0.392643   -0.749049
     27          8           0       -4.914554    0.088790   -1.939791
     28          8           0       -5.766455    1.032074   -0.166206
 ---------------------------------------------------------------------

 SCF Done:  E(RHF) =  -868.339848523     A.U. after   16 cycles
 E2 =    -0.2599298943D+01 EUMP2 =    -0.87093914746628D+03

 The electronic state is 1-A.
 Alpha  occ. eigenvalues --  -20.61694 -20.61633 -20.60775 -20.60769 -15.86706
 Alpha  occ. eigenvalues --  -15.85825 -11.31858 -11.31160 -11.28408 -11.28375
 Alpha  occ. eigenvalues --  -11.28070 -11.27742 -11.27682 -11.27390 -11.27348
 Alpha  occ. eigenvalues --  -11.27338 -11.26729 -11.26555  -1.60726  -1.59852
 Alpha  occ. eigenvalues --   -1.40292  -1.39406  -1.20004  -1.19319  -1.09432
 Alpha  occ. eigenvalues --   -1.08703  -1.05370  -1.04699  -0.96305  -0.95547
 Alpha  occ. eigenvalues --   -0.86781  -0.86078  -0.83146  -0.82369  -0.78232
 Alpha  occ. eigenvalues --   -0.77427  -0.72934  -0.72045  -0.72034  -0.71179
 Alpha  occ. eigenvalues --   -0.71104  -0.70382  -0.65657  -0.65369  -0.64946
 Alpha  occ. eigenvalues --   -0.64630  -0.62728  -0.62005  -0.55865  -0.55150
 Alpha  occ. eigenvalues --   -0.53718  -0.53474  -0.53039  -0.52732  -0.49695
 Alpha  occ. eigenvalues --   -0.49644  -0.48801  -0.48792  -0.45742  -0.44818
 Alpha  occ. eigenvalues --   -0.37968  -0.37308  -0.36958  -0.36326
 Alpha virt. eigenvalues --    0.04285   0.05079   0.10664   0.11199   0.15835
 Alpha virt. eigenvalues --    0.16560   0.20469   0.21784   0.25975   0.27150
 Alpha virt. eigenvalues --    0.28319   0.28645   0.30350   0.31158   0.31922

 Mulliken charges:
               1
     1  C   -0.170161
     2  C   -0.218525
     3  C   -0.170525
     4  C    0.157584
     5  C   -0.173827
     6  C   -0.219763
     7  H    0.228340
     8  H    0.225651
     9  H    0.276671
    10  H    0.272905
    11  H    0.227561
    12  N    0.491131
    13  O   -0.472778
    14  O   -0.455126
    15  C   -0.174751
    16  C   -0.219457
    17  C   -0.172116
    18  C    0.158035
    19  C   -0.173779
    20  C   -0.234574
    21  H    0.230779
    22  H    0.222788
    23  H    0.274827
    24  H    0.276740
    25  H    0.245778
    26  N    0.487954
    27  O   -0.460169
    28  O   -0.461194
 Sum of Mulliken charges =  -0.00000

 Dipole moment (field-independent basis, Debye):
    X=              4.6930    Y=              3.6797    Z=              3.0976  Tot=              6.7201
 Quadrupole moment (field-independent basis, Debye-Ang):
   XX=           -127.7591   YY=           -105.8250   ZZ=           -102.2439
   XY=             23.0634   XZ=            -10.0216   YZ=              0.6513

 Normal termination of Gaussian 16 at Thu May  6 14:46:52 2021.
