 Gaussian 16, Revision A.03,
 Gaussian 16:  EM64L-G16RevA.03 25-Dec-2016

 -------------
 #p 6-31g* mp2
 -------------

 ------------------------------------------------------
 Input file generated by CHIRIPA (05-May-2021 14:53:17)
 ------------------------------------------------------
 Symbolic Z-matrix:
 Charge =  0 Multiplicity = 1

                         Standard orientation:
 ---------------------------------------------------------------------
 Center     Atomic      Atomic             Coordinates (Angstroms)
 Number     Number       Type             X           Y           Z
 ---------------------------------------------------------------------
      1          6           0       -3.032374    0.517982    0.666492
      2          6           0       -2.506172    1.934933    0.435523
      3          6           0       -2.421465    2.751639    1.725333
      4          1           0       -4.025623    0.573981    1.132610
      5          1           0       -2.378573    0.004077    1.384712
      6          1           0       -3.159982    2.445546   -0.283103
      7          1           0       -1.514143    1.875555   -0.030275
      8          1           0       -1.753333    2.267316    2.444799
      9          1           0       -3.408524    2.840545    2.190534
     10          1           0       -2.042933    3.761173    1.537148
     11          6           0       -3.122774   -0.310845   -0.613587
     12          6           0       -3.648976   -1.727796   -0.382618
     13          6           0       -3.733683   -2.544502   -1.672428
     14          1           0       -3.776576    0.203060   -1.331807
     15          1           0       -2.129525   -0.366844   -1.079705
     16          1           0       -4.641005   -1.668418    0.083180
     17          1           0       -2.995166   -2.238409    0.336008
     18          1           0       -2.746624   -2.633408   -2.137629
     19          1           0       -4.401815   -2.060179   -2.391893
     20          1           0       -4.112215   -3.554036   -1.484243
     21          6           0        2.456786   -1.890279    1.736994
     22          6           0        3.552109   -1.708931    0.886170
     23          6           0        3.534055   -0.709565   -0.091322
     24          6           0        2.399286    0.094010   -0.190590
     25          6           0        1.292321   -0.061930    0.642236
     26          6           0        1.332370   -1.067650    1.612531
     27          1           0        2.479353   -2.669078    2.493538
     28          1           0        4.426685   -2.346313    0.980542
     29          1           0        4.368194   -0.547340   -0.763121
     30          1           0        0.434618    0.589066    0.524055
     31          1           0        0.480278   -1.206199    2.271917
     32          7           0        2.368531    1.155357   -1.221607
     33          8           0        1.356879    1.850118   -1.288709
     34          8           0        3.356660    1.272383   -1.943094
 ---------------------------------------------------------------------

 SCF Done:  E(RHF) =  -669.535730112     A.U. after   15 cycles
 E2 =    -0.2092513493D+01 EUMP2 =    -0.67162824360510D+03

 The electronic state is 1-A.
 Alpha  occ. eigenvalues --  -20.60861 -20.60856 -15.85904 -11.31242 -11.27809
 Alpha  occ. eigenvalues --  -11.27792 -11.27550 -11.26825 -11.26815 -11.21818
 Alpha  occ. eigenvalues --  -11.21714 -11.21601 -11.21520 -11.21193 -11.21170
 Alpha  occ. eigenvalues --   -1.59928  -1.39484  -1.19415  -1.08815  -1.08630
 Alpha  occ. eigenvalues --   -1.04816  -1.03673  -0.96130  -0.95654  -0.87145
 Alpha  occ. eigenvalues --   -0.86217  -0.82487  -0.79721  -0.78429  -0.77540
 Alpha  occ. eigenvalues --   -0.72126  -0.71246  -0.70537  -0.65365  -0.65067
 Alpha  occ. eigenvalues --   -0.64780  -0.62193  -0.61027  -0.59480  -0.57720
 Alpha  occ. eigenvalues --   -0.55444  -0.55316  -0.53143  -0.52925  -0.52783
 Alpha  occ. eigenvalues --   -0.52538  -0.50087  -0.48902  -0.48875  -0.48017
 Alpha  occ. eigenvalues --   -0.46756  -0.45973  -0.45879  -0.44889  -0.43939
 Alpha  occ. eigenvalues --   -0.37395  -0.36415
 Alpha virt. eigenvalues --    0.04980   0.11208   0.16475   0.18748   0.23070
 Alpha virt. eigenvalues --    0.23913   0.25241   0.26203   0.27783   0.28275
 Alpha virt. eigenvalues --    0.30079   0.30463   0.31432   0.31719   0.31898

 Mulliken charges:
               1
     1  C   -0.298843
     2  C   -0.314757
     3  C   -0.474983
     4  H    0.151757
     5  H    0.136081
     6  H    0.157910
     7  H    0.168362
     8  H    0.147212
     9  H    0.155118
    10  H    0.166705
    11  C   -0.299533
    12  C   -0.298654
    13  C   -0.475908
    14  H    0.153709
    15  H    0.152587
    16  H    0.152257
    17  H    0.146499
    18  H    0.156648
    19  H    0.157202
    20  H    0.159543
    21  C   -0.170218
    22  C   -0.219063
    23  C   -0.169625
    24  C    0.155569
    25  C   -0.176927
    26  C   -0.223901
    27  H    0.225977
    28  H    0.223723
    29  H    0.275781
    30  H    0.290257
    31  H    0.224777
    32  N    0.488601
    33  O   -0.464415
    34  O   -0.459452
 Sum of Mulliken charges =  -0.00000

 Dipole moment (field-independent basis, Debye):
    X=              0.0881    Y=             -3.6397    Z=              3.4821  Tot=              5.0379
 Quadrupole moment (field-independent basis, Debye-Ang):
   XX=            -88.8510   YY=            -95.8940   ZZ=            -97.1775
   XY=            -11.2481   XZ=              7.6211   YZ=              0.6904

 Normal termination of Gaussian 16 at Thu May  6 20:30:36 2021.
