 Gaussian 16, Revision A.03,
 Gaussian 16:  EM64L-G16RevA.03 25-Dec-2016

 -------------
 #p 6-31g* mp2
 -------------

 ------------------------------------------------------
 Input file generated by CHIRIPA (05-May-2021 14:57:27)
 ------------------------------------------------------
 Symbolic Z-matrix:
 Charge =  0 Multiplicity = 1

                         Standard orientation:
 ---------------------------------------------------------------------
 Center     Atomic      Atomic             Coordinates (Angstroms)
 Number     Number       Type             X           Y           Z
 ---------------------------------------------------------------------
      1          6           0       -3.976996    2.004449    0.502649
      2          6           0       -2.730178    2.217311   -0.094558
      3          6           0       -1.976374    1.139271   -0.568011
      4          6           0       -2.502162   -0.144103   -0.427338
      5          6           0       -3.741114   -0.388531    0.163036
      6          6           0       -4.477602    0.704499    0.629316
      7          1           0       -4.555843    2.847719    0.867653
      8          1           0       -2.338902    3.225778   -0.194268
      9          1           0       -1.008233    1.275518   -1.034441
     10          1           0       -4.104824   -1.405319    0.248329
     11          1           0       -5.445594    0.536196    1.092686
     12          7           0       -1.713309   -1.293310   -0.924765
     13          8           0       -2.198761   -2.414257   -0.788926
     14          8           0       -0.624492   -1.051352   -1.441070
     15          6           0        3.954412    1.567881   -1.074240
     16          6           0        3.616035    0.307460   -1.577587
     17          6           0        2.883684   -0.594435   -0.799901
     18          6           0        2.504345   -0.201257    0.482598
     19          6           0        2.826195    1.047399    1.012278
     20          6           0        3.559109    1.933184    0.216810
     21          1           0        4.523539    2.262238   -1.685272
     22          1           0        3.921691    0.021059   -2.579882
     23          1           0        2.608237   -1.576505   -1.164708
     24          1           0        2.507360    1.304423    2.015124
     25          1           0        3.820485    2.911384    0.610323
     26          7           0        1.728740   -1.147526    1.315312
     27          8           0        1.406480   -0.777094    2.442062
     28          8           0        1.457765   -2.241724    0.825474
 ---------------------------------------------------------------------

 SCF Done:  E(RHF) =  -868.337720109     A.U. after   16 cycles
 E2 =    -0.2601294583D+01 EUMP2 =    -0.87093901469204D+03

 The electronic state is 1-A.
 Alpha  occ. eigenvalues --  -20.60372 -20.60311 -20.60034 -20.59913 -15.85394
 Alpha  occ. eigenvalues --  -15.85015 -11.30838 -11.30493 -11.27457 -11.27389
 Alpha  occ. eigenvalues --  -11.27207 -11.27196 -11.26985 -11.26956 -11.26496
 Alpha  occ. eigenvalues --  -11.26440 -11.26245 -11.26098  -1.59384  -1.59048
 Alpha  occ. eigenvalues --   -1.38954  -1.38588  -1.19017  -1.18714  -1.08401
 Alpha  occ. eigenvalues --   -1.08101  -1.04444  -1.04134  -0.95229  -0.94904
 Alpha  occ. eigenvalues --   -0.85843  -0.85524  -0.82074  -0.81734  -0.77104
 Alpha  occ. eigenvalues --   -0.76740  -0.71664  -0.71253  -0.70863  -0.70168
 Alpha  occ. eigenvalues --   -0.70145  -0.69833  -0.64687  -0.64465  -0.64366
 Alpha  occ. eigenvalues --   -0.64150  -0.61801  -0.61459  -0.54954  -0.54675
 Alpha  occ. eigenvalues --   -0.52752  -0.52568  -0.52458  -0.52227  -0.48411
 Alpha  occ. eigenvalues --   -0.48352  -0.48039  -0.47958  -0.44547  -0.43738
 Alpha  occ. eigenvalues --   -0.36997  -0.36734  -0.36045  -0.35731
 Alpha virt. eigenvalues --    0.05442   0.05801   0.11596   0.11920   0.16910
 Alpha virt. eigenvalues --    0.17244   0.21663   0.21972   0.27545   0.27874
 Alpha virt. eigenvalues --    0.28539   0.28932   0.31118   0.31488   0.32734

 Mulliken charges:
               1
     1  C   -0.170694
     2  C   -0.217957
     3  C   -0.172022
     4  C    0.161310
     5  C   -0.168673
     6  C   -0.218033
     7  H    0.224111
     8  H    0.220216
     9  H    0.272395
    10  H    0.276916
    11  H    0.223103
    12  N    0.492491
    13  O   -0.453242
    14  O   -0.469257
    15  C   -0.172444
    16  C   -0.221703
    17  C   -0.157509
    18  C    0.156717
    19  C   -0.175233
    20  C   -0.221614
    21  H    0.222240
    22  H    0.223140
    23  H    0.285918
    24  H    0.271916
    25  H    0.218724
    26  N    0.485988
    27  O   -0.469716
    28  O   -0.447088
 Sum of Mulliken charges =  -0.00000

 Dipole moment (field-independent basis, Debye):
    X=             -0.2277    Y=              6.9216    Z=             -1.3020  Tot=              7.0467
 Quadrupole moment (field-independent basis, Debye-Ang):
   XX=            -76.0868   YY=           -103.7649   ZZ=           -107.4985
   XY=              0.1311   XZ=            -11.2554   YZ=              2.1624

 Normal termination of Gaussian 16 at Thu May  6 08:24:35 2021.
