 Gaussian 16, Revision A.03,
 Gaussian 16:  EM64L-G16RevA.03 25-Dec-2016

 -------------
 #p 6-31g* mp2
 -------------

 ------------------------------------------------------
 Input file generated by CHIRIPA (05-May-2021 14:51:13)
 ------------------------------------------------------
 Symbolic Z-matrix:
 Charge =  0 Multiplicity = 1

                         Standard orientation:
 ---------------------------------------------------------------------
 Center     Atomic      Atomic             Coordinates (Angstroms)
 Number     Number       Type             X           Y           Z
 ---------------------------------------------------------------------
      1          6           0       -2.596561   -1.375773    0.285610
      2          6           0       -1.197071   -1.963521    0.101310
      3          6           0       -1.089484   -3.403168    0.604933
      4          1           0       -2.866388   -1.414569    1.349862
      5          1           0       -3.324059   -2.005976   -0.244470
      6          1           0       -0.472257   -1.331624    0.630429
      7          1           0       -0.930467   -1.923146   -0.962601
      8          1           0       -1.790329   -4.051936    0.069661
      9          1           0       -1.329516   -3.457053    1.671742
     10          1           0       -0.080783   -3.803641    0.463499
     11          6           0       -2.719929    0.062902   -0.213112
     12          6           0       -4.119419    0.650649   -0.028813
     13          6           0       -4.227006    2.090296   -0.532435
     14          1           0       -1.992431    0.693104    0.316968
     15          1           0       -2.450102    0.101697   -1.277365
     16          1           0       -4.386023    0.610274    1.035099
     17          1           0       -4.844233    0.018752   -0.557931
     18          1           0       -3.986974    2.144181   -1.599244
     19          1           0       -3.526160    2.739064    0.002837
     20          1           0       -5.235707    2.490769   -0.391001
     21          6           0        2.122284    1.200642   -0.032092
     22          6           0        2.655554    2.573772    0.377937
     23          6           0        1.571487    3.652001    0.381476
     24          1           0        1.671649    1.272817   -1.031423
     25          1           0        1.315463    0.908463    0.654251
     26          1           0        3.462065    2.862659   -0.308138
     27          1           0        3.105143    2.498277    1.376329
     28          1           0        0.769897    3.390065    1.079649
     29          1           0        1.128848    3.756519   -0.614390
     30          1           0        1.974529    4.625552    0.677475
     31          6           0        3.194206    0.112229   -0.040406
     32          6           0        2.660936   -1.260899   -0.450435
     33          6           0        3.745003   -2.339130   -0.453973
     34          1           0        4.001027    0.404409   -0.726749
     35          1           0        3.644841    0.040054    0.958926
     36          1           0        2.211348   -1.185406   -1.448828
     37          1           0        1.854425   -1.549788    0.235640
     38          1           0        4.187642   -2.443648    0.541892
     39          1           0        4.546591   -2.077194   -1.152147
     40          1           0        3.341960   -3.312681   -0.749973
 ---------------------------------------------------------------------

 SCF Done:  E(RHF) =  -470.732901424     A.U. after   11 cycles
 E2 =    -0.1583821398D+01 EUMP2 =    -0.47231672282204D+03

 The electronic state is 1-A.
 Alpha  occ. eigenvalues --  -11.21608 -11.21582 -11.21550 -11.21520 -11.21399
 Alpha  occ. eigenvalues --  -11.21378 -11.21336 -11.21318 -11.21084 -11.21072
 Alpha  occ. eigenvalues --  -11.21050 -11.21048  -1.08447  -1.08382  -1.03557
 Alpha  occ. eigenvalues --   -1.03473  -0.95984  -0.95951  -0.86995  -0.86970
 Alpha  occ. eigenvalues --   -0.79713  -0.79468  -0.78398  -0.78037  -0.65162
 Alpha  occ. eigenvalues --   -0.64945  -0.61022  -0.60825  -0.59478  -0.59203
 Alpha  occ. eigenvalues --   -0.57682  -0.57460  -0.55273  -0.55238  -0.52696
 Alpha  occ. eigenvalues --   -0.52628  -0.52411  -0.52367  -0.49939  -0.49884
 Alpha  occ. eigenvalues --   -0.48123  -0.47715  -0.46821  -0.46485  -0.46155
 Alpha  occ. eigenvalues --   -0.45805  -0.45626  -0.45133  -0.43784  -0.43743
 Alpha virt. eigenvalues --    0.20915   0.22599   0.23526   0.24287   0.25478
 Alpha virt. eigenvalues --    0.26187   0.26650   0.27524   0.28220   0.29896
 Alpha virt. eigenvalues --    0.30820   0.30904   0.31500   0.31792   0.32472

 Mulliken charges:
               1
     1  C   -0.297911
     2  C   -0.303093
     3  C   -0.477921
     4  H    0.149084
     5  H    0.149297
     6  H    0.155321
     7  H    0.153097
     8  H    0.155501
     9  H    0.154812
    10  H    0.161280
    11  C   -0.298758
    12  C   -0.299657
    13  C   -0.475673
    14  H    0.150231
    15  H    0.149587
    16  H    0.151723
    17  H    0.151863
    18  H    0.155069
    19  H    0.155515
    20  H    0.160115
    21  C   -0.300345
    22  C   -0.299704
    23  C   -0.475556
    24  H    0.150372
    25  H    0.150647
    26  H    0.152172
    27  H    0.151770
    28  H    0.154345
    29  H    0.155681
    30  H    0.160340
    31  C   -0.298312
    32  C   -0.305787
    33  C   -0.475601
    34  H    0.149381
    35  H    0.149096
    36  H    0.151743
    37  H    0.160671
    38  H    0.154868
    39  H    0.154987
    40  H    0.159750
 Sum of Mulliken charges =  -0.00000

 Dipole moment (field-independent basis, Debye):
    X=             -0.0001    Y=              0.0049    Z=             -0.0139  Tot=              0.0148
 Quadrupole moment (field-independent basis, Debye-Ang):
   XX=            -85.3545   YY=            -86.5498   ZZ=            -83.0435
   XY=              1.0056   XZ=              0.0248   YZ=              0.3917

 Normal termination of Gaussian 16 at Thu May  6 05:34:33 2021.
