 Gaussian 16, Revision A.03,
 Gaussian 16:  EM64L-G16RevA.03 25-Dec-2016

 -------------
 #p 6-31g* mp2
 -------------

 ------------------------------------------------------
 Input file generated by CHIRIPA (05-May-2021 14:51:10)
 ------------------------------------------------------
 Symbolic Z-matrix:
 Charge =  0 Multiplicity = 1

                         Standard orientation:
 ---------------------------------------------------------------------
 Center     Atomic      Atomic             Coordinates (Angstroms)
 Number     Number       Type             X           Y           Z
 ---------------------------------------------------------------------
      1          6           0        3.999146    0.501427    0.296002
      2          6           0        5.301640    0.728610   -0.472035
      3          6           0        6.054880    1.973845   -0.003193
      4          1           0        3.355805    1.384850    0.183651
      5          1           0        4.224313    0.413013    1.367859
      6          1           0        5.074235    0.815188   -1.542273
      7          1           0        5.941875   -0.155534   -0.358001
      8          1           0        6.310413    1.892641    1.058273
      9          1           0        5.437843    2.868880   -0.132728
     10          1           0        6.982826    2.117204   -0.565532
     11          6           0        3.234777   -0.739678   -0.161302
     12          6           0        1.932283   -0.966860    0.606735
     13          6           0        1.179042   -2.212095    0.137893
     14          1           0        3.009610   -0.651263   -1.233159
     15          1           0        3.878118   -1.623100   -0.048952
     16          1           0        1.292048   -0.082716    0.492701
     17          1           0        2.159687   -1.053439    1.676972
     18          1           0        1.796079   -3.107130    0.267427
     19          1           0        0.923510   -2.130892   -0.923573
     20          1           0        0.251096   -2.355454    0.700231
     21          6           0       -3.682044   -0.618594    0.119643
     22          6           0       -2.565590   -1.490723   -0.455600
     23          6           0       -2.709597   -2.963992   -0.072800
     24          1           0       -3.687589   -0.715730    1.213937
     25          1           0       -4.651691   -0.996842   -0.232646
     26          1           0       -1.598257   -1.110104   -0.103445
     27          1           0       -2.562578   -1.391350   -1.548638
     28          1           0       -3.660263   -3.365775   -0.438046
     29          1           0       -2.690462   -3.082930    1.015360
     30          1           0       -1.901081   -3.569241   -0.494504
     31          6           0       -3.551879    0.856845   -0.254344
     32          6           0       -4.668334    1.728973    0.320901
     33          6           0       -4.524326    3.202242   -0.061900
     34          1           0       -2.582231    1.235093    0.097947
     35          1           0       -3.546335    0.953981   -1.348637
     36          1           0       -4.671344    1.629600    1.413938
     37          1           0       -5.635665    1.348354   -0.031255
     38          1           0       -4.543461    3.321180   -1.150058
     39          1           0       -3.573660    3.604024    0.303346
     40          1           0       -5.332841    3.807491    0.359805
 ---------------------------------------------------------------------

 SCF Done:  E(RHF) =  -470.732605448     A.U. after   11 cycles
 E2 =    -0.1583231165D+01 EUMP2 =    -0.47231583661296D+03

 The electronic state is 1-A.
 Alpha  occ. eigenvalues --  -11.21632 -11.21610 -11.21593 -11.21504 -11.21418
 Alpha  occ. eigenvalues --  -11.21383 -11.21358 -11.21317 -11.21078 -11.21069
 Alpha  occ. eigenvalues --  -11.21026 -11.21017  -1.08452  -1.08396  -1.03588
 Alpha  occ. eigenvalues --   -1.03460  -0.96054  -0.95895  -0.87026  -0.86954
 Alpha  occ. eigenvalues --   -0.79632  -0.79542  -0.78258  -0.78217  -0.65124
 Alpha  occ. eigenvalues --   -0.65009  -0.61102  -0.60848  -0.59551  -0.59122
 Alpha  occ. eigenvalues --   -0.57698  -0.57446  -0.55321  -0.55195  -0.52787
 Alpha  occ. eigenvalues --   -0.52540  -0.52405  -0.52324  -0.49966  -0.49864
 Alpha  occ. eigenvalues --   -0.47940  -0.47858  -0.46660  -0.46558  -0.45806
 Alpha  occ. eigenvalues --   -0.45747  -0.45726  -0.45663  -0.43781  -0.43737
 Alpha virt. eigenvalues --    0.21385   0.23109   0.23550   0.24811   0.26204
 Alpha virt. eigenvalues --    0.26679   0.26992   0.27306   0.27930   0.29131
 Alpha virt. eigenvalues --    0.30156   0.31288   0.31613   0.32187   0.32223

 Mulliken charges:
               1
     1  C   -0.298284
     2  C   -0.299665
     3  C   -0.475717
     4  H    0.149597
     5  H    0.149477
     6  H    0.152000
     7  H    0.151966
     8  H    0.155164
     9  H    0.155197
    10  H    0.160298
    11  C   -0.298353
    12  C   -0.302004
    13  C   -0.480512
    14  H    0.149800
    15  H    0.149872
    16  H    0.152032
    17  H    0.151964
    18  H    0.155260
    19  H    0.156043
    20  H    0.166391
    21  C   -0.297634
    22  C   -0.305749
    23  C   -0.478198
    24  H    0.149167
    25  H    0.149272
    26  H    0.159679
    27  H    0.151093
    28  H    0.155372
    29  H    0.153865
    30  H    0.163251
    31  C   -0.298157
    32  C   -0.299587
    33  C   -0.475692
    34  H    0.148967
    35  H    0.149496
    36  H    0.151944
    37  H    0.151983
    38  H    0.155097
    39  H    0.155052
    40  H    0.160254
 Sum of Mulliken charges =  -0.00000

 Dipole moment (field-independent basis, Debye):
    X=              0.0225    Y=             -0.0184    Z=             -0.0051  Tot=              0.0296
 Quadrupole moment (field-independent basis, Debye-Ang):
   XX=            -84.8011   YY=            -86.3920   ZZ=            -83.6877
   XY=             -0.7328   XZ=              0.6766   YZ=             -0.2327

 Normal termination of Gaussian 16 at Thu May  6 02:11:39 2021.
