 Gaussian 16, Revision A.03,
 Gaussian 16:  EM64L-G16RevA.03 25-Dec-2016

 -------------
 #p 6-31g* mp2
 -------------

 ------------------------------------------------------
 Input file generated by CHIRIPA (05-May-2021 14:57:25)
 ------------------------------------------------------
 Symbolic Z-matrix:
 Charge =  0 Multiplicity = 1

                         Standard orientation:
 ---------------------------------------------------------------------
 Center     Atomic      Atomic             Coordinates (Angstroms)
 Number     Number       Type             X           Y           Z
 ---------------------------------------------------------------------
      1          6           0        4.004641   -2.426812    0.240350
      2          6           0        3.754552   -1.815341   -0.992565
      3          6           0        3.410722   -0.461762   -1.057022
      4          6           0        3.325650    0.253573    0.136438
      5          6           0        3.568908   -0.327209    1.380146
      6          6           0        3.911185   -1.682107    1.420690
      7          1           0        4.271133   -3.478817    0.281133
      8          1           0        3.826387   -2.391225   -1.910847
      9          1           0        3.211896    0.036715   -1.997982
     10          1           0        3.489464    0.272817    2.278520
     11          1           0        4.104860   -2.154353    2.379605
     12          7           0        2.962474    1.687244    0.080859
     13          8           0        2.894141    2.295543    1.146664
     14          8           0        2.753028    2.175511   -1.027457
     15          6           0       -1.130493    0.684590   -1.033410
     16          6           0       -1.936207    1.608656   -0.360024
     17          6           0       -3.187461    1.230843    0.136130
     18          6           0       -3.603512   -0.085141   -0.059768
     19          6           0       -2.823720   -1.028917   -0.726478
     20          6           0       -1.576035   -0.628931   -1.214169
     21          1           0       -0.159875    0.986697   -1.415548
     22          1           0       -1.592768    2.629429   -0.218183
     23          1           0       -3.831477    1.925836    0.661150
     24          1           0       -3.193221   -2.039369   -0.852470
     25          1           0       -0.952430   -1.348709   -1.736740
     26          7           0       -4.926269   -0.496852    0.461009
     27          8           0       -5.269892   -1.662234    0.275418
     28          8           0       -5.594375    0.353627    1.044924
 ---------------------------------------------------------------------

 SCF Done:  E(RHF) =  -868.339550148     A.U. after   16 cycles
 E2 =    -0.2599124866D+01 EUMP2 =    -0.87093867501427D+03

 The electronic state is 1-A.
 Alpha  occ. eigenvalues --  -20.61919 -20.61861 -20.60518 -20.60507 -15.86903
 Alpha  occ. eigenvalues --  -15.85566 -11.32085 -11.30840 -11.28664 -11.28576
 Alpha  occ. eigenvalues --  -11.28293 -11.27608 -11.27540 -11.27441 -11.27354
 Alpha  occ. eigenvalues --  -11.27011 -11.26436 -11.26268  -1.60952  -1.59593
 Alpha  occ. eigenvalues --   -1.40511  -1.39149  -1.20230  -1.18993  -1.09654
 Alpha  occ. eigenvalues --   -1.08386  -1.05601  -1.04384  -0.96520  -0.95240
 Alpha  occ. eigenvalues --   -0.87005  -0.85773  -0.83355  -0.82080  -0.78437
 Alpha  occ. eigenvalues --   -0.77157  -0.73120  -0.72281  -0.71784  -0.71319
 Alpha  occ. eigenvalues --   -0.70916  -0.70031  -0.65878  -0.65589  -0.64634
 Alpha  occ. eigenvalues --   -0.64370  -0.62949  -0.61735  -0.56084  -0.54812
 Alpha  occ. eigenvalues --   -0.53942  -0.53680  -0.52720  -0.52461  -0.49901
 Alpha  occ. eigenvalues --   -0.49864  -0.48546  -0.48534  -0.45936  -0.44575
 Alpha  occ. eigenvalues --   -0.38189  -0.37204  -0.36943  -0.35998
 Alpha virt. eigenvalues --    0.04049   0.05374   0.10416   0.11664   0.15576
 Alpha virt. eigenvalues --    0.16894   0.20555   0.21863   0.26458   0.27252
 Alpha virt. eigenvalues --    0.27735   0.28548   0.30320   0.31166   0.32519

 Mulliken charges:
               1
     1  C   -0.169917
     2  C   -0.219094
     3  C   -0.176677
     4  C    0.158194
     5  C   -0.169438
     6  C   -0.217832
     7  H    0.228958
     8  H    0.225003
     9  H    0.273273
    10  H    0.278016
    11  H    0.227311
    12  N    0.487282
    13  O   -0.454357
    14  O   -0.466556
    15  C   -0.178591
    16  C   -0.219315
    17  C   -0.171637
    18  C    0.157880
    19  C   -0.172003
    20  C   -0.218570
    21  H    0.235295
    22  H    0.231709
    23  H    0.275418
    24  H    0.272729
    25  H    0.217954
    26  N    0.488150
    27  O   -0.462652
    28  O   -0.460534
 Sum of Mulliken charges =  -0.00000

 Dipole moment (field-independent basis, Debye):
    X=              6.2528    Y=             -3.5556    Z=             -1.4577  Tot=              7.3393
 Quadrupole moment (field-independent basis, Debye-Ang):
   XX=           -131.1299   YY=           -103.6257   ZZ=            -99.5850
   XY=            -23.7904   XZ=              7.7215   YZ=              1.6038

 Normal termination of Gaussian 16 at Thu May  6 08:18:59 2021.
