 Gaussian 16, Revision A.03,
 Gaussian 16:  EM64L-G16RevA.03 25-Dec-2016

 -------------
 #p 6-31g* mp2
 -------------

 ------------------------------------------------------
 Input file generated by CHIRIPA (05-May-2021 14:57:22)
 ------------------------------------------------------
 Symbolic Z-matrix:
 Charge =  0 Multiplicity = 1

                         Standard orientation:
 ---------------------------------------------------------------------
 Center     Atomic      Atomic             Coordinates (Angstroms)
 Number     Number       Type             X           Y           Z
 ---------------------------------------------------------------------
      1          6           0       -3.135503   -2.162902    0.511278
      2          6           0       -2.361841   -1.005494    0.375726
      3          6           0       -2.966511    0.224427    0.099654
      4          6           0       -4.353518    0.260752   -0.035192
      5          6           0       -5.151546   -0.874896    0.094210
      6          6           0       -4.525436   -2.094030    0.370336
      7          1           0       -2.657453   -3.114145    0.725758
      8          1           0       -1.282199   -1.055994    0.484667
      9          1           0       -2.391576    1.135901   -0.010272
     10          1           0       -6.225660   -0.793083   -0.019824
     11          1           0       -5.128789   -2.991269    0.475084
     12          7           0       -5.005004    1.557105   -0.327486
     13          8           0       -6.228753    1.562537   -0.441696
     14          8           0       -4.279552    2.543208   -0.436840
     15          6           0        6.352986    1.333128    0.135739
     16          6           0        5.243083    1.663177    0.920406
     17          6           0        4.070507    0.905479    0.846187
     18          6           0        4.042463   -0.180533   -0.027359
     19          6           0        5.131688   -0.534605   -0.822037
     20          6           0        6.293851    0.237223   -0.731450
     21          1           0        7.259827    1.927214    0.199752
     22          1           0        5.286153    2.513728    1.594759
     23          1           0        3.196609    1.138724    1.442271
     24          1           0        5.058663   -1.388193   -1.484964
     25          1           0        7.154282   -0.021431   -1.342025
     26          7           0        2.806622   -0.990153   -0.114596
     27          8           0        2.807318   -1.942104   -0.892044
     28          8           0        1.860672   -0.657451    0.596127
 ---------------------------------------------------------------------

 SCF Done:  E(RHF) =  -868.340746673     A.U. after   16 cycles
 E2 =    -0.2598094828D+01 EUMP2 =    -0.87093884150186D+03

 The electronic state is 1-A.
 Alpha  occ. eigenvalues --  -20.61701 -20.61686 -20.60069 -20.60064 -15.86709
 Alpha  occ. eigenvalues --  -15.85110 -11.31771 -11.30268 -11.28303 -11.28296
 Alpha  occ. eigenvalues --  -11.27985 -11.27246 -11.27236 -11.26833 -11.26711
 Alpha  occ. eigenvalues --  -11.26424 -11.25831 -11.25509  -1.60747  -1.59148
 Alpha  occ. eigenvalues --   -1.40309  -1.38707  -1.19913  -1.18389  -1.09365
 Alpha  occ. eigenvalues --   -1.07816  -1.05269  -1.03737  -0.96251  -0.94698
 Alpha  occ. eigenvalues --   -0.86681  -0.85137  -0.83096  -0.81522  -0.78174
 Alpha  occ. eigenvalues --   -0.76603  -0.72948  -0.72039  -0.71336  -0.71016
 Alpha  occ. eigenvalues --   -0.70467  -0.69493  -0.65570  -0.65268  -0.64025
 Alpha  occ. eigenvalues --   -0.63682  -0.62619  -0.61065  -0.55780  -0.54232
 Alpha  occ. eigenvalues --   -0.53614  -0.53356  -0.52110  -0.51788  -0.49708
 Alpha  occ. eigenvalues --   -0.49667  -0.48103  -0.48066  -0.45778  -0.44160
 Alpha  occ. eigenvalues --   -0.37873  -0.36857  -0.36363  -0.35342
 Alpha virt. eigenvalues --    0.04337   0.05881   0.10802   0.12310   0.15893
 Alpha virt. eigenvalues --    0.17449   0.20967   0.22586   0.26906   0.27778
 Alpha virt. eigenvalues --    0.28605   0.29314   0.30568   0.31920   0.32288

 Mulliken charges:
               1
     1  C   -0.172535
     2  C   -0.228185
     3  C   -0.174091
     4  C    0.158195
     5  C   -0.173478
     6  C   -0.218654
     7  H    0.227068
     8  H    0.250189
     9  H    0.273875
    10  H    0.272008
    11  H    0.219941
    12  N    0.488182
    13  O   -0.463298
    14  O   -0.462832
    15  C   -0.169638
    16  C   -0.218409
    17  C   -0.170350
    18  C    0.157520
    19  C   -0.170184
    20  C   -0.218541
    21  H    0.227958
    22  H    0.225823
    23  H    0.275263
    24  H    0.276178
    25  H    0.225359
    26  N    0.491136
    27  O   -0.457784
    28  O   -0.470715
 Sum of Mulliken charges =  -0.00000

 Dipole moment (field-independent basis, Debye):
    X=              7.2658    Y=             -1.7568    Z=              1.3360  Tot=              7.5936
 Quadrupole moment (field-independent basis, Debye-Ang):
   XX=            -85.5769   YY=           -106.4680   ZZ=           -103.8997
   XY=             32.7540   XZ=             -5.3008   YZ=              2.7638

 Normal termination of Gaussian 16 at Thu May  6 14:31:20 2021.
