 Gaussian 16, Revision A.03,
 Gaussian 16:  EM64L-G16RevA.03 25-Dec-2016

 -------------
 #p 6-31g* mp2
 -------------

 ------------------------------------------------------
 Input file generated by CHIRIPA (05-May-2021 14:57:25)
 ------------------------------------------------------
 Symbolic Z-matrix:
 Charge =  0 Multiplicity = 1

                         Standard orientation:
 ---------------------------------------------------------------------
 Center     Atomic      Atomic             Coordinates (Angstroms)
 Number     Number       Type             X           Y           Z
 ---------------------------------------------------------------------
      1          6           0        1.574591   -1.686720    0.426231
      2          6           0        2.413636   -1.352951    1.494464
      3          6           0        3.536690   -0.545833    1.289872
      4          6           0        3.791948   -0.087839   -0.001784
      5          6           0        2.974989   -0.402994   -1.086471
      6          6           0        1.857447   -1.211514   -0.858562
      7          1           0        0.704317   -2.314254    0.594219
      8          1           0        2.196423   -1.720572    2.493323
      9          1           0        4.203018   -0.272098    2.098880
     10          1           0        3.217400   -0.021459   -2.070892
     11          1           0        1.207591   -1.469116   -1.690051
     12          7           0        4.977957    0.767364   -0.230718
     13          8           0        5.180987    1.158132   -1.378201
     14          8           0        5.682063    1.030710    0.741660
     15          6           0       -3.751607   -2.273271   -0.321545
     16          6           0       -2.507023   -1.637711   -0.381506
     17          6           0       -2.409163   -0.251939   -0.224639
     18          6           0       -3.581481    0.470676   -0.008337
     19          6           0       -4.836066   -0.133562    0.056513
     20          6           0       -4.910114   -1.520496   -0.103111
     21          1           0       -3.818378   -3.350223   -0.444473
     22          1           0       -1.605640   -2.219792   -0.551021
     23          1           0       -1.458509    0.265668   -0.266552
     24          1           0       -5.716998    0.473384    0.226787
     25          1           0       -5.878021   -2.011400   -0.056072
     26          7           0       -3.490486    1.938346    0.159191
     27          8           0       -4.538168    2.552430    0.348661
     28          8           0       -2.373204    2.446831    0.097855
 ---------------------------------------------------------------------

 SCF Done:  E(RHF) =  -868.336522863     A.U. after   16 cycles
 E2 =    -0.2600363877D+01 EUMP2 =    -0.87093688673971D+03

 The electronic state is 1-A.
 Alpha  occ. eigenvalues --  -20.61233 -20.61227 -20.60985 -20.60980 -15.86296
 Alpha  occ. eigenvalues --  -15.86045 -11.31823 -11.31589 -11.28467 -11.28411
 Alpha  occ. eigenvalues --  -11.28248 -11.28199 -11.28153 -11.28097 -11.27621
 Alpha  occ. eigenvalues --  -11.27429 -11.27354 -11.27237  -1.60307  -1.60055
 Alpha  occ. eigenvalues --   -1.39855  -1.39604  -1.20040  -1.19798  -1.09405
 Alpha  occ. eigenvalues --   -1.09194  -1.05487  -1.05221  -0.96201  -0.95989
 Alpha  occ. eigenvalues --   -0.86876  -0.86635  -0.83054  -0.82801  -0.78067
 Alpha  occ. eigenvalues --   -0.77791  -0.72508  -0.72265  -0.71636  -0.71375
 Alpha  occ. eigenvalues --   -0.71148  -0.70983  -0.65702  -0.65575  -0.65449
 Alpha  occ. eigenvalues --   -0.65223  -0.62841  -0.62538  -0.56011  -0.55800
 Alpha  occ. eigenvalues --   -0.53786  -0.53593  -0.53518  -0.53328  -0.49283
 Alpha  occ. eigenvalues --   -0.49252  -0.49038  -0.49004  -0.45224  -0.44969
 Alpha  occ. eigenvalues --   -0.38028  -0.37840  -0.37088  -0.36805
 Alpha virt. eigenvalues --    0.04474   0.04750   0.10529   0.10739   0.15834
 Alpha virt. eigenvalues --    0.16189   0.18082   0.22021   0.24914   0.26911
 Alpha virt. eigenvalues --    0.27713   0.28692   0.30196   0.31257   0.31854

 Mulliken charges:
               1
     1  C   -0.175330
     2  C   -0.216713
     3  C   -0.168919
     4  C    0.160030
     5  C   -0.167934
     6  C   -0.222418
     7  H    0.219552
     8  H    0.225717
     9  H    0.278252
    10  H    0.278392
    11  H    0.219662
    12  N    0.488118
    13  O   -0.458433
    14  O   -0.458424
    15  C   -0.170247
    16  C   -0.223281
    17  C   -0.172616
    18  C    0.159010
    19  C   -0.169117
    20  C   -0.218664
    21  H    0.226463
    22  H    0.213440
    23  H    0.278346
    24  H    0.278136
    25  H    0.225842
    26  N    0.487866
    27  O   -0.458596
    28  O   -0.458135
 Sum of Mulliken charges =  -0.00000

 Dipole moment (field-independent basis, Debye):
    X=             -4.4360    Y=             -7.9747    Z=              0.2869  Tot=              9.1300
 Quadrupole moment (field-independent basis, Debye-Ang):
   XX=           -127.7064   YY=           -110.7586   ZZ=           -100.7598
   XY=              7.1176   XZ=              5.9067   YZ=             -0.7027

 Normal termination of Gaussian 16 at Fri May  7 11:09:28 2021.
