 Gaussian 16, Revision A.03,
 Gaussian 16:  EM64L-G16RevA.03 25-Dec-2016

 -------------
 #p 6-31g* mp2
 -------------

 ------------------------------------------------------
 Input file generated by CHIRIPA (05-May-2021 14:51:08)
 ------------------------------------------------------
 Symbolic Z-matrix:
 Charge =  0 Multiplicity = 1

                         Standard orientation:
 ---------------------------------------------------------------------
 Center     Atomic      Atomic             Coordinates (Angstroms)
 Number     Number       Type             X           Y           Z
 ---------------------------------------------------------------------
      1          6           0       -2.782262    0.284673    0.627081
      2          6           0       -1.691041   -0.679139    1.094293
      3          6           0       -0.519814    0.035946    1.768590
      4          1           0       -2.345420    1.013180   -0.069620
      5          1           0       -3.149094    0.858148    1.489609
      6          1           0       -1.327345   -1.251605    0.231377
      7          1           0       -2.130573   -1.405554    1.789814
      8          1           0       -0.862519    0.593161    2.646465
      9          1           0       -0.054728    0.747985    1.079174
     10          1           0        0.248643   -0.671839    2.094740
     11          6           0       -3.959867   -0.415242   -0.049005
     12          6           0       -5.051088    0.548570   -0.516218
     13          6           0       -6.222315   -0.166514   -1.190515
     14          1           0       -3.593035   -0.988717   -0.911534
     15          1           0       -4.396709   -1.143749    0.647695
     16          1           0       -4.611557    1.274986   -1.211739
     17          1           0       -5.414785    1.121036    0.346698
     18          1           0       -6.687402   -0.878554   -0.501099
     19          1           0       -5.879610   -0.723730   -2.068390
     20          1           0       -6.990772    0.541270   -1.516664
     21          6           0        3.581564    0.750282   -0.553424
     22          6           0        2.893480    1.913747    0.161332
     23          6           0        3.324877    3.277569   -0.378743
     24          1           0        4.670161    0.858559   -0.452539
     25          1           0        3.360101    0.806826   -1.628204
     26          1           0        3.115040    1.854233    1.234638
     27          1           0        1.806390    1.802584    0.058897
     28          1           0        3.088766    3.362128   -1.444436
     29          1           0        4.404851    3.414071   -0.262014
     30          1           0        2.820891    4.094992    0.146307
     31          6           0        3.160566   -0.619713   -0.024652
     32          6           0        3.848649   -1.783178   -0.739407
     33          6           0        3.417252   -3.146999   -0.199332
     34          1           0        3.382029   -0.676258    1.050128
     35          1           0        2.071968   -0.727991   -0.125537
     36          1           0        4.935739   -1.672015   -0.636972
     37          1           0        3.627089   -1.723665   -1.812713
     38          1           0        2.337279   -3.283502   -0.316061
     39          1           0        3.653364   -3.231559    0.866361
     40          1           0        3.921238   -3.964423   -0.724382
 ---------------------------------------------------------------------

 SCF Done:  E(RHF) =  -470.732906681     A.U. after   11 cycles
 E2 =    -0.1583297278D+01 EUMP2 =    -0.47231620395947D+03

 The electronic state is 1-A.
 Alpha  occ. eigenvalues --  -11.21612 -11.21603 -11.21587 -11.21575 -11.21416
 Alpha  occ. eigenvalues --  -11.21380 -11.21357 -11.21313 -11.21080 -11.21070
 Alpha  occ. eigenvalues --  -11.21061 -11.20989  -1.08447  -1.08405  -1.03535
 Alpha  occ. eigenvalues --   -1.03513  -0.95989  -0.95952  -0.86994  -0.86983
 Alpha  occ. eigenvalues --   -0.79643  -0.79545  -0.78284  -0.78185  -0.65151
 Alpha  occ. eigenvalues --   -0.64980  -0.60990  -0.60870  -0.59376  -0.59309
 Alpha  occ. eigenvalues --   -0.57648  -0.57511  -0.55304  -0.55233  -0.52725
 Alpha  occ. eigenvalues --   -0.52624  -0.52468  -0.52309  -0.49989  -0.49889
 Alpha  occ. eigenvalues --   -0.48056  -0.47764  -0.46785  -0.46516  -0.45872
 Alpha  occ. eigenvalues --   -0.45743  -0.45714  -0.45454  -0.43789  -0.43744
 Alpha virt. eigenvalues --    0.21134   0.23210   0.23868   0.24001   0.26038
 Alpha virt. eigenvalues --    0.26594   0.27070   0.27360   0.27964   0.29592
 Alpha virt. eigenvalues --    0.30071   0.31482   0.31615   0.31795   0.32129

 Mulliken charges:
               1
     1  C   -0.298142
     2  C   -0.300577
     3  C   -0.481895
     4  H    0.149023
     5  H    0.149797
     6  H    0.150993
     7  H    0.152149
     8  H    0.154683
     9  H    0.160738
    10  H    0.162404
    11  C   -0.298238
    12  C   -0.299657
    13  C   -0.475707
    14  H    0.149321
    15  H    0.149787
    16  H    0.151859
    17  H    0.151998
    18  H    0.155231
    19  H    0.155140
    20  H    0.160286
    21  C   -0.298232
    22  C   -0.304310
    23  C   -0.475265
    24  H    0.149581
    25  H    0.148873
    26  H    0.152634
    27  H    0.156333
    28  H    0.154755
    29  H    0.155192
    30  H    0.160296
    31  C   -0.301685
    32  C   -0.299596
    33  C   -0.475738
    34  H    0.149432
    35  H    0.154745
    36  H    0.151870
    37  H    0.151588
    38  H    0.154979
    39  H    0.155072
    40  H    0.160281
 Sum of Mulliken charges =  -0.00000

 Dipole moment (field-independent basis, Debye):
    X=              0.0063    Y=              0.0066    Z=              0.0176  Tot=              0.0198
 Quadrupole moment (field-independent basis, Debye-Ang):
   XX=            -84.9250   YY=            -86.0935   ZZ=            -83.8247
   XY=             -0.4925   XZ=             -0.2656   YZ=              0.0551

 Normal termination of Gaussian 16 at Wed May  5 16:36:00 2021.
