 Gaussian 16, Revision A.03,
 Gaussian 16:  EM64L-G16RevA.03 25-Dec-2016

 -------------
 #p 6-31g* mp2
 -------------

 ------------------------------------------------------
 Input file generated by CHIRIPA (05-May-2021 14:55:24)
 ------------------------------------------------------
 Symbolic Z-matrix:
 Charge =  0 Multiplicity = 1

                         Standard orientation:
 ---------------------------------------------------------------------
 Center     Atomic      Atomic             Coordinates (Angstroms)
 Number     Number       Type             X           Y           Z
 ---------------------------------------------------------------------
      1          6           0       -1.530455   -2.224352    1.552045
      2          6           0       -2.108508   -1.027129    1.986824
      3          6           0       -2.327108    0.022635    1.089742
      4          6           0       -1.953884   -0.159837   -0.240934
      5          6           0       -1.375908   -1.340618   -0.704603
      6          6           0       -1.166642   -2.377007    0.210085
      7          1           0       -1.364267   -3.034639    2.255759
      8          1           0       -2.392045   -0.905766    3.028421
      9          1           0       -2.772811    0.960111    1.399431
     10          1           0       -1.103739   -1.431993   -1.749109
     11          1           0       -0.717529   -3.305672   -0.130390
     12          7           0       -2.180366    0.944421   -1.199954
     13          8           0       -1.842712    0.758667   -2.367054
     14          8           0       -2.691247    1.974783   -0.766375
     15          6           0        2.063269    0.905019    0.567449
     16          6           0        2.315510    2.386189    0.283737
     17          6           0        1.528421    3.308841    1.214865
     18          1           0        0.988929    0.697258    0.469603
     19          1           0        2.329769    0.688205    1.611175
     20          1           0        2.049918    2.599845   -0.759541
     21          1           0        3.389400    2.590407    0.382082
     22          1           0        1.799725    3.124559    2.259391
     23          1           0        0.452633    3.134052    1.111282
     24          1           0        1.723618    4.362987    0.994553
     25          6           0        2.843117   -0.029928   -0.355287
     26          6           0        2.590877   -1.511099   -0.071575
     27          6           0        3.377965   -2.433751   -1.002703
     28          1           0        2.576617    0.186885   -1.399014
     29          1           0        3.917457    0.177832   -0.257441
     30          1           0        1.516987   -1.715317   -0.169920
     31          1           0        2.856467   -1.724756    0.971703
     32          1           0        4.453753   -2.258961   -0.899120
     33          1           0        3.106661   -2.249469   -2.047230
     34          1           0        3.182768   -3.487897   -0.782391
 ---------------------------------------------------------------------

 SCF Done:  E(RHF) =  -669.534626740     A.U. after   15 cycles
 E2 =    -0.2094986236D+01 EUMP2 =    -0.67162961297628D+03

 The electronic state is 1-A.
 Alpha  occ. eigenvalues --  -20.60915 -20.60909 -15.85964 -11.31335 -11.27893
 Alpha  occ. eigenvalues --  -11.27888 -11.27614 -11.26904 -11.26892 -11.21670
 Alpha  occ. eigenvalues --  -11.21358 -11.21339 -11.21335 -11.21233 -11.20780
 Alpha  occ. eigenvalues --   -1.59988  -1.39540  -1.19519  -1.08900  -1.08376
 Alpha  occ. eigenvalues --   -1.04922  -1.03488  -0.95945  -0.95732  -0.86962
 Alpha  occ. eigenvalues --   -0.86304  -0.82569  -0.79568  -0.78184  -0.77609
 Alpha  occ. eigenvalues --   -0.72178  -0.71319  -0.70596  -0.65176  -0.65032
 Alpha  occ. eigenvalues --   -0.64891  -0.62263  -0.60891  -0.59343  -0.57553
 Alpha  occ. eigenvalues --   -0.55392  -0.55238  -0.53341  -0.52991  -0.52619
 Alpha  occ. eigenvalues --   -0.52376  -0.49900  -0.48940  -0.48934  -0.47894
 Alpha  occ. eigenvalues --   -0.46621  -0.45684  -0.45579  -0.44935  -0.43731
 Alpha  occ. eigenvalues --   -0.37453  -0.36395
 Alpha virt. eigenvalues --    0.04895   0.11076   0.16307   0.20946   0.22891
 Alpha virt. eigenvalues --    0.24097   0.26442   0.27206   0.27563   0.27985
 Alpha virt. eigenvalues --    0.28363   0.30496   0.31261   0.31813   0.32323

 Mulliken charges:
               1
     1  C   -0.170173
     2  C   -0.216824
     3  C   -0.172595
     4  C    0.160744
     5  C   -0.172386
     6  C   -0.217242
     7  H    0.226628
     8  H    0.224403
     9  H    0.276340
    10  H    0.276450
    11  H    0.225794
    12  N    0.487833
    13  O   -0.460088
    14  O   -0.460139
    15  C   -0.301257
    16  C   -0.300888
    17  C   -0.476341
    18  H    0.151298
    19  H    0.146200
    20  H    0.157915
    21  H    0.150393
    22  H    0.150894
    23  H    0.158626
    24  H    0.162053
    25  C   -0.298304
    26  C   -0.307603
    27  C   -0.475779
    28  H    0.152778
    29  H    0.149525
    30  H    0.155542
    31  H    0.148700
    32  H    0.157397
    33  H    0.155724
    34  H    0.154382
 Sum of Mulliken charges =  -0.00000

 Dipole moment (field-independent basis, Debye):
    X=              0.6347    Y=             -3.8437    Z=              3.3651  Tot=              5.1478
 Quadrupole moment (field-independent basis, Debye-Ang):
   XX=            -97.6872   YY=            -93.0286   ZZ=            -93.9029
   XY=              6.9740   XZ=             -7.9192   YZ=              1.9894

 Normal termination of Gaussian 16 at Thu May  6 16:02:36 2021.
