 Gaussian 16, Revision A.03,
 Gaussian 16:  EM64L-G16RevA.03 25-Dec-2016

 -------------
 #p 6-31g* mp2
 -------------

 ------------------------------------------------------
 Input file generated by CHIRIPA (05-May-2021 14:55:19)
 ------------------------------------------------------
 Symbolic Z-matrix:
 Charge =  0 Multiplicity = 1

                         Standard orientation:
 ---------------------------------------------------------------------
 Center     Atomic      Atomic             Coordinates (Angstroms)
 Number     Number       Type             X           Y           Z
 ---------------------------------------------------------------------
      1          6           0        5.240403   -1.613577    0.458151
      2          6           0        3.932435   -2.105630    0.518366
      3          6           0        2.848911   -1.283284    0.195455
      4          6           0        3.110919    0.031872   -0.185345
      5          6           0        4.402651    0.551360   -0.254979
      6          6           0        5.470930   -0.288987    0.072351
      7          1           0        6.076189   -2.259387    0.710713
      8          1           0        3.750415   -3.133901    0.817652
      9          1           0        1.826243   -1.638411    0.233565
     10          1           0        4.552593    1.580841   -0.556813
     11          1           0        6.485658    0.095852    0.024696
     12          7           0        1.971910    0.911981   -0.529536
     13          8           0        2.229338    2.066878   -0.862074
     14          8           0        0.843295    0.430250   -0.460256
     15          6           0       -4.371373   -0.596644    0.058085
     16          6           0       -5.841904   -0.881383   -0.249239
     17          6           0       -6.124471   -2.369193   -0.459885
     18          1           0       -3.751116   -0.976122   -0.765457
     19          1           0       -4.076327   -1.157532    0.955720
     20          1           0       -6.134465   -0.319042   -1.145229
     21          1           0       -6.458747   -0.501012    0.575042
     22          1           0       -5.859941   -2.942005    0.434827
     23          1           0       -5.533817   -2.759001   -1.295217
     24          1           0       -7.181561   -2.550082   -0.678288
     25          6           0       -4.073148    0.886387    0.271178
     26          6           0       -2.602617    1.171127    0.578503
     27          6           0       -2.320050    2.658936    0.789149
     28          1           0       -4.368195    1.447275   -0.626457
     29          1           0       -4.693405    1.265866    1.094721
     30          1           0       -1.985774    0.790755   -0.245778
     31          1           0       -2.310057    0.608785    1.474491
     32          1           0       -2.910704    3.048744    1.624480
     33          1           0       -2.584579    3.231748   -0.105564
     34          1           0       -1.262960    2.839826    1.007552
 ---------------------------------------------------------------------

 SCF Done:  E(RHF) =  -669.536093125     A.U. after   15 cycles
 E2 =    -0.2091033156D+01 EUMP2 =    -0.67162712628172D+03

 The electronic state is 1-A.
 Alpha  occ. eigenvalues --  -20.60959 -20.60946 -15.85988 -11.31302 -11.27864
 Alpha  occ. eigenvalues --  -11.27860 -11.27602 -11.26870 -11.26861 -11.20949
 Alpha  occ. eigenvalues --  -11.20574 -11.20538 -11.20269 -11.19994 -11.19573
 Alpha  occ. eigenvalues --   -1.60016  -1.39572  -1.19470  -1.08876  -1.07429
 Alpha  occ. eigenvalues --   -1.04865  -1.02463  -0.95720  -0.94958  -0.86265
 Alpha  occ. eigenvalues --   -0.85989  -0.82554  -0.78583  -0.77611  -0.77155
 Alpha  occ. eigenvalues --   -0.72207  -0.71331  -0.70578  -0.65126  -0.64868
 Alpha  occ. eigenvalues --   -0.64069  -0.62212  -0.59863  -0.58371  -0.56518
 Alpha  occ. eigenvalues --   -0.55369  -0.54276  -0.53198  -0.52956  -0.51647
 Alpha  occ. eigenvalues --   -0.51385  -0.49007  -0.48961  -0.48910  -0.46877
 Alpha  occ. eigenvalues --   -0.45628  -0.44997  -0.44714  -0.44549  -0.42730
 Alpha  occ. eigenvalues --   -0.37450  -0.36466
 Alpha virt. eigenvalues --    0.04917   0.11189   0.16416   0.21318   0.23774
 Alpha virt. eigenvalues --    0.25384   0.27244   0.27601   0.28089   0.28613
 Alpha virt. eigenvalues --    0.28988   0.30891   0.32334   0.32388   0.32769

 Mulliken charges:
               1
     1  C   -0.170570
     2  C   -0.218573
     3  C   -0.170864
     4  C    0.157475
     5  C   -0.170500
     6  C   -0.218621
     7  H    0.226024
     8  H    0.223910
     9  H    0.276061
    10  H    0.275879
    11  H    0.223832
    12  N    0.492345
    13  O   -0.459298
    14  O   -0.463409
    15  C   -0.297104
    16  C   -0.298706
    17  C   -0.475021
    18  H    0.150377
    19  H    0.146174
    20  H    0.151419
    21  H    0.150391
    22  H    0.153228
    23  H    0.154256
    24  H    0.158128
    25  C   -0.298118
    26  C   -0.303028
    27  C   -0.474442
    28  H    0.147665
    29  H    0.144592
    30  H    0.175661
    31  H    0.144126
    32  H    0.145546
    33  H    0.152962
    34  H    0.168207
 Sum of Mulliken charges =  -0.00000

 Dipole moment (field-independent basis, Debye):
    X=              4.3894    Y=             -3.0928    Z=              1.1109  Tot=              5.4833
 Quadrupole moment (field-independent basis, Debye-Ang):
   XX=            -69.6150   YY=            -93.7720   ZZ=            -95.1313
   XY=             -7.3174   XZ=              2.5197   YZ=             -0.7395

 Normal termination of Gaussian 16 at Thu May  6 15:45:17 2021.
