 Gaussian 16, Revision A.03,
 Gaussian 16:  EM64L-G16RevA.03 25-Dec-2016

 -------------
 #p 6-31g* mp2
 -------------

 ------------------------------------------------------
 Input file generated by CHIRIPA (05-May-2021 14:55:20)
 ------------------------------------------------------
 Symbolic Z-matrix:
 Charge =  0 Multiplicity = 1

                         Standard orientation:
 ---------------------------------------------------------------------
 Center     Atomic      Atomic             Coordinates (Angstroms)
 Number     Number       Type             X           Y           Z
 ---------------------------------------------------------------------
      1          6           0       -1.430727    2.216685   -0.902065
      2          6           0       -0.769945    1.002955   -1.118278
      3          6           0       -1.404048   -0.210724   -0.836415
      4          6           0       -2.705061   -0.173551   -0.337143
      5          6           0       -3.389862    1.019435   -0.111042
      6          6           0       -2.736275    2.221043   -0.400022
      7          1           0       -0.930573    3.154811   -1.123787
      8          1           0        0.243985    0.996534   -1.508085
      9          1           0       -0.915829   -1.164720   -0.994374
     10          1           0       -4.400341    0.993841    0.278439
     11          1           0       -3.251893    3.162136   -0.231120
     12          7           0       -3.386671   -1.452029   -0.034980
     13          8           0       -4.533082   -1.392267    0.404118
     14          8           0       -2.761599   -2.489653   -0.242964
     15          6           0        2.887931    0.436167    0.900117
     16          6           0        1.579273   -0.183209    1.391821
     17          6           0        0.728430    0.796834    2.200138
     18          1           0        3.462774    0.796966    1.764018
     19          1           0        2.659948    1.318307    0.285913
     20          1           0        1.809610   -1.064726    2.003776
     21          1           0        1.007565   -0.542747    0.526664
     22          1           0        0.469721    1.672023    1.595395
     23          1           0        1.276323    1.147080    3.080900
     24          1           0       -0.202345    0.333347    2.541746
     25          6           0        3.749441   -0.531291    0.090456
     26          6           0        5.058099    0.088085   -0.401248
     27          6           0        5.908942   -0.891958   -1.209565
     28          1           0        3.977423   -1.413431    0.704662
     29          1           0        3.174598   -0.892090   -0.773445
     30          1           0        5.629806    0.447624    0.463911
     31          1           0        4.827762    0.969602   -1.013202
     32          1           0        5.361050   -1.242203   -2.090327
     33          1           0        6.167651   -1.767148   -0.604821
     34          1           0        6.839718   -0.428471   -1.551172
 ---------------------------------------------------------------------

 SCF Done:  E(RHF) =  -669.533388833     A.U. after   15 cycles
 E2 =    -0.2095017178D+01 EUMP2 =    -0.67162840601133D+03

 The electronic state is 1-A.
 Alpha  occ. eigenvalues --  -20.60809 -20.60804 -15.85864 -11.31254 -11.27805
 Alpha  occ. eigenvalues --  -11.27800 -11.27555 -11.26833 -11.26823 -11.22075
 Alpha  occ. eigenvalues --  -11.21968 -11.21919 -11.21878 -11.21449 -11.21267
 Alpha  occ. eigenvalues --   -1.59885  -1.39437  -1.19431  -1.08934  -1.08806
 Alpha  occ. eigenvalues --   -1.04866  -1.03906  -0.96369  -0.95653  -0.87384
 Alpha  occ. eigenvalues --   -0.86235  -0.82500  -0.80000  -0.78747  -0.77526
 Alpha  occ. eigenvalues --   -0.72082  -0.71210  -0.70544  -0.65656  -0.65078
 Alpha  occ. eigenvalues --   -0.64814  -0.62266  -0.61293  -0.59737  -0.57983
 Alpha  occ. eigenvalues --   -0.55782  -0.55334  -0.53147  -0.52935  -0.52889
 Alpha  occ. eigenvalues --   -0.52773  -0.50309  -0.48843  -0.48836  -0.48298
 Alpha  occ. eigenvalues --   -0.47066  -0.46269  -0.46233  -0.44835  -0.44203
 Alpha  occ. eigenvalues --   -0.37376  -0.36321
 Alpha virt. eigenvalues --    0.04974   0.11122   0.16362   0.19588   0.22885
 Alpha virt. eigenvalues --    0.24187   0.25274   0.26195   0.27263   0.28377
 Alpha virt. eigenvalues --    0.29136   0.30981   0.31320   0.31453   0.32292

 Mulliken charges:
               1
     1  C   -0.172577
     2  C   -0.214414
     3  C   -0.169233
     4  C    0.157244
     5  C   -0.171467
     6  C   -0.217556
     7  H    0.225857
     8  H    0.225610
     9  H    0.276023
    10  H    0.275851
    11  H    0.223866
    12  N    0.487940
    13  O   -0.460191
    14  O   -0.460085
    15  C   -0.298853
    16  C   -0.301127
    17  C   -0.475082
    18  H    0.153052
    19  H    0.140591
    20  H    0.156791
    21  H    0.146123
    22  H    0.152468
    23  H    0.154537
    24  H    0.163708
    25  C   -0.297820
    26  C   -0.299413
    27  C   -0.475899
    28  H    0.153956
    29  H    0.144005
    30  H    0.153786
    31  H    0.148898
    32  H    0.154790
    33  H    0.157301
    34  H    0.161320
 Sum of Mulliken charges =  -0.00000

 Dipole moment (field-independent basis, Debye):
    X=              2.3806    Y=              4.4720    Z=             -1.0131  Tot=              5.1665
 Quadrupole moment (field-independent basis, Debye-Ang):
   XX=           -104.6440   YY=            -95.7999   ZZ=            -93.9317
   XY=            -15.0274   XZ=              1.6675   YZ=             -1.2113

 Normal termination of Gaussian 16 at Wed May  5 23:48:34 2021.
