 Gaussian 16, Revision A.03,
 Gaussian 16:  EM64L-G16RevA.03 25-Dec-2016

 -------------
 #p 6-31g* mp2
 -------------

 ------------------------------------------------------
 Input file generated by CHIRIPA (05-May-2021 14:55:24)
 ------------------------------------------------------
 Symbolic Z-matrix:
 Charge =  0 Multiplicity = 1

                         Standard orientation:
 ---------------------------------------------------------------------
 Center     Atomic      Atomic             Coordinates (Angstroms)
 Number     Number       Type             X           Y           Z
 ---------------------------------------------------------------------
      1          6           0        5.125798    0.819274    0.647999
      2          6           0        4.023415    0.916799    1.503429
      3          6           0        2.783197    0.393533    1.125803
      4          6           0        2.680578   -0.223489   -0.120007
      5          6           0        3.760361   -0.336276   -0.994443
      6          6           0        4.990991    0.194150   -0.596014
      7          1           0        6.085505    1.228541    0.949428
      8          1           0        4.125177    1.401741    2.470135
      9          1           0        1.913401    0.455250    1.768504
     10          1           0        3.628032   -0.825348   -1.951896
     11          1           0        5.845400    0.116966   -1.262401
     12          7           0        1.372690   -0.781237   -0.530794
     13          8           0        1.308360   -1.320058   -1.633595
     14          8           0        0.436663   -0.669018    0.257810
     15          6           0       -3.930449   -0.442366    0.467556
     16          6           0       -3.322571   -1.752426   -0.034654
     17          6           0       -3.778961   -2.965254    0.776856
     18          1           0       -3.660960   -0.301455    1.523239
     19          1           0       -5.026130   -0.517278    0.431976
     20          1           0       -2.228352   -1.674560    0.000561
     21          1           0       -3.593378   -1.890140   -1.089317
     22          1           0       -4.867732   -3.071038    0.732267
     23          1           0       -3.494951   -2.854234    1.828338
     24          1           0       -3.332471   -3.891031    0.400766
     25          6           0       -3.483655    0.779173   -0.333657
     26          6           0       -4.091532    2.089232    0.168552
     27          6           0       -3.635142    3.302061   -0.642957
     28          1           0       -2.387973    0.854085   -0.298077
     29          1           0       -3.753143    0.638262   -1.389339
     30          1           0       -3.820725    2.226946    1.223215
     31          1           0       -5.185750    2.011366    0.133338
     32          1           0       -3.919151    3.191041   -1.694439
     33          1           0       -2.546370    3.407845   -0.598369
     34          1           0       -4.081631    4.227838   -0.266868
 ---------------------------------------------------------------------

 SCF Done:  E(RHF) =  -669.536754587     A.U. after   15 cycles
 E2 =    -0.2091473225D+01 EUMP2 =    -0.67162822781241D+03

 The electronic state is 1-A.
 Alpha  occ. eigenvalues --  -20.61135 -20.61118 -15.86135 -11.31398 -11.27952
 Alpha  occ. eigenvalues --  -11.27946 -11.27676 -11.26943 -11.26933 -11.20688
 Alpha  occ. eigenvalues --  -11.20359 -11.20095 -11.20033 -11.19827 -11.19756
 Alpha  occ. eigenvalues --   -1.60169  -1.39728  -1.19557  -1.08973  -1.07154
 Alpha  occ. eigenvalues --   -1.04944  -1.02325  -0.95824  -0.94830  -0.86347
 Alpha  occ. eigenvalues --   -0.85858  -0.82661  -0.78394  -0.77722  -0.76904
 Alpha  occ. eigenvalues --   -0.72354  -0.71471  -0.70665  -0.65215  -0.64946
 Alpha  occ. eigenvalues --   -0.63776  -0.62291  -0.59722  -0.58219  -0.56415
 Alpha  occ. eigenvalues --   -0.55450  -0.54133  -0.53278  -0.53035  -0.51570
 Alpha  occ. eigenvalues --   -0.51253  -0.49197  -0.49106  -0.48771  -0.46709
 Alpha  occ. eigenvalues --   -0.45428  -0.45118  -0.44497  -0.44206  -0.42563
 Alpha  occ. eigenvalues --   -0.37532  -0.36541
 Alpha virt. eigenvalues --    0.04792   0.11115   0.16295   0.21245   0.24070
 Alpha virt. eigenvalues --    0.25447   0.27180   0.27801   0.28165   0.28832
 Alpha virt. eigenvalues --    0.29170   0.30859   0.32354   0.32512   0.32912

 Mulliken charges:
               1
     1  C   -0.170345
     2  C   -0.218519
     3  C   -0.170726
     4  C    0.157461
     5  C   -0.170342
     6  C   -0.218598
     7  H    0.226413
     8  H    0.224206
     9  H    0.275700
    10  H    0.276161
    11  H    0.224218
    12  N    0.490229
    13  O   -0.457022
    14  O   -0.461528
    15  C   -0.295246
    16  C   -0.313349
    17  C   -0.474424
    18  H    0.145816
    19  H    0.142575
    20  H    0.185397
    21  H    0.147032
    22  H    0.148626
    23  H    0.151387
    24  H    0.158364
    25  C   -0.302231
    26  C   -0.298476
    27  C   -0.474507
    28  H    0.163154
    29  H    0.147015
    30  H    0.148680
    31  H    0.148858
    32  H    0.154483
    33  H    0.153538
    34  H    0.156000
 Sum of Mulliken charges =  -0.00000

 Dipole moment (field-independent basis, Debye):
    X=              5.1118    Y=              1.9127    Z=              1.3774  Tot=              5.6290
 Quadrupole moment (field-independent basis, Debye-Ang):
   XX=            -70.7678   YY=            -97.6761   ZZ=            -91.4499
   XY=              3.5463   XZ=              2.2307   YZ=              1.7512

 Normal termination of Gaussian 16 at Thu May  6 03:09:42 2021.
