 Gaussian 16, Revision A.03,
 Gaussian 16:  EM64L-G16RevA.03 25-Dec-2016

 -------------
 #p 6-31g* mp2
 -------------

 ------------------------------------------------------
 Input file generated by CHIRIPA (05-May-2021 14:57:23)
 ------------------------------------------------------
 Symbolic Z-matrix:
 Charge =  0 Multiplicity = 1

                         Standard orientation:
 ---------------------------------------------------------------------
 Center     Atomic      Atomic             Coordinates (Angstroms)
 Number     Number       Type             X           Y           Z
 ---------------------------------------------------------------------
      1          6           0        3.314539    2.493774    0.712684
      2          6           0        4.314428    2.192144   -0.217779
      3          6           0        4.537608    0.871033   -0.617033
      4          6           0        3.738763   -0.128137   -0.063142
      5          6           0        2.734781    0.140534    0.865904
      6          6           0        2.529291    1.468813    1.250608
      7          1           0        3.148038    3.522829    1.017182
      8          1           0        4.925787    2.986105   -0.637198
      9          1           0        5.304836    0.609418   -1.335599
     10          1           0        2.141413   -0.672389    1.266513
     11          1           0        1.752045    1.700117    1.973403
     12          7           0        3.965669   -1.530533   -0.478112
     13          8           0        3.248323   -2.392682    0.024631
     14          8           0        4.856568   -1.741027   -1.298251
     15          6           0       -1.405160   -0.729125    0.832200
     16          6           0       -2.539325   -1.075733    1.573856
     17          6           0       -3.816545   -0.733959    1.119489
     18          6           0       -3.923354   -0.042463   -0.086211
     19          6           0       -2.812476    0.316995   -0.847808
     20          6           0       -1.545108   -0.035091   -0.374139
     21          1           0       -0.416812   -0.998628    1.192661
     22          1           0       -2.433657   -1.614730    2.511065
     23          1           0       -4.711447   -0.989829    1.673654
     24          1           0       -2.949606    0.854280   -1.778366
     25          1           0       -0.666069    0.235395   -0.952214
     26          7           0       -5.270274    0.324816   -0.577447
     27          8           0       -5.337531    0.934037   -1.642794
     28          8           0       -6.233229   -0.003486    0.112170
 ---------------------------------------------------------------------

 SCF Done:  E(RHF) =  -868.337447657     A.U. after   16 cycles
 E2 =    -0.2599907131D+01 EUMP2 =    -0.87093735478806D+03

 The electronic state is 1-A.
 Alpha  occ. eigenvalues --  -20.61633 -20.61607 -20.60903 -20.60898 -15.86678
 Alpha  occ. eigenvalues --  -15.85956 -11.32138 -11.31364 -11.28799 -11.28619
 Alpha  occ. eigenvalues --  -11.28358 -11.27921 -11.27917 -11.27741 -11.27734
 Alpha  occ. eigenvalues --  -11.27638 -11.26970 -11.26949  -1.60696  -1.59977
 Alpha  occ. eigenvalues --   -1.40249  -1.39529  -1.20291  -1.19538  -1.09647
 Alpha  occ. eigenvalues --   -1.08939  -1.05710  -1.04939  -0.96481  -0.95767
 Alpha  occ. eigenvalues --   -0.87087  -0.86338  -0.83313  -0.82591  -0.78372
 Alpha  occ. eigenvalues --   -0.77619  -0.72890  -0.72174  -0.72024  -0.71409
 Alpha  occ. eigenvalues --   -0.71300  -0.70662  -0.65931  -0.65685  -0.65193
 Alpha  occ. eigenvalues --   -0.64938  -0.63063  -0.62277  -0.56166  -0.55482
 Alpha  occ. eigenvalues --   -0.54021  -0.53768  -0.53274  -0.53026  -0.49660
 Alpha  occ. eigenvalues --   -0.49639  -0.48936  -0.48927  -0.45634  -0.44925
 Alpha  occ. eigenvalues --   -0.38234  -0.37562  -0.37301  -0.36535
 Alpha virt. eigenvalues --    0.04142   0.04899   0.10299   0.11112   0.15639
 Alpha virt. eigenvalues --    0.16361   0.18764   0.21777   0.24724   0.27049
 Alpha virt. eigenvalues --    0.27147   0.29281   0.30039   0.30805   0.32285

 Mulliken charges:
               1
     1  C   -0.170961
     2  C   -0.217655
     3  C   -0.170373
     4  C    0.160776
     5  C   -0.182188
     6  C   -0.219289
     7  H    0.229567
     8  H    0.227370
     9  H    0.278565
    10  H    0.271517
    11  H    0.225272
    12  N    0.487682
    13  O   -0.462585
    14  O   -0.456019
    15  C   -0.173827
    16  C   -0.219299
    17  C   -0.170836
    18  C    0.158878
    19  C   -0.171076
    20  C   -0.220229
    21  H    0.223937
    22  H    0.224692
    23  H    0.276272
    24  H    0.276087
    25  H    0.225653
    26  N    0.487951
    27  O   -0.460050
    28  O   -0.459831
 Sum of Mulliken charges =  -0.00000

 Dipole moment (field-independent basis, Debye):
    X=              4.1290    Y=              3.7721    Z=              3.1015  Tot=              6.3951
 Quadrupole moment (field-independent basis, Debye-Ang):
   XX=           -144.0878   YY=           -105.4456   ZZ=           -100.9664
   XY=             26.4405   XZ=             -6.4327   YZ=             -3.4441

 Normal termination of Gaussian 16 at Fri May  7 11:04:59 2021.
