 Gaussian 16, Revision A.03,
 Gaussian 16:  EM64L-G16RevA.03 25-Dec-2016

 -------------
 #p 6-31g* mp2
 -------------

 ------------------------------------------------------
 Input file generated by CHIRIPA (05-May-2021 14:57:24)
 ------------------------------------------------------
 Symbolic Z-matrix:
 Charge =  0 Multiplicity = 1

                         Standard orientation:
 ---------------------------------------------------------------------
 Center     Atomic      Atomic             Coordinates (Angstroms)
 Number     Number       Type             X           Y           Z
 ---------------------------------------------------------------------
      1          6           0       -4.666129   -0.475840   -1.337461
      2          6           0       -3.825574   -1.537067   -0.985631
      3          6           0       -2.760002   -1.336328   -0.103130
      4          6           0       -2.563140   -0.055626    0.411009
      5          6           0       -3.383192    1.021878    0.079665
      6          6           0       -4.442650    0.798000   -0.804629
      7          1           0       -5.491517   -0.640767   -2.023705
      8          1           0       -3.996745   -2.527416   -1.397887
      9          1           0       -2.093906   -2.140090    0.186179
     10          1           0       -3.187420    1.997857    0.506931
     11          1           0       -5.093826    1.624029   -1.076089
     12          7           0       -1.438303    0.169136    1.346222
     13          8           0       -1.286093    1.306933    1.785411
     14          8           0       -0.730165   -0.796749    1.622345
     15          6           0        3.209373   -2.359759    0.116134
     16          6           0        3.329149   -1.811992   -1.165321
     17          6           0        3.076254   -0.454452   -1.383672
     18          6           0        2.703974    0.329761   -0.292936
     19          6           0        2.576083   -0.186559    0.995609
     20          6           0        2.833885   -1.546728    1.190614
     21          1           0        3.407734   -3.415351    0.276686
     22          1           0        3.620588   -2.441015   -2.001646
     23          1           0        3.161430   -0.004419   -2.365320
     24          1           0        2.283778    0.465654    1.809608
     25          1           0        2.740074   -1.969409    2.186901
     26          7           0        2.433648    1.768320   -0.511737
     27          8           0        2.107173    2.437961    0.465828
     28          8           0        2.553360    2.198981   -1.656654
 ---------------------------------------------------------------------

 SCF Done:  E(RHF) =  -868.338329119     A.U. after   16 cycles
 E2 =    -0.2600626674D+01 EUMP2 =    -0.87093895579327D+03

 The electronic state is 1-A.
 Alpha  occ. eigenvalues --  -20.60898 -20.60827 -20.59807 -20.59729 -15.85871
 Alpha  occ. eigenvalues --  -15.84813 -11.31168 -11.30063 -11.27769 -11.27688
 Alpha  occ. eigenvalues --  -11.27474 -11.26767 -11.26762 -11.26702 -11.26515
 Alpha  occ. eigenvalues --  -11.26477 -11.25780 -11.25556  -1.59925  -1.58855
 Alpha  occ. eigenvalues --   -1.39476  -1.38403  -1.19338  -1.18269  -1.08753
 Alpha  occ. eigenvalues --   -1.07710  -1.04730  -1.03637  -0.95600  -0.94544
 Alpha  occ. eigenvalues --   -0.86133  -0.85067  -0.82434  -0.81364  -0.77487
 Alpha  occ. eigenvalues --   -0.76404  -0.72111  -0.71253  -0.71031  -0.70451
 Alpha  occ. eigenvalues --   -0.70174  -0.69414  -0.64995  -0.64739  -0.63927
 Alpha  occ. eigenvalues --   -0.63670  -0.62077  -0.60982  -0.55246  -0.54229
 Alpha  occ. eigenvalues --   -0.53065  -0.52825  -0.52010  -0.51747  -0.48900
 Alpha  occ. eigenvalues --   -0.48848  -0.47813  -0.47777  -0.44887  -0.43816
 Alpha  occ. eigenvalues --   -0.37322  -0.36329  -0.36311  -0.35145
 Alpha virt. eigenvalues --    0.04977   0.06176   0.11329   0.12429   0.16540
 Alpha virt. eigenvalues --    0.17601   0.21453   0.22428   0.27365   0.28301
 Alpha virt. eigenvalues --    0.28429   0.29345   0.31003   0.31899   0.32597

 Mulliken charges:
               1
     1  C   -0.170393
     2  C   -0.218659
     3  C   -0.170870
     4  C    0.158354
     5  C   -0.169137
     6  C   -0.218433
     7  H    0.225632
     8  H    0.222059
     9  H    0.272795
    10  H    0.279354
    11  H    0.224831
    12  N    0.487608
    13  O   -0.451068
    14  O   -0.470034
    15  C   -0.173190
    16  C   -0.220996
    17  C   -0.173639
    18  C    0.149913
    19  C   -0.154153
    20  C   -0.212923
    21  H    0.220417
    22  H    0.217190
    23  H    0.270577
    24  H    0.285218
    25  H    0.224637
    26  N    0.486591
    27  O   -0.452943
    28  O   -0.468739
 Sum of Mulliken charges =  -0.00000

 Dipole moment (field-independent basis, Debye):
    X=             -3.2941    Y=             -5.6348    Z=             -2.1696  Tot=              6.8782
 Quadrupole moment (field-independent basis, Debye-Ang):
   XX=            -80.8210   YY=           -104.3361   ZZ=           -104.1389
   XY=            -12.8702   XZ=              8.5638   YZ=              2.8204

 Normal termination of Gaussian 16 at Thu May  6 21:16:04 2021.
