 Gaussian 16, Revision A.03,
 Gaussian 16:  EM64L-G16RevA.03 25-Dec-2016

 -------------
 #p 6-31g* mp2
 -------------

 ------------------------------------------------------
 Input file generated by CHIRIPA (05-May-2021 14:51:10)
 ------------------------------------------------------
 Symbolic Z-matrix:
 Charge =  0 Multiplicity = 1

                         Standard orientation:
 ---------------------------------------------------------------------
 Center     Atomic      Atomic             Coordinates (Angstroms)
 Number     Number       Type             X           Y           Z
 ---------------------------------------------------------------------
      1          6           0        3.237504   -0.496592   -0.515379
      2          6           0        2.118001   -1.526558   -0.669881
      3          6           0        2.596909   -2.828144   -1.313554
      4          1           0        3.668552   -0.282053   -1.502858
      5          1           0        4.044824   -0.930936    0.090406
      6          1           0        1.312425   -1.089911   -1.274036
      7          1           0        1.689440   -1.738527    0.318056
      8          1           0        3.385197   -3.289244   -0.709740
      9          1           0        3.006039   -2.636942   -2.310878
     10          1           0        1.780632   -3.550208   -1.414423
     11          6           0        2.774299    0.809946    0.126592
     12          6           0        3.893802    1.839911    0.281095
     13          6           0        3.414894    3.141497    0.924767
     14          1           0        1.966980    1.244289   -0.479193
     15          1           0        2.343251    0.595406    1.114071
     16          1           0        4.322363    2.051881   -0.706843
     17          1           0        4.699378    1.403265    0.885249
     18          1           0        3.005764    2.950296    1.922091
     19          1           0        2.626606    3.602597    0.320953
     20          1           0        4.231171    3.863562    1.025636
     21          6           0       -3.629941    0.175615   -0.094725
     22          6           0       -3.425665    1.650516   -0.442461
     23          6           0       -4.682986    2.301397   -1.019776
     24          1           0       -3.944326   -0.367064   -0.996726
     25          1           0       -4.454088    0.086897    0.626599
     26          1           0       -2.601239    1.736547   -1.161860
     27          1           0       -3.111545    2.189711    0.460431
     28          1           0       -5.509352    2.245051   -0.303854
     29          1           0       -4.996147    1.789312   -1.935364
     30          1           0       -4.514614    3.355528   -1.261270
     31          6           0       -2.381862   -0.488968    0.483511
     32          6           0       -2.586138   -1.963870    0.831247
     33          6           0       -1.328817   -2.614751    1.408564
     34          1           0       -1.557716   -0.400251   -0.237813
     35          1           0       -2.067478    0.053710    1.385513
     36          1           0       -2.900258   -2.503065   -0.071644
     37          1           0       -3.410564   -2.049900    1.550648
     38          1           0       -1.015656   -2.102666    2.324150
     39          1           0       -0.502451   -2.558405    0.692640
     40          1           0       -1.497190   -3.668882    1.650057
 ---------------------------------------------------------------------

 SCF Done:  E(RHF) =  -470.733169480     A.U. after   11 cycles
 E2 =    -0.1583077116D+01 EUMP2 =    -0.47231624659595D+03

 The electronic state is 1-A.
 Alpha  occ. eigenvalues --  -11.21611 -11.21597 -11.21591 -11.21566 -11.21406
 Alpha  occ. eigenvalues --  -11.21376 -11.21345 -11.21313 -11.21101 -11.21065
 Alpha  occ. eigenvalues --  -11.21064 -11.20994  -1.08443  -1.08397  -1.03559
 Alpha  occ. eigenvalues --   -1.03487  -0.95999  -0.95942  -0.87009  -0.86965
 Alpha  occ. eigenvalues --   -0.79690  -0.79502  -0.78312  -0.78147  -0.65072
 Alpha  occ. eigenvalues --   -0.65033  -0.60995  -0.60869  -0.59402  -0.59282
 Alpha  occ. eigenvalues --   -0.57686  -0.57487  -0.55307  -0.55199  -0.52687
 Alpha  occ. eigenvalues --   -0.52646  -0.52421  -0.52377  -0.49991  -0.49846
 Alpha  occ. eigenvalues --   -0.48122  -0.47742  -0.46699  -0.46524  -0.45970
 Alpha  occ. eigenvalues --   -0.45747  -0.45667  -0.45436  -0.43791  -0.43755
 Alpha virt. eigenvalues --    0.21357   0.23191   0.23421   0.24864   0.25330
 Alpha virt. eigenvalues --    0.26300   0.26953   0.27413   0.28478   0.29251
 Alpha virt. eigenvalues --    0.30677   0.31088   0.31598   0.31757   0.32142

 Mulliken charges:
               1
     1  C   -0.297708
     2  C   -0.305694
     3  C   -0.476791
     4  H    0.149452
     5  H    0.149689
     6  H    0.151750
     7  H    0.157487
     8  H    0.155710
     9  H    0.155369
    10  H    0.160578
    11  C   -0.298375
    12  C   -0.299681
    13  C   -0.475675
    14  H    0.149518
    15  H    0.150171
    16  H    0.151850
    17  H    0.151920
    18  H    0.155173
    19  H    0.155298
    20  H    0.160188
    21  C   -0.298300
    22  C   -0.299472
    23  C   -0.475687
    24  H    0.149447
    25  H    0.149503
    26  H    0.151451
    27  H    0.152117
    28  H    0.155218
    29  H    0.155093
    30  H    0.160164
    31  C   -0.299814
    32  C   -0.299078
    33  C   -0.483491
    34  H    0.151300
    35  H    0.149558
    36  H    0.151523
    37  H    0.151638
    38  H    0.154059
    39  H    0.164857
    40  H    0.159685
 Sum of Mulliken charges =  -0.00000

 Dipole moment (field-independent basis, Debye):
    X=              0.0303    Y=             -0.0014    Z=              0.0032  Tot=              0.0305
 Quadrupole moment (field-independent basis, Debye-Ang):
   XX=            -85.4404   YY=            -85.9866   ZZ=            -83.4463
   XY=              0.4671   XZ=             -0.3024   YZ=             -0.2584

 Normal termination of Gaussian 16 at Thu May  6 05:21:42 2021.
