 Gaussian 16, Revision A.03,
 Gaussian 16:  EM64L-G16RevA.03 25-Dec-2016

 -------------
 #p 6-31g* mp2
 -------------

 ------------------------------------------------------
 Input file generated by CHIRIPA (05-May-2021 14:55:21)
 ------------------------------------------------------
 Symbolic Z-matrix:
 Charge =  0 Multiplicity = 1

                         Standard orientation:
 ---------------------------------------------------------------------
 Center     Atomic      Atomic             Coordinates (Angstroms)
 Number     Number       Type             X           Y           Z
 ---------------------------------------------------------------------
      1          6           0       -1.130968   -2.584407    0.619605
      2          6           0       -1.007144   -2.133824   -0.698790
      3          6           0       -1.506180   -0.882080   -1.071144
      4          6           0       -2.126053   -0.103412   -0.095068
      5          6           0       -2.264747   -0.524445    1.226592
      6          6           0       -1.758268   -1.779698    1.576401
      7          1           0       -0.740414   -3.558155    0.900102
      8          1           0       -0.520448   -2.756637   -1.443958
      9          1           0       -1.423842   -0.508641   -2.084644
     10          1           0       -2.754900    0.118903    1.947197
     11          1           0       -1.855849   -2.127047    2.601033
     12          7           0       -2.658299    1.223611   -0.477330
     13          8           0       -3.200194    1.890625    0.401350
     14          8           0       -2.523501    1.571590   -1.648388
     15          6           0        2.874459    1.126608   -0.011730
     16          6           0        1.913454    2.173745    0.552148
     17          6           0        2.458451    3.597844    0.439387
     18          1           0        3.834483    1.196341    0.517832
     19          1           0        3.081273    1.358673   -1.065660
     20          1           0        1.707427    1.938982    1.604315
     21          1           0        0.955543    2.101382    0.021313
     22          1           0        2.647020    3.856386   -0.607608
     23          1           0        3.403177    3.693063    0.984388
     24          1           0        1.755518    4.330272    0.848402
     25          6           0        2.343672   -0.301977    0.093822
     26          6           0        3.304676   -1.349114   -0.470056
     27          6           0        2.759680   -2.773213   -0.357295
     28          1           0        2.136858   -0.534042    1.147752
     29          1           0        1.383647   -0.371710   -0.435739
     30          1           0        4.262588   -1.276751    0.060778
     31          1           0        3.510703   -1.114351   -1.522223
     32          1           0        1.814954   -2.868433   -0.902297
     33          1           0        2.571111   -3.031755    0.689700
     34          1           0        3.462613   -3.505641   -0.766310
 ---------------------------------------------------------------------

 SCF Done:  E(RHF) =  -669.534100144     A.U. after   15 cycles
 E2 =    -0.2094904339D+01 EUMP2 =    -0.67162900448220D+03

 The electronic state is 1-A.
 Alpha  occ. eigenvalues --  -20.60833 -20.60828 -15.85889 -11.31265 -11.27818
 Alpha  occ. eigenvalues --  -11.27814 -11.27537 -11.26831 -11.26813 -11.21978
 Alpha  occ. eigenvalues --  -11.21759 -11.21472 -11.21443 -11.21351 -11.20824
 Alpha  occ. eigenvalues --   -1.59909  -1.39462  -1.19434  -1.08826  -1.08533
 Alpha  occ. eigenvalues --   -1.04848  -1.03678  -0.96145  -0.95649  -0.87177
 Alpha  occ. eigenvalues --   -0.86234  -0.82491  -0.79766  -0.78317  -0.77539
 Alpha  occ. eigenvalues --   -0.72104  -0.71233  -0.70519  -0.65232  -0.65085
 Alpha  occ. eigenvalues --   -0.64844  -0.62223  -0.61070  -0.59531  -0.57723
 Alpha  occ. eigenvalues --   -0.55517  -0.55265  -0.53261  -0.52980  -0.52811
 Alpha  occ. eigenvalues --   -0.52529  -0.50105  -0.48863  -0.48858  -0.48057
 Alpha  occ. eigenvalues --   -0.46789  -0.45824  -0.45762  -0.44858  -0.43892
 Alpha  occ. eigenvalues --   -0.37358  -0.36332
 Alpha virt. eigenvalues --    0.04972   0.11071   0.16412   0.20519   0.22942
 Alpha virt. eigenvalues --    0.24251   0.25844   0.26608   0.27320   0.27833
 Alpha virt. eigenvalues --    0.29107   0.29818   0.31454   0.31890   0.32153

 Mulliken charges:
               1
     1  C   -0.167304
     2  C   -0.216079
     3  C   -0.175958
     4  C    0.161507
     5  C   -0.170382
     6  C   -0.218494
     7  H    0.227149
     8  H    0.224609
     9  H    0.275655
    10  H    0.275899
    11  H    0.223713
    12  N    0.487948
    13  O   -0.459874
    14  O   -0.460853
    15  C   -0.298336
    16  C   -0.299554
    17  C   -0.475850
    18  H    0.148502
    19  H    0.149776
    20  H    0.150136
    21  H    0.154072
    22  H    0.156450
    23  H    0.153039
    24  H    0.164148
    25  C   -0.303222
    26  C   -0.299313
    27  C   -0.475564
    28  H    0.147158
    29  H    0.156004
    30  H    0.153404
    31  H    0.152193
    32  H    0.145908
    33  H    0.152347
    34  H    0.161165
 Sum of Mulliken charges =  -0.00000

 Dipole moment (field-independent basis, Debye):
    X=              1.7772    Y=             -4.6067    Z=              1.3806  Tot=              5.1270
 Quadrupole moment (field-independent basis, Debye-Ang):
   XX=           -103.1045   YY=            -95.4750   ZZ=            -89.8463
   XY=              9.4452   XZ=             -4.4248   YZ=              0.8822

 Normal termination of Gaussian 16 at Wed May  5 15:56:42 2021.
