 Gaussian 16, Revision A.03,
 Gaussian 16:  EM64L-G16RevA.03 25-Dec-2016

 -------------
 #p 6-31g* mp2
 -------------

 ------------------------------------------------------
 Input file generated by CHIRIPA (05-May-2021 14:55:20)
 ------------------------------------------------------
 Symbolic Z-matrix:
 Charge =  0 Multiplicity = 1

                         Standard orientation:
 ---------------------------------------------------------------------
 Center     Atomic      Atomic             Coordinates (Angstroms)
 Number     Number       Type             X           Y           Z
 ---------------------------------------------------------------------
      1          6           0       -2.360672    1.978946    0.448113
      2          6           0       -2.060762    0.648537    0.758899
      3          6           0       -2.982457   -0.368141    0.491706
      4          6           0       -4.199950   -0.017131   -0.089494
      5          6           0       -4.528048    1.299094   -0.410730
      6          6           0       -3.591188    2.299413   -0.134682
      7          1           0       -1.638786    2.762372    0.659115
      8          1           0       -1.105913    0.396724    1.211556
      9          1           0       -2.776122   -1.406300    0.722076
     10          1           0       -5.488174    1.519200   -0.861429
     11          1           0       -3.826811    3.331766   -0.377114
     12          7           0       -5.183734   -1.084784   -0.377047
     13          8           0       -6.249352   -0.749445   -0.889534
     14          8           0       -4.870578   -2.236733   -0.084499
     15          6           0        5.736384    0.228056   -0.219518
     16          6           0        7.056751   -0.529165   -0.365236
     17          6           0        8.183423    0.347185   -0.913338
     18          1           0        5.444147    0.634297   -1.197532
     19          1           0        5.887605    1.090327    0.444572
     20          1           0        6.902750   -1.390544   -1.027752
     21          1           0        7.345781   -0.933813    0.613199
     22          1           0        8.365888    1.199256   -0.250555
     23          1           0        7.920341    0.739931   -1.900829
     24          1           0        9.118073   -0.214109   -1.009452
     25          6           0        4.600410   -0.634662    0.327299
     26          6           0        3.280043    0.122559    0.473018
     27          6           0        2.153371   -0.753792    1.021118
     28          1           0        4.449189   -1.496933   -0.336790
     29          1           0        4.892647   -1.040903    1.305312
     30          1           0        2.991013    0.527206   -0.505419
     31          1           0        3.434043    0.983937    1.135533
     32          1           0        2.416453   -1.146537    2.008610
     33          1           0        1.970905   -1.605863    0.358335
     34          1           0        1.218721   -0.192497    1.117233
 ---------------------------------------------------------------------

 SCF Done:  E(RHF) =  -669.535486853     A.U. after   15 cycles
 E2 =    -0.2090647620D+01 EUMP2 =    -0.67162613447315D+03

 The electronic state is 1-A.
 Alpha  occ. eigenvalues --  -20.60735 -20.60730 -15.85789 -11.31152 -11.27726
 Alpha  occ. eigenvalues --  -11.27715 -11.27468 -11.26742 -11.26716 -11.22345
 Alpha  occ. eigenvalues --  -11.22030 -11.21970 -11.21943 -11.21826 -11.21385
 Alpha  occ. eigenvalues --   -1.59811  -1.39364  -1.19326  -1.08971  -1.08723
 Alpha  occ. eigenvalues --   -1.04730  -1.04105  -0.96567  -0.95557  -0.87590
 Alpha  occ. eigenvalues --   -0.86129  -0.82389  -0.80173  -0.78754  -0.77437
 Alpha  occ. eigenvalues --   -0.72007  -0.71134  -0.70436  -0.65592  -0.64979
 Alpha  occ. eigenvalues --   -0.64766  -0.62114  -0.61488  -0.59961  -0.58167
 Alpha  occ. eigenvalues --   -0.55831  -0.55238  -0.53408  -0.53059  -0.53028
 Alpha  occ. eigenvalues --   -0.52659  -0.50486  -0.48769  -0.48762  -0.48482
 Alpha  occ. eigenvalues --   -0.47185  -0.46304  -0.46205  -0.44770  -0.44359
 Alpha  occ. eigenvalues --   -0.37310  -0.36330
 Alpha virt. eigenvalues --    0.05099   0.11295   0.16576   0.20000   0.22488
 Alpha virt. eigenvalues --    0.23743   0.25678   0.26155   0.27002   0.28285
 Alpha virt. eigenvalues --    0.28341   0.29936   0.30880   0.31520   0.32141

 Mulliken charges:
               1
     1  C   -0.172879
     2  C   -0.225245
     3  C   -0.173159
     4  C    0.158753
     5  C   -0.171114
     6  C   -0.218591
     7  H    0.225675
     8  H    0.234022
     9  H    0.276279
    10  H    0.275480
    11  H    0.223262
    12  N    0.488065
    13  O   -0.460650
    14  O   -0.460367
    15  C   -0.298649
    16  C   -0.300116
    17  C   -0.475988
    18  H    0.150172
    19  H    0.149466
    20  H    0.153016
    21  H    0.152580
    22  H    0.155229
    23  H    0.155559
    24  H    0.161557
    25  C   -0.299363
    26  C   -0.299264
    27  C   -0.480120
    28  H    0.151636
    29  H    0.150942
    30  H    0.152984
    31  H    0.151370
    32  H    0.158950
    33  H    0.160296
    34  H    0.150209
 Sum of Mulliken charges =  -0.00000

 Dipole moment (field-independent basis, Debye):
    X=              3.6616    Y=              3.7266    Z=              0.9875  Tot=              5.3170
 Quadrupole moment (field-independent basis, Debye-Ang):
   XX=           -122.3493   YY=            -93.0188   ZZ=            -94.2837
   XY=            -18.9846   XZ=             -2.6562   YZ=             -1.3901

 Normal termination of Gaussian 16 at Thu May  6 07:41:31 2021.
