 Gaussian 16, Revision A.03,
 Gaussian 16:  EM64L-G16RevA.03 25-Dec-2016

 -------------
 #p 6-31g* mp2
 -------------

 ------------------------------------------------------
 Input file generated by CHIRIPA (05-May-2021 14:55:22)
 ------------------------------------------------------
 Symbolic Z-matrix:
 Charge =  0 Multiplicity = 1

                         Standard orientation:
 ---------------------------------------------------------------------
 Center     Atomic      Atomic             Coordinates (Angstroms)
 Number     Number       Type             X           Y           Z
 ---------------------------------------------------------------------
      1          6           0        0.755061    0.498155    1.422923
      2          6           0        1.535593    1.476512    0.798336
      3          6           0        2.710414    1.125536    0.126651
      4          6           0        3.076541   -0.219263    0.099168
      5          6           0        2.320103   -1.217150    0.711795
      6          6           0        1.149112   -0.843188    1.377739
      7          1           0       -0.156080    0.779730    1.942474
      8          1           0        1.232017    2.518992    0.831804
      9          1           0        3.333404    1.862541   -0.365411
     10          1           0        2.648525   -2.248175    0.661343
     11          1           0        0.544903   -1.605132    1.861908
     12          7           0        4.318244   -0.602993   -0.608876
     13          8           0        4.619019   -1.794662   -0.618660
     14          8           0        4.967204    0.295175   -1.140649
     15          6           0       -3.343289    0.768966   -0.661869
     16          6           0       -2.910735    1.933533    0.229571
     17          6           0       -2.246704    3.064599   -0.556270
     18          1           0       -2.466331    0.379838   -1.197098
     19          1           0       -4.037429    1.141024   -1.428119
     20          1           0       -2.218694    1.559135    0.994765
     21          1           0       -3.788791    2.319810    0.762885
     22          1           0       -2.933325    3.465605   -1.308830
     23          1           0       -1.354306    2.700608   -1.075633
     24          1           0       -1.945409    3.886682    0.100435
     25          6           0       -4.008760   -0.369555    0.109263
     26          6           0       -4.441313   -1.534121   -0.782179
     27          6           0       -5.105345   -2.665188    0.003662
     28          1           0       -3.314619   -0.741612    0.875512
     29          1           0       -4.885717    0.019573    0.644492
     30          1           0       -3.563257   -1.920399   -1.315493
     31          1           0       -5.133354   -1.159723   -1.547372
     32          1           0       -5.997743   -2.301197    0.523026
     33          1           0       -4.418724   -3.066194    0.756222
     34          1           0       -5.406639   -3.487270   -0.653042
 ---------------------------------------------------------------------

 SCF Done:  E(RHF) =  -669.535522104     A.U. after   15 cycles
 E2 =    -0.2091851078D+01 EUMP2 =    -0.67162737318204D+03

 The electronic state is 1-A.
 Alpha  occ. eigenvalues --  -20.60787 -20.60782 -15.85841 -11.31221 -11.27791
 Alpha  occ. eigenvalues --  -11.27783 -11.27518 -11.26808 -11.26792 -11.22594
 Alpha  occ. eigenvalues --  -11.22196 -11.22146 -11.22092 -11.21971 -11.21605
 Alpha  occ. eigenvalues --   -1.59863  -1.39416  -1.19394  -1.09197  -1.08783
 Alpha  occ. eigenvalues --   -1.04796  -1.04287  -0.96718  -0.95619  -0.87736
 Alpha  occ. eigenvalues --   -0.86190  -0.82452  -0.80363  -0.78996  -0.77493
 Alpha  occ. eigenvalues --   -0.72058  -0.71186  -0.70529  -0.65836  -0.65043
 Alpha  occ. eigenvalues --   -0.64787  -0.62150  -0.61679  -0.60103  -0.58330
 Alpha  occ. eigenvalues --   -0.56001  -0.55318  -0.53422  -0.53156  -0.53098
 Alpha  occ. eigenvalues --   -0.52880  -0.50652  -0.48824  -0.48813  -0.48660
 Alpha  occ. eigenvalues --   -0.47389  -0.46536  -0.46445  -0.44818  -0.44536
 Alpha  occ. eigenvalues --   -0.37361  -0.36399
 Alpha virt. eigenvalues --    0.05014   0.11187   0.16399   0.19403   0.22759
 Alpha virt. eigenvalues --    0.23642   0.25010   0.26201   0.26616   0.28183
 Alpha virt. eigenvalues --    0.29148   0.30224   0.30943   0.31085   0.32146

 Mulliken charges:
               1
     1  C   -0.172732
     2  C   -0.220535
     3  C   -0.171315
     4  C    0.158632
     5  C   -0.170896
     6  C   -0.219835
     7  H    0.230001
     8  H    0.225622
     9  H    0.275882
    10  H    0.275690
    11  H    0.223464
    12  N    0.488043
    13  O   -0.460356
    14  O   -0.460260
    15  C   -0.299710
    16  C   -0.300467
    17  C   -0.479421
    18  H    0.153540
    19  H    0.153043
    20  H    0.140621
    21  H    0.155207
    22  H    0.160664
    23  H    0.157680
    24  H    0.157242
    25  C   -0.296952
    26  C   -0.300604
    27  C   -0.475722
    28  H    0.142440
    29  H    0.151157
    30  H    0.153566
    31  H    0.154221
    32  H    0.156072
    33  H    0.153174
    34  H    0.162843
 Sum of Mulliken charges =  -0.00000

 Dipole moment (field-independent basis, Debye):
    X=             -4.5038    Y=              1.3451    Z=              2.3736  Tot=              5.2657
 Quadrupole moment (field-independent basis, Debye-Ang):
   XX=           -121.0761   YY=            -91.3058   ZZ=            -94.8919
   XY=              5.2007   XZ=              7.7582   YZ=             -1.5230

 Normal termination of Gaussian 16 at Thu May  6 14:13:03 2021.
