 Gaussian 16, Revision A.03,
 Gaussian 16:  EM64L-G16RevA.03 25-Dec-2016

 -------------
 #p 6-31g* mp2
 -------------

 ------------------------------------------------------
 Input file generated by CHIRIPA (05-May-2021 14:53:15)
 ------------------------------------------------------
 Symbolic Z-matrix:
 Charge =  0 Multiplicity = 1

                         Standard orientation:
 ---------------------------------------------------------------------
 Center     Atomic      Atomic             Coordinates (Angstroms)
 Number     Number       Type             X           Y           Z
 ---------------------------------------------------------------------
      1          6           0        4.184372   -0.341344   -0.194016
      2          6           0        4.727599    1.028811    0.212883
      3          6           0        6.029813    1.385329   -0.504701
      4          1           0        4.943012   -1.107175    0.017911
      5          1           0        4.021089   -0.355376   -1.280541
      6          1           0        4.888503    1.040715    1.298509
      7          1           0        3.967504    1.791445    0.000139
      8          1           0        5.880239    1.401123   -1.589127
      9          1           0        6.806472    0.646127   -0.283380
     10          1           0        6.400423    2.368716   -0.198989
     11          6           0        2.882902   -0.711944    0.514898
     12          6           0        2.339676   -2.082098    0.107999
     13          6           0        1.037461   -2.438617    0.825583
     14          1           0        3.046186   -0.697911    1.601423
     15          1           0        2.124262    0.053887    0.302970
     16          1           0        3.099771   -2.844733    0.320742
     17          1           0        2.178771   -2.094002   -0.977627
     18          1           0        0.260803   -1.699414    0.604262
     19          1           0        1.187035   -2.454411    1.910008
     20          1           0        0.666852   -3.422003    0.519870
     21          6           0       -1.946856    2.781617    0.167771
     22          6           0       -3.250658    2.438078    0.540065
     23          6           0       -3.712254    1.127910    0.382149
     24          6           0       -2.839329    0.182301   -0.153682
     25          6           0       -1.534844    0.493606   -0.534071
     26          6           0       -1.094612    1.809998   -0.367166
     27          1           0       -1.596575    3.801805    0.293936
     28          1           0       -3.914724    3.190576    0.955768
     29          1           0       -4.716782    0.834627    0.662015
     30          1           0       -0.896077   -0.278388   -0.945679
     31          1           0       -0.081557    2.073930   -0.657169
     32          7           0       -3.316691   -1.208010   -0.325618
     33          8           0       -2.528050   -2.022631   -0.800039
     34          8           0       -4.470449   -1.456788    0.017293
 ---------------------------------------------------------------------

 SCF Done:  E(RHF) =  -669.535275198     A.U. after   15 cycles
 E2 =    -0.2092358340D+01 EUMP2 =    -0.67162763353781D+03

 The electronic state is 1-A.
 Alpha  occ. eigenvalues --  -20.60810 -20.60800 -15.85850 -11.31236 -11.27801
 Alpha  occ. eigenvalues --  -11.27796 -11.27545 -11.26831 -11.26818 -11.22013
 Alpha  occ. eigenvalues --  -11.21750 -11.21690 -11.21636 -11.21414 -11.20802
 Alpha  occ. eigenvalues --   -1.59875  -1.39428  -1.19411  -1.08799  -1.08711
 Alpha  occ. eigenvalues --   -1.04820  -1.03714  -0.96140  -0.95630  -0.87150
 Alpha  occ. eigenvalues --   -0.86212  -0.82463  -0.79783  -0.78532  -0.77506
 Alpha  occ. eigenvalues --   -0.72071  -0.71194  -0.70526  -0.65373  -0.65062
 Alpha  occ. eigenvalues --   -0.64828  -0.62220  -0.61077  -0.59513  -0.57745
 Alpha  occ. eigenvalues --   -0.55499  -0.55267  -0.53146  -0.52940  -0.52772
 Alpha  occ. eigenvalues --   -0.52515  -0.50096  -0.48833  -0.48822  -0.48079
 Alpha  occ. eigenvalues --   -0.46840  -0.46071  -0.45994  -0.44796  -0.43967
 Alpha  occ. eigenvalues --   -0.37383  -0.36400
 Alpha virt. eigenvalues --    0.04980   0.11126   0.16446   0.19572   0.22921
 Alpha virt. eigenvalues --    0.23795   0.25135   0.26730   0.27491   0.28351
 Alpha virt. eigenvalues --    0.29627   0.30591   0.31389   0.31683   0.31836

 Mulliken charges:
               1
     1  C   -0.298482
     2  C   -0.298270
     3  C   -0.475788
     4  H    0.152488
     5  H    0.148789
     6  H    0.153249
     7  H    0.145477
     8  H    0.155180
     9  H    0.157117
    10  H    0.160180
    11  C   -0.296824
    12  C   -0.302742
    13  C   -0.476549
    14  H    0.151801
    15  H    0.138175
    16  H    0.153794
    17  H    0.151120
    18  H    0.153810
    19  H    0.153323
    20  H    0.170917
    21  C   -0.170691
    22  C   -0.218164
    23  C   -0.170813
    24  C    0.158512
    25  C   -0.171906
    26  C   -0.220134
    27  H    0.225969
    28  H    0.223748
    29  H    0.275840
    30  H    0.278197
    31  H    0.224425
    32  N    0.488460
    33  O   -0.460252
    34  O   -0.459958
 Sum of Mulliken charges =  -0.00000

 Dipole moment (field-independent basis, Debye):
    X=              1.6466    Y=              4.7843    Z=              0.6332  Tot=              5.0992
 Quadrupole moment (field-independent basis, Debye-Ang):
   XX=           -100.7383   YY=            -92.7225   ZZ=            -94.6653
   XY=            -15.8982   XZ=             -3.0782   YZ=             -0.2338

 Normal termination of Gaussian 16 at Thu May  6 12:09:42 2021.
