 Gaussian 16, Revision A.03,
 Gaussian 16:  EM64L-G16RevA.03 25-Dec-2016

 -------------
 #p 6-31g* mp2
 -------------

 ------------------------------------------------------
 Input file generated by CHIRIPA (05-May-2021 14:55:19)
 ------------------------------------------------------
 Symbolic Z-matrix:
 Charge =  0 Multiplicity = 1

                         Standard orientation:
 ---------------------------------------------------------------------
 Center     Atomic      Atomic             Coordinates (Angstroms)
 Number     Number       Type             X           Y           Z
 ---------------------------------------------------------------------
      1          6           0       -0.528373   -2.476826    1.312222
      2          6           0       -0.675270   -2.591782   -0.074042
      3          6           0       -1.375636   -1.621326   -0.796711
      4          6           0       -1.918593   -0.544201   -0.097933
      5          6           0       -1.789301   -0.401610    1.282733
      6          6           0       -1.084876   -1.384033    1.984999
      7          1           0        0.017265   -3.235348    1.865684
      8          1           0       -0.244146   -3.439381   -0.599163
      9          1           0       -1.504416   -1.685563   -1.870353
     10          1           0       -2.230275    0.454675    1.778451
     11          1           0       -0.972373   -1.292162    3.061543
     12          7           0       -2.662188    0.489512   -0.852191
     13          8           0       -3.131071    1.428873   -0.213139
     14          8           0       -2.762054    0.340802   -2.068147
     15          6           0        2.095719    1.640669   -0.156371
     16          6           0        1.067350    2.160507    0.848722
     17          6           0        0.670791    3.614391    0.590344
     18          1           0        2.989700    2.278154   -0.119564
     19          1           0        1.686070    1.735092   -1.171588
     20          1           0        1.478271    2.063850    1.861845
     21          1           0        0.175788    1.521596    0.809656
     22          1           0        0.236559    3.723536   -0.408721
     23          1           0        1.546442    4.268871    0.649446
     24          1           0       -0.065147    3.965594    1.320351
     25          6           0        2.502143    0.188630    0.088845
     26          6           0        3.530512   -0.331209   -0.916247
     27          6           0        3.927071   -1.785092   -0.657869
     28          1           0        2.911792    0.094207    1.104063
     29          1           0        1.608162   -0.448855    0.052039
     30          1           0        4.422073    0.307703   -0.877181
     31          1           0        3.119592   -0.234551   -1.929370
     32          1           0        3.051420   -2.439572   -0.716971
     33          1           0        4.361303   -1.894237    0.341196
     34          1           0        4.663010   -2.136295   -1.387876
 ---------------------------------------------------------------------

 SCF Done:  E(RHF) =  -669.534757267     A.U. after   15 cycles
 E2 =    -0.2095463305D+01 EUMP2 =    -0.67163022057107D+03

 The electronic state is 1-A.
 Alpha  occ. eigenvalues --  -20.60904 -20.60890 -15.85947 -11.31326 -11.27924
 Alpha  occ. eigenvalues --  -11.27890 -11.27646 -11.26929 -11.26888 -11.21757
 Alpha  occ. eigenvalues --  -11.21454 -11.21404 -11.21360 -11.21263 -11.20706
 Alpha  occ. eigenvalues --   -1.59971  -1.39524  -1.19531  -1.08905  -1.08415
 Alpha  occ. eigenvalues --   -1.04931  -1.03528  -0.95969  -0.95734  -0.86989
 Alpha  occ. eigenvalues --   -0.86317  -0.82559  -0.79612  -0.78234  -0.77605
 Alpha  occ. eigenvalues --   -0.72163  -0.71306  -0.70613  -0.65169  -0.65075
 Alpha  occ. eigenvalues --   -0.64908  -0.62269  -0.60941  -0.59363  -0.57584
 Alpha  occ. eigenvalues --   -0.55411  -0.55272  -0.53386  -0.53000  -0.52630
 Alpha  occ. eigenvalues --   -0.52403  -0.49927  -0.48926  -0.48919  -0.47952
 Alpha  occ. eigenvalues --   -0.46695  -0.45734  -0.45552  -0.44894  -0.43755
 Alpha  occ. eigenvalues --   -0.37450  -0.36452
 Alpha virt. eigenvalues --    0.04912   0.11002   0.16398   0.21007   0.22885
 Alpha virt. eigenvalues --    0.23969   0.26488   0.27116   0.27477   0.27943
 Alpha virt. eigenvalues --    0.28192   0.30300   0.31538   0.31874   0.32192

 Mulliken charges:
               1
     1  C   -0.169684
     2  C   -0.219718
     3  C   -0.171846
     4  C    0.162098
     5  C   -0.175823
     6  C   -0.214126
     7  H    0.227173
     8  H    0.224730
     9  H    0.276319
    10  H    0.276794
    11  H    0.224720
    12  N    0.488512
    13  O   -0.459880
    14  O   -0.460201
    15  C   -0.298158
    16  C   -0.306209
    17  C   -0.474369
    18  H    0.149167
    19  H    0.151919
    20  H    0.146251
    21  H    0.155535
    22  H    0.161917
    23  H    0.152522
    24  H    0.160907
    25  C   -0.305188
    26  C   -0.299165
    27  C   -0.474431
    28  H    0.144927
    29  H    0.157127
    30  H    0.152920
    31  H    0.152798
    32  H    0.147369
    33  H    0.153931
    34  H    0.161162
 Sum of Mulliken charges =  -0.00000

 Dipole moment (field-independent basis, Debye):
    X=              2.4411    Y=             -3.6557    Z=              2.6504  Tot=              5.1330
 Quadrupole moment (field-independent basis, Debye-Ang):
   XX=           -105.3795   YY=            -90.9217   ZZ=            -91.4128
   XY=              5.7608   XZ=             -5.9224   YZ=              1.3024

 Normal termination of Gaussian 16 at Thu May  6 09:15:40 2021.
