 Gaussian 16, Revision A.03,
 Gaussian 16:  EM64L-G16RevA.03 25-Dec-2016

 -------------
 #p 6-31g* mp2
 -------------

 ------------------------------------------------------
 Input file generated by CHIRIPA (05-May-2021 14:53:15)
 ------------------------------------------------------
 Symbolic Z-matrix:
 Charge =  0 Multiplicity = 1

                         Standard orientation:
 ---------------------------------------------------------------------
 Center     Atomic      Atomic             Coordinates (Angstroms)
 Number     Number       Type             X           Y           Z
 ---------------------------------------------------------------------
      1          6           0        2.317101    0.556917   -0.559597
      2          6           0        2.199933    2.056653   -0.833552
      3          6           0        0.822523    2.454732   -1.364653
      4          1           0        2.105529    0.003969   -1.485032
      5          1           0        1.544748    0.262043    0.164223
      6          1           0        2.973163    2.348870   -1.555591
      7          1           0        2.411996    2.606101    0.092597
      8          1           0        0.041092    2.191254   -0.644552
      9          1           0        0.605447    1.932562   -2.302105
     10          1           0        0.760795    3.530991   -1.553640
     11          6           0        3.688374    0.143467   -0.028187
     12          6           0        3.805541   -1.356268    0.245768
     13          6           0        5.182951   -1.754348    0.776869
     14          1           0        4.460726    0.438342   -0.752007
     15          1           0        3.899945    0.696416    0.897249
     16          1           0        3.593478   -1.905716   -0.680381
     17          1           0        3.032311   -1.648486    0.967807
     18          1           0        5.400027   -1.232177    1.714321
     19          1           0        5.964382   -1.490869    0.056768
     20          1           0        5.244679   -2.830606    0.965857
     21          6           0       -2.692716   -1.928520   -1.643052
     22          6           0       -2.699446   -0.555834   -1.911768
     23          6           0       -2.508293    0.370192   -0.881969
     24          6           0       -2.312358   -0.113595    0.410644
     25          6           0       -2.300347   -1.475000    0.710181
     26          6           0       -2.493539   -2.382921   -0.335240
     27          1           0       -2.842000   -2.640847   -2.449091
     28          1           0       -2.853897   -0.200068   -2.926470
     29          1           0       -2.508822    1.438382   -1.061935
     30          1           0       -2.143937   -1.799379    1.731812
     31          1           0       -2.487822   -3.448391   -0.123609
     32          7           0       -2.108914    0.857164    1.509115
     33          8           0       -1.938360    0.405394    2.639360
     34          8           0       -2.123863    2.051432    1.219053
 ---------------------------------------------------------------------

 SCF Done:  E(RHF) =  -669.536073328     A.U. after   15 cycles
 E2 =    -0.2092565353D+01 EUMP2 =    -0.67162863868126D+03

 The electronic state is 1-A.
 Alpha  occ. eigenvalues --  -20.60952 -20.60943 -15.85961 -11.31237 -11.27811
 Alpha  occ. eigenvalues --  -11.27784 -11.27538 -11.26797 -11.26781 -11.21512
 Alpha  occ. eigenvalues --  -11.21307 -11.21224 -11.21163 -11.20988 -11.20710
 Alpha  occ. eigenvalues --   -1.60004  -1.39562  -1.19407  -1.08822  -1.08240
 Alpha  occ. eigenvalues --   -1.04795  -1.03330  -0.95795  -0.95659  -0.86813
 Alpha  occ. eigenvalues --   -0.86198  -0.82502  -0.79412  -0.78066  -0.77555
 Alpha  occ. eigenvalues --   -0.72186  -0.71321  -0.70521  -0.65068  -0.64868
 Alpha  occ. eigenvalues --   -0.64793  -0.62154  -0.60712  -0.59157  -0.57402
 Alpha  occ. eigenvalues --   -0.55315  -0.55060  -0.53139  -0.52905  -0.52473
 Alpha  occ. eigenvalues --   -0.52199  -0.49754  -0.48942  -0.48933  -0.47727
 Alpha  occ. eigenvalues --   -0.46449  -0.45618  -0.45536  -0.44850  -0.43591
 Alpha  occ. eigenvalues --   -0.37378  -0.36371
 Alpha virt. eigenvalues --    0.04941   0.11204   0.16414   0.21306   0.23022
 Alpha virt. eigenvalues --    0.24473   0.26625   0.26804   0.27616   0.27913
 Alpha virt. eigenvalues --    0.28808   0.30412   0.31651   0.31873   0.32175

 Mulliken charges:
               1
     1  C   -0.297609
     2  C   -0.299172
     3  C   -0.484998
     4  H    0.145908
     5  H    0.149373
     6  H    0.149486
     7  H    0.157080
     8  H    0.167593
     9  H    0.145425
    10  H    0.161199
    11  C   -0.298384
    12  C   -0.299384
    13  C   -0.475611
    14  H    0.148555
    15  H    0.152513
    16  H    0.149157
    17  H    0.152306
    18  H    0.156787
    19  H    0.154698
    20  H    0.158817
    21  C   -0.170216
    22  C   -0.219399
    23  C   -0.169341
    24  C    0.158476
    25  C   -0.170903
    26  C   -0.218415
    27  H    0.225789
    28  H    0.223870
    29  H    0.277493
    30  H    0.275452
    31  H    0.223583
    32  N    0.487656
    33  O   -0.458814
    34  O   -0.458972
 Sum of Mulliken charges =  -0.00000

 Dipole moment (field-independent basis, Debye):
    X=             -0.8128    Y=             -3.3997    Z=             -3.7632  Tot=              5.1361
 Quadrupole moment (field-independent basis, Debye-Ang):
   XX=            -93.0557   YY=            -91.5214   ZZ=            -95.5698
   XY=              8.2132   XZ=              8.6600   YZ=             -3.2101

 Normal termination of Gaussian 16 at Thu May  6 12:10:14 2021.
