 Gaussian 16, Revision A.03,
 Gaussian 16:  EM64L-G16RevA.03 25-Dec-2016

 -------------
 #p 6-31g* mp2
 -------------

 ------------------------------------------------------
 Input file generated by CHIRIPA (05-May-2021 14:51:09)
 ------------------------------------------------------
 Symbolic Z-matrix:
 Charge =  0 Multiplicity = 1

                         Standard orientation:
 ---------------------------------------------------------------------
 Center     Atomic      Atomic             Coordinates (Angstroms)
 Number     Number       Type             X           Y           Z
 ---------------------------------------------------------------------
      1          6           0        3.979294   -0.617620   -0.088331
      2          6           0        2.853561   -1.571508   -0.489339
      3          6           0        3.268285   -3.041130   -0.411821
      4          1           0        4.846929   -0.790096   -0.739796
      5          1           0        4.304268   -0.854412    0.934272
      6          1           0        2.529865   -1.332087   -1.510375
      7          1           0        1.988438   -1.396609    0.163033
      8          1           0        3.571762   -3.302542    0.607084
      9          1           0        4.116265   -3.237653   -1.075832
     10          1           0        2.448575   -3.705473   -0.702651
     11          6           0        3.579995    0.855148   -0.160736
     12          6           0        4.705729    1.809036    0.240272
     13          6           0        4.291004    3.278657    0.162754
     14          1           0        3.255021    1.091940   -1.183339
     15          1           0        2.712361    1.027624    0.490729
     16          1           0        5.570852    1.634137   -0.412100
     17          1           0        5.029425    1.569615    1.261308
     18          1           0        3.443025    3.475181    0.826765
     19          1           0        3.987528    3.540070   -0.856151
     20          1           0        5.110715    3.943001    0.453585
     21          6           0       -4.511173    0.011296    0.301686
     22          6           0       -5.211808    0.958792   -0.672659
     23          6           0       -6.674642    1.209196   -0.304955
     24          1           0       -5.052923   -0.944098    0.327649
     25          1           0       -4.568699    0.430893    1.315601
     26          1           0       -5.151771    0.538206   -1.684646
     27          1           0       -4.668215    1.911975   -0.696450
     28          1           0       -6.750581    1.651376    0.693700
     29          1           0       -7.236885    0.269801   -0.300111
     30          1           0       -7.156239    1.889168   -1.014576
     31          6           0       -3.048116   -0.248824   -0.052619
     32          6           0       -2.347482   -1.196320    0.921726
     33          6           0       -0.884647   -1.446724    0.554022
     34          1           0       -2.990592   -0.668421   -1.066535
     35          1           0       -2.506366    0.706569   -0.078582
     36          1           0       -2.891074   -2.149503    0.945517
     37          1           0       -2.407518   -0.775734    1.933713
     38          1           0       -0.322405   -0.507330    0.549179
     39          1           0       -0.808708   -1.888904   -0.444633
     40          1           0       -0.403050   -2.126696    1.263643
 ---------------------------------------------------------------------

 SCF Done:  E(RHF) =  -470.733018642     A.U. after   11 cycles
 E2 =    -0.1582779852D+01 EUMP2 =    -0.47231579849424D+03

 The electronic state is 1-A.
 Alpha  occ. eigenvalues --  -11.21613 -11.21608 -11.21575 -11.21416 -11.21408
 Alpha  occ. eigenvalues --  -11.21357 -11.21352 -11.21273 -11.21101 -11.21077
 Alpha  occ. eigenvalues --  -11.21058 -11.20975  -1.08445  -1.08359  -1.03559
 Alpha  occ. eigenvalues --   -1.03444  -0.96011  -0.95909  -0.87043  -0.86918
 Alpha  occ. eigenvalues --   -0.79711  -0.79437  -0.78281  -0.78134  -0.65082
 Alpha  occ. eigenvalues --   -0.64988  -0.60965  -0.60846  -0.59393  -0.59260
 Alpha  occ. eigenvalues --   -0.57615  -0.57518  -0.55290  -0.55210  -0.52736
 Alpha  occ. eigenvalues --   -0.52601  -0.52443  -0.52320  -0.49969  -0.49838
 Alpha  occ. eigenvalues --   -0.48053  -0.47729  -0.46693  -0.46508  -0.45898
 Alpha  occ. eigenvalues --   -0.45726  -0.45669  -0.45495  -0.43781  -0.43698
 Alpha virt. eigenvalues --    0.22026   0.23011   0.23786   0.24603   0.25565
 Alpha virt. eigenvalues --    0.26644   0.26985   0.27485   0.27763   0.29187
 Alpha virt. eigenvalues --    0.30827   0.31084   0.31697   0.31775   0.32278

 Mulliken charges:
               1
     1  C   -0.297651
     2  C   -0.308981
     3  C   -0.475496
     4  H    0.149060
     5  H    0.148876
     6  H    0.150579
     7  H    0.166264
     8  H    0.154342
     9  H    0.154512
    10  H    0.160001
    11  C   -0.298554
    12  C   -0.299543
    13  C   -0.475650
    14  H    0.149491
    15  H    0.148951
    16  H    0.152047
    17  H    0.151852
    18  H    0.154845
    19  H    0.155137
    20  H    0.160183
    21  C   -0.298310
    22  C   -0.299638
    23  C   -0.475711
    24  H    0.149669
    25  H    0.149493
    26  H    0.151949
    27  H    0.152000
    28  H    0.155180
    29  H    0.155180
    30  H    0.160294
    31  C   -0.298460
    32  C   -0.300611
    33  C   -0.477076
    34  H    0.149601
    35  H    0.149830
    36  H    0.151947
    37  H    0.151753
    38  H    0.155770
    39  H    0.156882
    40  H    0.159994
 Sum of Mulliken charges =  -0.00000

 Dipole moment (field-independent basis, Debye):
    X=             -0.0440    Y=             -0.0035    Z=              0.0041  Tot=              0.0443
 Quadrupole moment (field-independent basis, Debye-Ang):
   XX=            -86.0171   YY=            -85.5186   ZZ=            -83.5377
   XY=              0.7597   XZ=              0.0426   YZ=              0.3844

 Normal termination of Gaussian 16 at Wed May  5 21:22:30 2021.
