 Gaussian 16, Revision A.03,
 Gaussian 16:  EM64L-G16RevA.03 25-Dec-2016

 -------------
 #p 6-31g* mp2
 -------------

 ------------------------------------------------------
 Input file generated by CHIRIPA (05-May-2021 14:55:23)
 ------------------------------------------------------
 Symbolic Z-matrix:
 Charge =  0 Multiplicity = 1

                         Standard orientation:
 ---------------------------------------------------------------------
 Center     Atomic      Atomic             Coordinates (Angstroms)
 Number     Number       Type             X           Y           Z
 ---------------------------------------------------------------------
      1          6           0        3.282995    2.470658    0.214234
      2          6           0        2.037715    1.878786    0.449785
      3          6           0        1.840777    0.516890    0.202795
      4          6           0        2.915807   -0.226657   -0.281703
      5          6           0        4.168393    0.334099   -0.526387
      6          6           0        4.342492    1.697788   -0.272243
      7          1           0        3.427110    3.529308    0.408880
      8          1           0        1.213099    2.476557    0.827571
      9          1           0        0.887207    0.033146    0.376328
     10          1           0        4.971478   -0.287598   -0.903170
     11          1           0        5.310693    2.154767   -0.456100
     12          7           0        2.719407   -1.669384   -0.546967
     13          8           0        3.682494   -2.302661   -0.973653
     14          8           0        1.606101   -2.139599   -0.323172
     15          6           0       -3.598002   -0.359492    0.962930
     16          6           0       -2.186013   -0.041887    1.456282
     17          6           0       -1.849365   -0.739920    2.774317
     18          1           0       -4.323803   -0.062810    1.732435
     19          1           0       -3.699949   -1.446600    0.839658
     20          1           0       -2.086324    1.044410    1.577263
     21          1           0       -1.463500   -0.339184    0.685433
     22          1           0       -1.921039   -1.826784    2.663912
     23          1           0       -2.547402   -0.435330    3.560810
     24          1           0       -0.835442   -0.499006    3.108651
     25          6           0       -3.949329    0.331020   -0.353691
     26          6           0       -5.361319    0.013416   -0.847043
     27          6           0       -5.697965    0.711447   -2.165077
     28          1           0       -3.847382    1.418129   -0.230419
     29          1           0       -3.223527    0.034339   -1.123195
     30          1           0       -6.083831    0.310712   -0.076194
     31          1           0       -5.461007   -1.072881   -0.968024
     32          1           0       -4.999929    0.406857   -2.951570
     33          1           0       -5.626291    1.798312   -2.054673
     34          1           0       -6.711889    0.470534   -2.499412
 ---------------------------------------------------------------------

 SCF Done:  E(RHF) =  -669.535756277     A.U. after   15 cycles
 E2 =    -0.2091330102D+01 EUMP2 =    -0.67162708637827D+03

 The electronic state is 1-A.
 Alpha  occ. eigenvalues --  -20.60763 -20.60757 -15.85813 -11.31150 -11.27728
 Alpha  occ. eigenvalues --  -11.27687 -11.27470 -11.26743 -11.26721 -11.21984
 Alpha  occ. eigenvalues --  -11.21654 -11.21548 -11.21477 -11.21231 -11.21110
 Alpha  occ. eigenvalues --   -1.59837  -1.39391  -1.19326  -1.08729  -1.08587
 Alpha  occ. eigenvalues --   -1.04726  -1.03690  -0.96105  -0.95566  -0.87119
 Alpha  occ. eigenvalues --   -0.86128  -0.82398  -0.79787  -0.78419  -0.77440
 Alpha  occ. eigenvalues --   -0.72034  -0.71158  -0.70445  -0.65222  -0.64979
 Alpha  occ. eigenvalues --   -0.64723  -0.62111  -0.61052  -0.59486  -0.57737
 Alpha  occ. eigenvalues --   -0.55373  -0.55224  -0.53060  -0.52853  -0.52783
 Alpha  occ. eigenvalues --   -0.52532  -0.50025  -0.48792  -0.48789  -0.48084
 Alpha  occ. eigenvalues --   -0.46796  -0.45943  -0.45850  -0.44802  -0.43936
 Alpha  occ. eigenvalues --   -0.37314  -0.36328
 Alpha virt. eigenvalues --    0.05079   0.11314   0.16577   0.20179   0.22912
 Alpha virt. eigenvalues --    0.23835   0.25732   0.26353   0.27718   0.27938
 Alpha virt. eigenvalues --    0.29386   0.29930   0.31521   0.31717   0.31865

 Mulliken charges:
               1
     1  C   -0.170495
     2  C   -0.223293
     3  C   -0.180767
     4  C    0.157665
     5  C   -0.169888
     6  C   -0.219139
     7  H    0.225470
     8  H    0.224323
     9  H    0.291470
    10  H    0.275464
    11  H    0.223296
    12  N    0.486726
    13  O   -0.460267
    14  O   -0.461699
    15  C   -0.296862
    16  C   -0.309476
    17  C   -0.475321
    18  H    0.149992
    19  H    0.155196
    20  H    0.144642
    21  H    0.156049
    22  H    0.163807
    23  H    0.155303
    24  H    0.157455
    25  C   -0.299377
    26  C   -0.299995
    27  C   -0.475979
    28  H    0.146293
    29  H    0.152287
    30  H    0.151575
    31  H    0.154389
    32  H    0.156458
    33  H    0.153775
    34  H    0.160922
 Sum of Mulliken charges =  -0.00000

 Dipole moment (field-independent basis, Debye):
    X=              0.5870    Y=              4.9698    Z=              0.9355  Tot=              5.0910
 Quadrupole moment (field-independent basis, Debye-Ang):
   XX=            -85.9288   YY=            -97.1544   ZZ=            -96.2440
   XY=             14.7292   XZ=              0.3213   YZ=             -0.8251

 Normal termination of Gaussian 16 at Thu May  6 04:43:24 2021.
