 Gaussian 16, Revision A.03,
 Gaussian 16:  EM64L-G16RevA.03 25-Dec-2016

 -------------
 #p 6-31g* mp2
 -------------

 ------------------------------------------------------
 Input file generated by CHIRIPA (05-May-2021 14:55:21)
 ------------------------------------------------------
 Symbolic Z-matrix:
 Charge =  0 Multiplicity = 1

                         Standard orientation:
 ---------------------------------------------------------------------
 Center     Atomic      Atomic             Coordinates (Angstroms)
 Number     Number       Type             X           Y           Z
 ---------------------------------------------------------------------
      1          6           0        2.039215   -2.617901    0.712947
      2          6           0        0.981784   -1.707285    0.617345
      3          6           0        1.215710   -0.386360    0.223664
      4          6           0        2.525366   -0.008365   -0.068250
      5          6           0        3.599939   -0.892227    0.017589
      6          6           0        3.342620   -2.208188    0.413292
      7          1           0        1.848409   -3.642099    1.019553
      8          1           0       -0.031478   -2.022679    0.849446
      9          1           0        0.415639    0.339263    0.141347
     10          1           0        4.599250   -0.548383   -0.220252
     11          1           0        4.165779   -2.913220    0.486668
     12          7           0        2.785396    1.387412   -0.486092
     13          8           0        3.948287    1.695568   -0.737805
     14          8           0        1.821391    2.146836   -0.553973
     15          6           0       -3.015666   -0.416068   -0.193240
     16          6           0       -4.258112   -1.288029   -0.377623
     17          6           0       -3.917834   -2.728133   -0.762469
     18          1           0       -2.431270   -0.420188   -1.123515
     19          1           0       -2.375020   -0.861689    0.580314
     20          1           0       -4.896891   -0.840151   -1.149623
     21          1           0       -4.839716   -1.281677    0.553135
     22          1           0       -3.299898   -3.197518    0.009822
     23          1           0       -3.357396   -2.753483   -1.702611
     24          1           0       -4.820580   -3.333812   -0.889210
     25          6           0       -3.339558    1.026386    0.191664
     26          6           0       -2.097112    1.898348    0.376046
     27          6           0       -2.437390    3.338452    0.760893
     28          1           0       -3.980205    1.472008   -0.581891
     29          1           0       -3.923954    1.030507    1.121938
     30          1           0       -1.515508    1.891997   -0.554712
     31          1           0       -1.458334    1.450469    1.148046
     32          1           0       -2.997828    3.363801    1.701034
     33          1           0       -3.055326    3.807836   -0.011398
     34          1           0       -1.534644    3.944131    0.887634
 ---------------------------------------------------------------------

 SCF Done:  E(RHF) =  -669.535491752     A.U. after   15 cycles
 E2 =    -0.2093118233D+01 EUMP2 =    -0.67162860998422D+03

 The electronic state is 1-A.
 Alpha  occ. eigenvalues --  -20.60717 -20.60712 -15.85762 -11.31061 -11.27655
 Alpha  occ. eigenvalues --  -11.27538 -11.27390 -11.26665 -11.26611 -11.22175
 Alpha  occ. eigenvalues --  -11.22085 -11.21789 -11.21709 -11.21698 -11.20928
 Alpha  occ. eigenvalues --   -1.59789  -1.39343  -1.19240  -1.08898  -1.08653
 Alpha  occ. eigenvalues --   -1.04634  -1.03870  -0.96319  -0.95494  -0.87339
 Alpha  occ. eigenvalues --   -0.86040  -0.82330  -0.79990  -0.78803  -0.77323
 Alpha  occ. eigenvalues --   -0.71983  -0.71109  -0.70356  -0.65533  -0.64891
 Alpha  occ. eigenvalues --   -0.64651  -0.61996  -0.61259  -0.59696  -0.57918
 Alpha  occ. eigenvalues --   -0.55623  -0.55160  -0.53005  -0.52978  -0.52842
 Alpha  occ. eigenvalues --   -0.52593  -0.50269  -0.48750  -0.48740  -0.48241
 Alpha  occ. eigenvalues --   -0.47018  -0.46222  -0.46132  -0.44760  -0.44144
 Alpha  occ. eigenvalues --   -0.37235  -0.36233
 Alpha virt. eigenvalues --    0.05125   0.11386   0.16627   0.19713   0.22847
 Alpha virt. eigenvalues --    0.23556   0.24792   0.25914   0.27490   0.28310
 Alpha virt. eigenvalues --    0.29623   0.30583   0.31425   0.31563   0.32296

 Mulliken charges:
               1
     1  C   -0.170633
     2  C   -0.226959
     3  C   -0.181507
     4  C    0.155656
     5  C   -0.169955
     6  C   -0.219321
     7  H    0.225315
     8  H    0.227331
     9  H    0.294494
    10  H    0.275047
    11  H    0.222873
    12  N    0.487466
    13  O   -0.460553
    14  O   -0.462455
    15  C   -0.304343
    16  C   -0.299390
    17  C   -0.476016
    18  H    0.152258
    19  H    0.140201
    20  H    0.156123
    21  H    0.153665
    22  H    0.148719
    23  H    0.156952
    24  H    0.163407
    25  C   -0.297140
    26  C   -0.310114
    27  C   -0.475677
    28  H    0.153304
    29  H    0.150392
    30  H    0.164385
    31  H    0.145722
    32  H    0.152775
    33  H    0.156064
    34  H    0.171914
 Sum of Mulliken charges =  -0.00000

 Dipole moment (field-independent basis, Debye):
    X=             -1.0882    Y=             -4.7146    Z=              1.3804  Tot=              5.0317
 Quadrupole moment (field-independent basis, Debye-Ang):
   XX=            -94.2370   YY=            -95.6355   ZZ=            -94.9024
   XY=            -13.8318   XZ=              3.6814   YZ=             -0.1119

 Normal termination of Gaussian 16 at Thu May  6 20:44:22 2021.
