 Gaussian 16, Revision A.03,
 Gaussian 16:  EM64L-G16RevA.03 25-Dec-2016

 -------------
 #p 6-31g* mp2
 -------------

 ------------------------------------------------------
 Input file generated by CHIRIPA (05-May-2021 14:57:25)
 ------------------------------------------------------
 Symbolic Z-matrix:
 Charge =  0 Multiplicity = 1

                         Standard orientation:
 ---------------------------------------------------------------------
 Center     Atomic      Atomic             Coordinates (Angstroms)
 Number     Number       Type             X           Y           Z
 ---------------------------------------------------------------------
      1          6           0       -2.033543    1.947708    1.538792
      2          6           0       -2.464705    0.786176    2.187994
      3          6           0       -3.032860   -0.264228    1.461083
      4          6           0       -3.155177   -0.118783    0.080078
      5          6           0       -2.735120    1.025927   -0.595557
      6          6           0       -2.169886    2.063672    0.151534
      7          1           0       -1.593321    2.758770    2.111312
      8          1           0       -2.360070    0.693350    3.265250
      9          1           0       -3.375053   -1.174524    1.938245
     10          1           0       -2.852607    1.089313   -1.670544
     11          1           0       -1.835921    2.964572   -0.355311
     12          7           0       -3.755111   -1.224097   -0.700152
     13          8           0       -3.851743   -1.071352   -1.915869
     14          8           0       -4.117348   -2.222259   -0.081205
     15          6           0        5.203291   -1.072654    0.650245
     16          6           0        3.978695   -1.685971    0.934371
     17          6           0        2.782847   -1.135604    0.463636
     18          6           0        2.848737    0.034185   -0.291706
     19          6           0        4.053186    0.668756   -0.591561
     20          6           0        5.236569    0.100685   -0.110472
     21          1           0        6.127412   -1.507069    1.019946
     22          1           0        3.949823   -2.597271    1.524916
     23          1           0        1.821001   -1.589672    0.668794
     24          1           0        4.050066    1.576440   -1.182761
     25          1           0        6.186160    0.579170   -0.332680
     26          7           0        1.589345    0.626206   -0.795533
     27          8           0        1.674327    1.657421   -1.458867
     28          8           0        0.541097    0.047808   -0.517559
 ---------------------------------------------------------------------

 SCF Done:  E(RHF) =  -868.338112682     A.U. after   16 cycles
 E2 =    -0.2600519617D+01 EUMP2 =    -0.87093863229898D+03

 The electronic state is 1-A.
 Alpha  occ. eigenvalues --  -20.61234 -20.61185 -20.59683 -20.59659 -15.86240
 Alpha  occ. eigenvalues --  -15.84716 -11.31506 -11.29798 -11.28072 -11.28045
 Alpha  occ. eigenvalues --  -11.27784 -11.27058 -11.27038 -11.26464 -11.26280
 Alpha  occ. eigenvalues --  -11.26146 -11.25492 -11.25250  -1.60285  -1.58750
 Alpha  occ. eigenvalues --   -1.39839  -1.38313  -1.19670  -1.17958  -1.09086
 Alpha  occ. eigenvalues --   -1.07442  -1.05055  -1.03346  -0.95939  -0.94323
 Alpha  occ. eigenvalues --   -0.86457  -0.84797  -0.82772  -0.81176  -0.77832
 Alpha  occ. eigenvalues --   -0.76234  -0.72486  -0.71600  -0.70960  -0.70774
 Alpha  occ. eigenvalues --   -0.70049  -0.69182  -0.65324  -0.65055  -0.63665
 Alpha  occ. eigenvalues --   -0.63422  -0.62400  -0.60743  -0.55563  -0.53961
 Alpha  occ. eigenvalues --   -0.53396  -0.53145  -0.51730  -0.51502  -0.49241
 Alpha  occ. eigenvalues --   -0.49135  -0.47718  -0.47687  -0.45253  -0.43782
 Alpha  occ. eigenvalues --   -0.37649  -0.36655  -0.35948  -0.34806
 Alpha virt. eigenvalues --    0.04687   0.06311   0.11001   0.12741   0.16209
 Alpha virt. eigenvalues --    0.17842   0.21167   0.22616   0.27081   0.28054
 Alpha virt. eigenvalues --    0.28556   0.29455   0.30735   0.32086   0.32276

 Mulliken charges:
               1
     1  C   -0.171947
     2  C   -0.219015
     3  C   -0.173289
     4  C    0.160393
     5  C   -0.152761
     6  C   -0.205217
     7  H    0.218888
     8  H    0.215099
     9  H    0.268702
    10  H    0.274083
    11  H    0.224245
    12  N    0.488046
    13  O   -0.461563
    14  O   -0.467334
    15  C   -0.170451
    16  C   -0.218705
    17  C   -0.170996
    18  C    0.157632
    19  C   -0.171174
    20  C   -0.218630
    21  H    0.226679
    22  H    0.224909
    23  H    0.277276
    24  H    0.275014
    25  H    0.224070
    26  N    0.488838
    27  O   -0.465497
    28  O   -0.457297
 Sum of Mulliken charges =  -0.00000

 Dipole moment (field-independent basis, Debye):
    X=              6.8524    Y=              1.8679    Z=              4.3014  Tot=              8.3034
 Quadrupole moment (field-independent basis, Debye-Ang):
   XX=            -93.4475   YY=           -102.7973   ZZ=           -102.3920
   XY=            -16.4779   XZ=             -5.8252   YZ=             -4.0202

 Normal termination of Gaussian 16 at Wed May  5 17:56:42 2021.
