 Gaussian 16, Revision A.03,
 Gaussian 16:  EM64L-G16RevA.03 25-Dec-2016

 -------------
 #p 6-31g* mp2
 -------------

 ------------------------------------------------------
 Input file generated by CHIRIPA (05-May-2021 14:51:09)
 ------------------------------------------------------
 Symbolic Z-matrix:
 Charge =  0 Multiplicity = 1

                         Standard orientation:
 ---------------------------------------------------------------------
 Center     Atomic      Atomic             Coordinates (Angstroms)
 Number     Number       Type             X           Y           Z
 ---------------------------------------------------------------------
      1          6           0       -2.692139   -0.390633   -0.502958
      2          6           0       -3.900278    0.540974   -0.400521
      3          6           0       -4.335047    1.096568   -1.757018
      4          1           0       -1.855810    0.153143   -0.963184
      5          1           0       -2.934950   -1.221509   -1.179777
      6          1           0       -3.655739    1.369105    0.276987
      7          1           0       -4.733768   -0.005025    0.059690
      8          1           0       -4.605586    0.282944   -2.437773
      9          1           0       -3.521431    1.664882   -2.219241
     10          1           0       -5.200152    1.760000   -1.660531
     11          6           0       -2.245610   -0.954093    0.844948
     12          6           0       -1.037471   -1.885701    0.742510
     13          6           0       -0.602702   -2.441294    2.099008
     14          1           0       -2.002799   -0.123217    1.521766
     15          1           0       -3.081939   -1.497869    1.305174
     16          1           0       -0.203981   -1.339701    0.282300
     17          1           0       -1.282010   -2.713831    0.065003
     18          1           0       -1.416318   -3.009608    2.561230
     19          1           0       -0.332163   -1.627670    2.779762
     20          1           0        0.262403   -3.104726    2.002521
     21          6           0        1.870171    1.092271    0.049603
     22          6           0        2.266273    2.415873    0.704711
     23          6           0        1.057647    3.244726    1.140620
     24          1           0        1.231620    1.297731   -0.820446
     25          1           0        1.260301    0.510357    0.754465
     26          1           0        2.876372    2.994520   -0.000672
     27          1           0        2.904112    2.207247    1.573187
     28          1           0        0.450711    2.690130    1.863568
     29          1           0        0.422814    3.481876    0.280767
     30          1           0        1.363717    4.186657    1.606396
     31          6           0        3.067578    0.252455   -0.391593
     32          6           0        2.671475   -1.071147   -1.046700
     33          6           0        3.880102   -1.900000   -1.482610
     34          1           0        3.677448    0.834369   -1.096455
     35          1           0        3.706129    0.046995    0.478456
     36          1           0        2.033637   -0.862521   -1.915177
     37          1           0        2.061376   -1.649793   -0.341318
     38          1           0        4.514935   -2.137150   -0.622756
     39          1           0        4.487037   -1.345404   -2.205558
     40          1           0        3.574032   -2.841931   -1.948386
 ---------------------------------------------------------------------

 SCF Done:  E(RHF) =  -470.732630147     A.U. after   11 cycles
 E2 =    -0.1584473514D+01 EUMP2 =    -0.47231710366088D+03

 The electronic state is 1-A.
 Alpha  occ. eigenvalues --  -11.21676 -11.21615 -11.21562 -11.21481 -11.21480
 Alpha  occ. eigenvalues --  -11.21413 -11.21356 -11.21297 -11.21154 -11.21094
 Alpha  occ. eigenvalues --  -11.21091 -11.21049  -1.08520  -1.08371  -1.03590
 Alpha  occ. eigenvalues --   -1.03498  -0.96040  -0.95958  -0.87055  -0.86973
 Alpha  occ. eigenvalues --   -0.79695  -0.79549  -0.78444  -0.78076  -0.65272
 Alpha  occ. eigenvalues --   -0.64905  -0.61004  -0.60897  -0.59447  -0.59286
 Alpha  occ. eigenvalues --   -0.57655  -0.57561  -0.55353  -0.55224  -0.52738
 Alpha  occ. eigenvalues --   -0.52647  -0.52466  -0.52381  -0.49983  -0.49911
 Alpha  occ. eigenvalues --   -0.48077  -0.47853  -0.46876  -0.46646  -0.46136
 Alpha  occ. eigenvalues --   -0.45770  -0.45692  -0.45032  -0.43839  -0.43742
 Alpha virt. eigenvalues --    0.20356   0.22871   0.23737   0.24183   0.25087
 Alpha virt. eigenvalues --    0.26501   0.26976   0.27738   0.28431   0.30078
 Alpha virt. eigenvalues --    0.30193   0.31415   0.31687   0.31957   0.32083

 Mulliken charges:
               1
     1  C   -0.299210
     2  C   -0.299743
     3  C   -0.475584
     4  H    0.150902
     5  H    0.149250
     6  H    0.152280
     7  H    0.151782
     8  H    0.155058
     9  H    0.154800
    10  H    0.160191
    11  C   -0.297512
    12  C   -0.310959
    13  C   -0.476936
    14  H    0.148924
    15  H    0.149304
    16  H    0.164378
    17  H    0.151623
    18  H    0.155825
    19  H    0.154162
    20  H    0.159813
    21  C   -0.304218
    22  C   -0.299371
    23  C   -0.475814
    24  H    0.149678
    25  H    0.154421
    26  H    0.152357
    27  H    0.152338
    28  H    0.154647
    29  H    0.155031
    30  H    0.160837
    31  C   -0.297970
    32  C   -0.305251
    33  C   -0.475348
    34  H    0.149735
    35  H    0.149749
    36  H    0.151917
    37  H    0.158107
    38  H    0.155134
    39  H    0.155157
    40  H    0.160518
 Sum of Mulliken charges =  -0.00000

 Dipole moment (field-independent basis, Debye):
    X=              0.0443    Y=              0.0114    Z=             -0.0130  Tot=              0.0475
 Quadrupole moment (field-independent basis, Debye-Ang):
   XX=            -85.2024   YY=            -84.6879   ZZ=            -84.9373
   XY=              1.2529   XZ=              0.0056   YZ=             -0.1009

 Normal termination of Gaussian 16 at Thu May  6 03:42:27 2021.
