 Gaussian 16, Revision A.03,
 Gaussian 16:  EM64L-G16RevA.03 25-Dec-2016

 -------------
 #p 6-31g* mp2
 -------------

 ------------------------------------------------------
 Input file generated by CHIRIPA (05-May-2021 14:55:23)
 ------------------------------------------------------
 Symbolic Z-matrix:
 Charge =  0 Multiplicity = 1

                         Standard orientation:
 ---------------------------------------------------------------------
 Center     Atomic      Atomic             Coordinates (Angstroms)
 Number     Number       Type             X           Y           Z
 ---------------------------------------------------------------------
      1          6           0        1.501343   -2.131186    1.307997
      2          6           0        2.704820   -2.444372    0.667623
      3          6           0        3.406953   -1.465805   -0.042280
      4          6           0        2.874253   -0.178521   -0.091468
      5          6           0        1.677674    0.164540    0.536065
      6          6           0        0.992508   -0.830024    1.240294
      7          1           0        0.962499   -2.897574    1.857263
      8          1           0        3.102368   -3.454031    0.718513
      9          1           0        4.340828   -1.680887   -0.547291
     10          1           0        1.306459    1.179883    0.467532
     11          1           0        0.058101   -0.583930    1.736646
     12          7           0        3.608589    0.865912   -0.840007
     13          8           0        3.118105    1.992527   -0.868311
     14          8           0        4.660741    0.538147   -1.384234
     15          6           0       -4.040382    0.171712   -0.530848
     16          6           0       -4.314840   -1.320707   -0.342853
     17          6           0       -5.349776   -1.860448   -1.330466
     18          1           0       -4.981113    0.727986   -0.418912
     19          1           0       -3.693975    0.347073   -1.558781
     20          1           0       -4.659305   -1.493390    0.684834
     21          1           0       -3.373312   -1.873475   -0.455060
     22          1           0       -5.009940   -1.717189   -2.361286
     23          1           0       -6.303240   -1.334944   -1.214915
     24          1           0       -5.530760   -2.929073   -1.178327
     25          6           0       -3.007876    0.725966    0.449183
     26          6           0       -2.733419    2.218386    0.261188
     27          6           0       -1.698483    2.758127    1.248800
     28          1           0       -3.354284    0.550606    1.477115
     29          1           0       -2.067145    0.169692    0.337247
     30          1           0       -3.674946    2.771154    0.373394
     31          1           0       -2.388953    2.391069   -0.766500
     32          1           0       -0.745018    2.232624    1.133249
     33          1           0       -2.038317    2.614867    2.279619
     34          1           0       -1.517498    3.826751    1.096661
 ---------------------------------------------------------------------

 SCF Done:  E(RHF) =  -669.535420069     A.U. after   15 cycles
 E2 =    -0.2092137580D+01 EUMP2 =    -0.67162755764919D+03

 The electronic state is 1-A.
 Alpha  occ. eigenvalues --  -20.60761 -20.60755 -15.85812 -11.31177 -11.27754
 Alpha  occ. eigenvalues --  -11.27738 -11.27488 -11.26766 -11.26727 -11.22155
 Alpha  occ. eigenvalues --  -11.22118 -11.22068 -11.21883 -11.21778 -11.21474
 Alpha  occ. eigenvalues --   -1.59835  -1.39388  -1.19352  -1.09009  -1.08744
 Alpha  occ. eigenvalues --   -1.04760  -1.04080  -0.96543  -0.95581  -0.87558
 Alpha  occ. eigenvalues --   -0.86150  -0.82418  -0.80147  -0.78848  -0.77455
 Alpha  occ. eigenvalues --   -0.72031  -0.71158  -0.70471  -0.65648  -0.65002
 Alpha  occ. eigenvalues --   -0.64759  -0.62200  -0.61395  -0.59892  -0.58150
 Alpha  occ. eigenvalues --   -0.55863  -0.55247  -0.53211  -0.53106  -0.53046
 Alpha  occ. eigenvalues --   -0.52741  -0.50475  -0.48793  -0.48786  -0.48457
 Alpha  occ. eigenvalues --   -0.47170  -0.46371  -0.46279  -0.44794  -0.44334
 Alpha  occ. eigenvalues --   -0.37330  -0.36350
 Alpha virt. eigenvalues --    0.05058   0.11260   0.16452   0.19421   0.22706
 Alpha virt. eigenvalues --    0.23664   0.25376   0.26310   0.26555   0.28187
 Alpha virt. eigenvalues --    0.29103   0.29952   0.31275   0.31452   0.31752

 Mulliken charges:
               1
     1  C   -0.171340
     2  C   -0.218832
     3  C   -0.170336
     4  C    0.161192
     5  C   -0.181636
     6  C   -0.223202
     7  H    0.225945
     8  H    0.223485
     9  H    0.275612
    10  H    0.284016
    11  H    0.228181
    12  N    0.487933
    13  O   -0.460236
    14  O   -0.460498
    15  C   -0.298315
    16  C   -0.300161
    17  C   -0.476003
    18  H    0.151968
    19  H    0.152993
    20  H    0.150753
    21  H    0.150097
    22  H    0.157112
    23  H    0.156511
    24  H    0.160473
    25  C   -0.303306
    26  C   -0.300595
    27  C   -0.479351
    28  H    0.147917
    29  H    0.145844
    30  H    0.155373
    31  H    0.157521
    32  H    0.146327
    33  H    0.155572
    34  H    0.168988
 Sum of Mulliken charges =  -0.00000

 Dipole moment (field-independent basis, Debye):
    X=             -2.7320    Y=             -3.5984    Z=              2.5691  Tot=              5.1973
 Quadrupole moment (field-independent basis, Debye-Ang):
   XX=           -106.9437   YY=            -91.3202   ZZ=            -95.6979
   XY=            -13.7970   XZ=              6.1397   YZ=              0.5086

 Normal termination of Gaussian 16 at Thu May  6 12:36:01 2021.
