 Gaussian 16, Revision A.03,
 Gaussian 16:  EM64L-G16RevA.03 25-Dec-2016

 -------------
 #p 6-31g* mp2
 -------------

 ------------------------------------------------------
 Input file generated by CHIRIPA (05-May-2021 14:51:10)
 ------------------------------------------------------
 Symbolic Z-matrix:
 Charge =  0 Multiplicity = 1

                         Standard orientation:
 ---------------------------------------------------------------------
 Center     Atomic      Atomic             Coordinates (Angstroms)
 Number     Number       Type             X           Y           Z
 ---------------------------------------------------------------------
      1          6           0        2.320724   -0.977553    0.572629
      2          6           0        1.153506   -0.268905    1.260674
      3          6           0        0.095172   -1.241940    1.781180
      4          1           0        1.935119   -1.581873   -0.259868
      5          1           0        2.783078   -1.679419    1.280448
      6          1           0        0.694358    0.432424    0.552198
      7          1           0        1.541955    0.333949    2.091510
      8          1           0        0.532472   -1.934126    2.507987
      9          1           0       -0.319942   -1.835092    0.959929
     10          1           0       -0.730033   -0.714112    2.269333
     11          6           0        3.386940   -0.018109    0.046912
     12          6           0        4.554158   -0.726756   -0.641132
     13          6           0        5.612492    0.246279   -1.161639
     14          1           0        2.924586    0.683758   -0.660906
     15          1           0        3.772545    0.586211    0.879410
     16          1           0        4.165709   -1.329610   -1.471969
     17          1           0        5.013306   -1.428085    0.067343
     18          1           0        6.027606    0.839431   -0.340388
     19          1           0        5.175192    0.938465   -1.888446
     20          1           0        6.437697   -0.281549   -1.649792
     21          6           0       -2.335127    1.014863   -0.526691
     22          6           0       -2.207099    2.189424    0.443876
     23          6           0       -1.165510    3.215343   -0.003757
     24          1           0       -1.357207    0.525183   -0.630757
     25          1           0       -2.600410    1.397822   -1.521861
     26          1           0       -1.943492    1.804246    1.437237
     27          1           0       -3.185482    2.676247    0.545789
     28          1           0       -1.426945    3.627278   -0.983840
     29          1           0       -0.177900    2.750322   -0.087327
     30          1           0       -1.090363    4.046388    0.704464
     31          6           0       -3.372537   -0.019201   -0.092850
     32          6           0       -3.500565   -1.193763   -1.063417
     33          6           0       -4.542154   -2.219682   -0.615785
     34          1           0       -3.107254   -0.402161    0.902320
     35          1           0       -4.350458    0.470478    0.011215
     36          1           0       -2.522182   -1.680586   -1.165331
     37          1           0       -3.764171   -0.808585   -2.056778
     38          1           0       -5.529764   -1.754661   -0.532214
     39          1           0       -4.280719   -2.631616    0.364299
     40          1           0       -4.617300   -3.050727   -1.324005
 ---------------------------------------------------------------------

 SCF Done:  E(RHF) =  -470.732589775     A.U. after   11 cycles
 E2 =    -0.1584903191D+01 EUMP2 =    -0.47231749296604D+03

 The electronic state is 1-A.
 Alpha  occ. eigenvalues --  -11.21667 -11.21635 -11.21591 -11.21590 -11.21464
 Alpha  occ. eigenvalues --  -11.21403 -11.21360 -11.21299 -11.21183 -11.21091
 Alpha  occ. eigenvalues --  -11.21059 -11.21051  -1.08520  -1.08385  -1.03614
 Alpha  occ. eigenvalues --   -1.03500  -0.96060  -0.95946  -0.87063  -0.86978
 Alpha  occ. eigenvalues --   -0.79684  -0.79567  -0.78345  -0.78188  -0.65429
 Alpha  occ. eigenvalues --   -0.64834  -0.61116  -0.60805  -0.59387  -0.59324
 Alpha  occ. eigenvalues --   -0.57642  -0.57570  -0.55437  -0.55141  -0.52750
 Alpha  occ. eigenvalues --   -0.52659  -0.52467  -0.52385  -0.50026  -0.49872
 Alpha  occ. eigenvalues --   -0.48068  -0.47877  -0.46867  -0.46514  -0.46024
 Alpha  occ. eigenvalues --   -0.45809  -0.45716  -0.45318  -0.43823  -0.43758
 Alpha virt. eigenvalues --    0.19425   0.22743   0.23187   0.24825   0.24984
 Alpha virt. eigenvalues --    0.26108   0.26852   0.27717   0.28537   0.30259
 Alpha virt. eigenvalues --    0.30411   0.31306   0.31645   0.32212   0.32281

 Mulliken charges:
               1
     1  C   -0.298008
     2  C   -0.309767
     3  C   -0.479552
     4  H    0.149408
     5  H    0.149948
     6  H    0.161046
     7  H    0.152641
     8  H    0.155975
     9  H    0.156264
    10  H    0.162443
    11  C   -0.298520
    12  C   -0.299693
    13  C   -0.475792
    14  H    0.149309
    15  H    0.149949
    16  H    0.152063
    17  H    0.152051
    18  H    0.155267
    19  H    0.155404
    20  H    0.160376
    21  C   -0.303116
    22  C   -0.301288
    23  C   -0.478730
    24  H    0.154274
    25  H    0.149319
    26  H    0.153333
    27  H    0.152326
    28  H    0.155013
    29  H    0.157427
    30  H    0.160449
    31  C   -0.300003
    32  C   -0.300538
    33  C   -0.475835
    34  H    0.152823
    35  H    0.149262
    36  H    0.151817
    37  H    0.151778
    38  H    0.155155
    39  H    0.155691
    40  H    0.160033
 Sum of Mulliken charges =  -0.00000

 Dipole moment (field-independent basis, Debye):
    X=              0.0277    Y=             -0.0076    Z=              0.0204  Tot=              0.0352
 Quadrupole moment (field-independent basis, Debye-Ang):
   XX=            -85.2533   YY=            -85.5811   ZZ=            -83.9188
   XY=             -1.4659   XZ=              1.2816   YZ=              0.0827

 Normal termination of Gaussian 16 at Thu May  6 00:38:14 2021.
