 Gaussian 16, Revision A.03,
 Gaussian 16:  EM64L-G16RevA.03 25-Dec-2016

 -------------
 #p 6-31g* mp2
 -------------

 ------------------------------------------------------
 Input file generated by CHIRIPA (05-May-2021 14:55:22)
 ------------------------------------------------------
 Symbolic Z-matrix:
 Charge =  0 Multiplicity = 1

                         Standard orientation:
 ---------------------------------------------------------------------
 Center     Atomic      Atomic             Coordinates (Angstroms)
 Number     Number       Type             X           Y           Z
 ---------------------------------------------------------------------
      1          6           0        3.276773   -2.081013   -0.855060
      2          6           0        4.127311   -1.101227   -0.332448
      3          6           0        3.647072    0.182654   -0.057550
      4          6           0        2.304752    0.453474   -0.318555
      5          6           0        1.432459   -0.501273   -0.838990
      6          6           0        1.934428   -1.778443   -1.106221
      7          1           0        3.658274   -3.075756   -1.065629
      8          1           0        5.170248   -1.333374   -0.136397
      9          1           0        4.283576    0.960088    0.347266
     10          1           0        0.397591   -0.239998   -1.023929
     11          1           0        1.271587   -2.537375   -1.512065
     12          7           0        1.784842    1.809109   -0.031591
     13          8           0        0.598218    2.022493   -0.270396
     14          8           0        2.573805    2.632602    0.426702
     15          6           0       -2.432004   -0.072272    0.842430
     16          6           0       -1.862128   -1.150633    1.764581
     17          6           0       -0.606432   -0.691135    2.506122
     18          1           0       -1.662996    0.223675    0.115802
     19          1           0       -2.662557    0.823363    1.435793
     20          1           0       -1.634009   -2.044452    1.169884
     21          1           0       -2.632644   -1.444185    2.488977
     22          1           0       -0.823120    0.186698    3.123420
     23          1           0        0.181190   -0.416980    1.796833
     24          1           0       -0.215808   -1.477385    3.159639
     25          6           0       -3.687521   -0.516654    0.094145
     26          6           0       -4.257397    0.561708   -0.828006
     27          6           0       -5.513093    0.102210   -1.569547
     28          1           0       -3.456968   -1.412288   -0.499218
     29          1           0       -4.456529   -0.812601    0.820773
     30          1           0       -3.486881    0.855259   -1.552401
     31          1           0       -4.485517    1.455527   -0.233308
     32          1           0       -6.300715   -0.171945   -0.860257
     33          1           0       -5.296405   -0.775623   -2.186845
     34          1           0       -5.903717    0.888459   -2.223064
 ---------------------------------------------------------------------

 SCF Done:  E(RHF) =  -669.534679906     A.U. after   15 cycles
 E2 =    -0.2094266116D+01 EUMP2 =    -0.67162894602200D+03

 The electronic state is 1-A.
 Alpha  occ. eigenvalues --  -20.60898 -20.60883 -15.85922 -11.31283 -11.27851
 Alpha  occ. eigenvalues --  -11.27846 -11.27589 -11.26865 -11.26852 -11.21450
 Alpha  occ. eigenvalues --  -11.21301 -11.21169 -11.20969 -11.20870 -11.20781
 Alpha  occ. eigenvalues --   -1.59954  -1.39510  -1.19467  -1.08855  -1.08179
 Alpha  occ. eigenvalues --   -1.04868  -1.03297  -0.95737  -0.95693  -0.86756
 Alpha  occ. eigenvalues --   -0.86269  -0.82524  -0.79357  -0.78019  -0.77517
 Alpha  occ. eigenvalues --   -0.72149  -0.71277  -0.70580  -0.65124  -0.65029
 Alpha  occ. eigenvalues --   -0.64690  -0.62225  -0.60702  -0.59094  -0.57342
 Alpha  occ. eigenvalues --   -0.55361  -0.55097  -0.53192  -0.52964  -0.52441
 Alpha  occ. eigenvalues --   -0.52118  -0.49687  -0.48942  -0.48902  -0.47662
 Alpha  occ. eigenvalues --   -0.46409  -0.45561  -0.45456  -0.44730  -0.43537
 Alpha  occ. eigenvalues --   -0.37415  -0.36432
 Alpha virt. eigenvalues --    0.04929   0.11098   0.16425   0.20460   0.23061
 Alpha virt. eigenvalues --    0.24531   0.25932   0.27256   0.27704   0.27997
 Alpha virt. eigenvalues --    0.29368   0.31110   0.31542   0.32031   0.32142

 Mulliken charges:
               1
     1  C   -0.170334
     2  C   -0.218448
     3  C   -0.170317
     4  C    0.157050
     5  C   -0.174175
     6  C   -0.219666
     7  H    0.226152
     8  H    0.223948
     9  H    0.276092
    10  H    0.282471
    11  H    0.224276
    12  N    0.490124
    13  O   -0.462168
    14  O   -0.459146
    15  C   -0.308163
    16  C   -0.299980
    17  C   -0.476440
    18  H    0.161466
    19  H    0.156673
    20  H    0.142323
    21  H    0.152023
    22  H    0.160327
    23  H    0.154264
    24  H    0.156306
    25  C   -0.297955
    26  C   -0.299122
    27  C   -0.475493
    28  H    0.142168
    29  H    0.149053
    30  H    0.153495
    31  H    0.155622
    32  H    0.154580
    33  H    0.152119
    34  H    0.160877
 Sum of Mulliken charges =  -0.00000

 Dipole moment (field-independent basis, Debye):
    X=              1.9468    Y=             -4.5851    Z=             -1.0073  Tot=              5.0821
 Quadrupole moment (field-independent basis, Debye-Ang):
   XX=            -82.7413   YY=            -99.3036   ZZ=            -94.2323
   XY=             -9.7891   XZ=             -2.4618   YZ=              2.0121

 Normal termination of Gaussian 16 at Wed May  5 22:18:01 2021.
