 Gaussian 16, Revision A.03,
 Gaussian 16:  EM64L-G16RevA.03 25-Dec-2016

 -------------
 #p 6-31g* mp2
 -------------

 ------------------------------------------------------
 Input file generated by CHIRIPA (05-May-2021 14:57:26)
 ------------------------------------------------------
 Symbolic Z-matrix:
 Charge =  0 Multiplicity = 1

                         Standard orientation:
 ---------------------------------------------------------------------
 Center     Atomic      Atomic             Coordinates (Angstroms)
 Number     Number       Type             X           Y           Z
 ---------------------------------------------------------------------
      1          6           0        3.177184    2.346100   -0.470916
      2          6           0        2.185162    1.386371   -0.244348
      3          6           0        2.530371    0.061008    0.036352
      4          6           0        3.883401   -0.271296    0.082965
      5          6           0        4.894936    0.662058   -0.138254
      6          6           0        4.526526    1.981523   -0.417241
      7          1           0        2.900006    3.373383   -0.688305
      8          1           0        1.136445    1.666645   -0.285398
      9          1           0        1.782815   -0.702142    0.215738
     10          1           0        5.931921    0.352521   -0.090644
     11          1           0        5.299085    2.724748   -0.592779
     12          7           0        4.261139   -1.671276    0.379223
     13          8           0        5.460276   -1.938586    0.414641
     14          8           0        3.350921   -2.474763    0.570401
     15          6           0       -3.014772    2.390018    0.408288
     16          6           0       -2.279944    1.543661   -0.428508
     17          6           0       -2.717245    0.239934   -0.680726
     18          6           0       -3.899103   -0.186575   -0.076910
     19          6           0       -4.653337    0.632844    0.761525
     20          6           0       -4.197038    1.932714    0.999592
     21          1           0       -2.667687    3.401287    0.598721
     22          1           0       -1.361416    1.896116   -0.889080
     23          1           0       -2.167872   -0.436313   -1.324385
     24          1           0       -5.565135    0.253126    1.206335
     25          1           0       -4.769760    2.587803    1.649894
     26          7           0       -4.372109   -1.564730   -0.336432
     27          8           0       -5.416566   -1.916530    0.207613
     28          8           0       -3.689439   -2.267033   -1.078974
 ---------------------------------------------------------------------

 SCF Done:  E(RHF) =  -868.336330972     A.U. after   16 cycles
 E2 =    -0.2599698402D+01 EUMP2 =    -0.87093602937373D+03

 The electronic state is 1-A.
 Alpha  occ. eigenvalues --  -20.61103 -20.61097 -20.61008 -20.60999 -15.86166
 Alpha  occ. eigenvalues --  -15.86068 -11.31717 -11.31588 -11.28380 -11.28299
 Alpha  occ. eigenvalues --  -11.28217 -11.28170 -11.28152 -11.28015 -11.27512
 Alpha  occ. eigenvalues --  -11.27348 -11.27328 -11.27211  -1.60175  -1.60080
 Alpha  occ. eigenvalues --   -1.39723  -1.39628  -1.19932  -1.19796  -1.09295
 Alpha  occ. eigenvalues --   -1.09170  -1.05380  -1.05231  -0.96090  -0.95970
 Alpha  occ. eigenvalues --   -0.86783  -0.86621  -0.82936  -0.82800  -0.77956
 Alpha  occ. eigenvalues --   -0.77803  -0.72380  -0.72281  -0.71502  -0.71407
 Alpha  occ. eigenvalues --   -0.71040  -0.70914  -0.65592  -0.65567  -0.65456
 Alpha  occ. eigenvalues --   -0.65144  -0.62805  -0.62493  -0.55886  -0.55744
 Alpha  occ. eigenvalues --   -0.53691  -0.53595  -0.53541  -0.53216  -0.49157
 Alpha  occ. eigenvalues --   -0.49122  -0.49055  -0.49026  -0.45087  -0.44999
 Alpha  occ. eigenvalues --   -0.37921  -0.37794  -0.36983  -0.36836
 Alpha virt. eigenvalues --    0.04620   0.04737   0.10582   0.10804   0.15966
 Alpha virt. eigenvalues --    0.16170   0.18481   0.21921   0.24660   0.27401
 Alpha virt. eigenvalues --    0.28002   0.28763   0.29361   0.31640   0.31741

 Mulliken charges:
               1
     1  C   -0.171394
     2  C   -0.221743
     3  C   -0.171526
     4  C    0.159121
     5  C   -0.169865
     6  C   -0.218330
     7  H    0.223942
     8  H    0.217122
     9  H    0.278071
    10  H    0.277439
    11  H    0.224734
    12  N    0.487902
    13  O   -0.459372
    14  O   -0.457630
    15  C   -0.170173
    16  C   -0.224039
    17  C   -0.171323
    18  C    0.159453
    19  C   -0.168975
    20  C   -0.218302
    21  H    0.224801
    22  H    0.217475
    23  H    0.277116
    24  H    0.278252
    25  H    0.225621
    26  N    0.488056
    27  O   -0.458464
    28  O   -0.457968
 Sum of Mulliken charges =  -0.00000

 Dipole moment (field-independent basis, Debye):
    X=              0.2623    Y=              9.6295    Z=             -0.0568  Tot=              9.6332
 Quadrupole moment (field-independent basis, Debye-Ang):
   XX=           -118.8191   YY=           -110.1186   ZZ=           -104.7913
   XY=              0.9081   XZ=            -11.1759   YZ=              0.7305

 Normal termination of Gaussian 16 at Fri May  7 03:33:08 2021.
