 Gaussian 16, Revision A.03,
 Gaussian 16:  EM64L-G16RevA.03 25-Dec-2016

 -------------
 #p 6-31g* mp2
 -------------

 ------------------------------------------------------
 Input file generated by CHIRIPA (05-May-2021 14:51:13)
 ------------------------------------------------------
 Symbolic Z-matrix:
 Charge =  0 Multiplicity = 1

                         Standard orientation:
 ---------------------------------------------------------------------
 Center     Atomic      Atomic             Coordinates (Angstroms)
 Number     Number       Type             X           Y           Z
 ---------------------------------------------------------------------
      1          6           0        3.728982    1.146663    0.216761
      2          6           0        2.288286    1.451739   -0.194708
      3          6           0        1.781121    2.779546    0.368771
      4          1           0        3.794780    1.130327    1.313278
      5          1           0        4.380822    1.963255   -0.123353
      6          1           0        1.639563    0.634145    0.144871
      7          1           0        2.225871    1.467162   -1.290373
      8          1           0        2.404194    3.609297    0.019639
      9          1           0        1.814555    2.771548    1.463038
     10          1           0        0.749302    2.977776    0.062318
     11          6           0        4.250232   -0.177475   -0.338835
     12          6           0        5.690929   -0.482552    0.072634
     13          6           0        6.198093   -1.810358   -0.490845
     14          1           0        3.598393   -0.994067    0.001279
     15          1           0        4.184435   -0.161139   -1.435352
     16          1           0        5.753343   -0.497974    1.168299
     17          1           0        6.339652    0.335043   -0.266945
     18          1           0        6.164660   -1.802360   -1.585112
     19          1           0        5.575020   -2.640109   -0.141713
     20          1           0        7.229913   -2.008588   -0.184392
     21          6           0       -4.721243   -0.425969    0.272472
     22          6           0       -5.591358    0.304996   -0.750551
     23          6           0       -7.052416    0.414293   -0.313335
     24          1           0       -5.131092   -1.431173    0.441390
     25          1           0       -4.778451    0.100739    1.235124
     26          1           0       -5.531431   -0.222147   -1.711356
     27          1           0       -5.179278    1.308508   -0.917198
     28          1           0       -7.131632    0.959158    0.632947
     29          1           0       -7.485784   -0.580194   -0.165724
     30          1           0       -7.656414    0.940264   -1.059257
     31          6           0       -3.257971   -0.543219   -0.150397
     32          6           0       -2.387857   -1.274184    0.872625
     33          6           0       -0.926798   -1.383481    0.435408
     34          1           0       -3.200764   -1.069927   -1.113051
     35          1           0       -2.848122    0.461985   -0.319317
     36          1           0       -2.799936   -2.277695    1.039272
     37          1           0       -2.447784   -0.747042    1.833429
     38          1           0       -0.493430   -0.388994    0.287797
     39          1           0       -0.847584   -1.928345   -0.510873
     40          1           0       -0.322800   -1.909452    1.181331
 ---------------------------------------------------------------------

 SCF Done:  E(RHF) =  -470.733280597     A.U. after   11 cycles
 E2 =    -0.1582450856D+01 EUMP2 =    -0.47231573145329D+03

 The electronic state is 1-A.
 Alpha  occ. eigenvalues --  -11.21619 -11.21607 -11.21571 -11.21538 -11.21415
 Alpha  occ. eigenvalues --  -11.21366 -11.21356 -11.21306 -11.21082 -11.21075
 Alpha  occ. eigenvalues --  -11.21075 -11.21046  -1.08442  -1.08394  -1.03550
 Alpha  occ. eigenvalues --   -1.03496  -0.96000  -0.95951  -0.87023  -0.86963
 Alpha  occ. eigenvalues --   -0.79660  -0.79518  -0.78268  -0.78190  -0.65100
 Alpha  occ. eigenvalues --   -0.65004  -0.61041  -0.60819  -0.59364  -0.59327
 Alpha  occ. eigenvalues --   -0.57644  -0.57530  -0.55336  -0.55192  -0.52699
 Alpha  occ. eigenvalues --   -0.52650  -0.52438  -0.52366  -0.50032  -0.49830
 Alpha  occ. eigenvalues --   -0.48035  -0.47790  -0.46778  -0.46453  -0.45859
 Alpha  occ. eigenvalues --   -0.45736  -0.45721  -0.45520  -0.43797  -0.43754
 Alpha virt. eigenvalues --    0.21983   0.23008   0.23621   0.24782   0.25934
 Alpha virt. eigenvalues --    0.26661   0.27071   0.27436   0.27984   0.28877
 Alpha virt. eigenvalues --    0.30540   0.31444   0.31698   0.31760   0.32063

 Mulliken charges:
               1
     1  C   -0.297555
     2  C   -0.307890
     3  C   -0.475726
     4  H    0.149380
     5  H    0.149247
     6  H    0.160459
     7  H    0.151785
     8  H    0.155445
     9  H    0.155044
    10  H    0.159260
    11  C   -0.298501
    12  C   -0.299635
    13  C   -0.475681
    14  H    0.150273
    15  H    0.149582
    16  H    0.151821
    17  H    0.151799
    18  H    0.155138
    19  H    0.155230
    20  H    0.160108
    21  C   -0.298330
    22  C   -0.299669
    23  C   -0.475717
    24  H    0.149676
    25  H    0.149571
    26  H    0.151953
    27  H    0.151960
    28  H    0.155210
    29  H    0.155182
    30  H    0.160286
    31  C   -0.298404
    32  C   -0.299387
    33  C   -0.481719
    34  H    0.149645
    35  H    0.149687
    36  H    0.151951
    37  H    0.151931
    38  H    0.161434
    39  H    0.155735
    40  H    0.159422
 Sum of Mulliken charges =  -0.00000

 Dipole moment (field-independent basis, Debye):
    X=             -0.0143    Y=             -0.0127    Z=             -0.0044  Tot=              0.0196
 Quadrupole moment (field-independent basis, Debye-Ang):
   XX=            -86.1562   YY=            -84.7022   ZZ=            -84.0201
   XY=              0.9762   XZ=              0.1757   YZ=             -0.3204

 Normal termination of Gaussian 16 at Wed May  5 21:35:48 2021.
