 Gaussian 16, Revision A.03,
 Gaussian 16:  EM64L-G16RevA.03 25-Dec-2016

 -------------
 #p 6-31g* mp2
 -------------

 ------------------------------------------------------
 Input file generated by CHIRIPA (05-May-2021 14:57:26)
 ------------------------------------------------------
 Symbolic Z-matrix:
 Charge =  0 Multiplicity = 1

                         Standard orientation:
 ---------------------------------------------------------------------
 Center     Atomic      Atomic             Coordinates (Angstroms)
 Number     Number       Type             X           Y           Z
 ---------------------------------------------------------------------
      1          6           0        5.412853    1.411859   -0.147275
      2          6           0        5.264746    0.688574    1.040768
      3          6           0        4.285701   -0.303353    1.150766
      4          6           0        3.468330   -0.546953    0.048109
      5          6           0        3.591245    0.156643   -1.149028
      6          6           0        4.577104    1.144057   -1.236460
      7          1           0        6.176045    2.180659   -0.223959
      8          1           0        5.912385    0.894406    1.888260
      9          1           0        4.149293   -0.878323    2.058632
     10          1           0        2.930729   -0.071167   -1.976819
     11          1           0        4.689846    1.704194   -2.160355
     12          7           0        2.428253   -1.594673    0.152614
     13          8           0        1.720742   -1.790181   -0.833206
     14          8           0        2.340245   -2.200529    1.218367
     15          6           0       -1.548313    1.783581   -0.106293
     16          6           0       -2.674288    2.238476    0.587807
     17          6           0       -3.838528    1.465983    0.636259
     18          6           0       -3.841939    0.238029   -0.023595
     19          6           0       -2.736254   -0.242564   -0.723437
     20          6           0       -1.582829    0.546694   -0.758550
     21          1           0       -0.648105    2.390184   -0.138750
     22          1           0       -2.650348    3.198654    1.095282
     23          1           0       -4.724471    1.793998    1.166288
     24          1           0       -2.790309   -1.203992   -1.219574
     25          1           0       -0.709877    0.190885   -1.298363
     26          7           0       -5.068743   -0.588648    0.020639
     27          8           0       -5.046261   -1.666867   -0.568917
     28          8           0       -6.029565   -0.142726    0.644027
 ---------------------------------------------------------------------

 SCF Done:  E(RHF) =  -868.338718876     A.U. after   16 cycles
 E2 =    -0.2598984696D+01 EUMP2 =    -0.87093770357200D+03

 The electronic state is 1-A.
 Alpha  occ. eigenvalues --  -20.61667 -20.61599 -20.60210 -20.60194 -15.86668
 Alpha  occ. eigenvalues --  -15.85253 -11.31970 -11.30571 -11.28557 -11.28484
 Alpha  occ. eigenvalues --  -11.28221 -11.27526 -11.27480 -11.27172 -11.27045
 Alpha  occ. eigenvalues --  -11.26918 -11.26228 -11.26031  -1.60691  -1.59280
 Alpha  occ. eigenvalues --   -1.40252  -1.38834  -1.20128  -1.18738  -1.09527
 Alpha  occ. eigenvalues --   -1.08162  -1.05517  -1.04115  -0.96375  -0.95003
 Alpha  occ. eigenvalues --   -0.86915  -0.85532  -0.83208  -0.81817  -0.78273
 Alpha  occ. eigenvalues --   -0.76857  -0.72884  -0.72008  -0.71476  -0.71220
 Alpha  occ. eigenvalues --   -0.70599  -0.69890  -0.65776  -0.65505  -0.64394
 Alpha  occ. eigenvalues --   -0.64112  -0.62863  -0.61448  -0.55998  -0.54688
 Alpha  occ. eigenvalues --   -0.53855  -0.53598  -0.52472  -0.52200  -0.49652
 Alpha  occ. eigenvalues --   -0.49624  -0.48235  -0.48226  -0.45657  -0.44249
 Alpha  occ. eigenvalues --   -0.38097  -0.37124  -0.36758  -0.35705
 Alpha virt. eigenvalues --    0.04222   0.05650   0.10520   0.11929   0.15713
 Alpha virt. eigenvalues --    0.17147   0.20591   0.22016   0.26334   0.27130
 Alpha virt. eigenvalues --    0.28345   0.28823   0.30171   0.31187   0.32353

 Mulliken charges:
               1
     1  C   -0.170741
     2  C   -0.218440
     3  C   -0.170682
     4  C    0.158135
     5  C   -0.174762
     6  C   -0.218770
     7  H    0.227925
     8  H    0.226115
     9  H    0.277902
    10  H    0.272725
    11  H    0.224844
    12  N    0.488893
    13  O   -0.466929
    14  O   -0.453468
    15  C   -0.172576
    16  C   -0.218338
    17  C   -0.172176
    18  C    0.158324
    19  C   -0.169904
    20  C   -0.220536
    21  H    0.220029
    22  H    0.219812
    23  H    0.273456
    24  H    0.279573
    25  H    0.233612
    26  N    0.488070
    27  O   -0.459178
    28  O   -0.462914
 Sum of Mulliken charges =  -0.00000

 Dipole moment (field-independent basis, Debye):
    X=              8.3101    Y=              6.4486    Z=             -0.4741  Tot=             10.5293
 Quadrupole moment (field-independent basis, Debye-Ang):
   XX=           -111.9616   YY=           -106.0469   ZZ=            -99.4602
   XY=             -0.8375   XZ=             -0.0161   YZ=              1.3575

 Normal termination of Gaussian 16 at Wed May  5 18:02:15 2021.
