 Gaussian 16, Revision A.03,
 Gaussian 16:  EM64L-G16RevA.03 25-Dec-2016

 -------------
 #p 6-31g* mp2
 -------------

 ------------------------------------------------------
 Input file generated by CHIRIPA (05-May-2021 14:57:25)
 ------------------------------------------------------
 Symbolic Z-matrix:
 Charge =  0 Multiplicity = 1

                         Standard orientation:
 ---------------------------------------------------------------------
 Center     Atomic      Atomic             Coordinates (Angstroms)
 Number     Number       Type             X           Y           Z
 ---------------------------------------------------------------------
      1          6           0       -6.220121    0.369464    0.544795
      2          6           0       -5.824760   -0.968569    0.445404
      3          6           0       -4.499936   -1.296861    0.142731
      4          6           0       -3.592671   -0.257177   -0.055302
      5          6           0       -3.955926    1.085524    0.036846
      6          6           0       -5.286088    1.390440    0.340559
      7          1           0       -7.251350    0.615410    0.780323
      8          1           0       -6.547984   -1.763550    0.603513
      9          1           0       -4.166814   -2.324264    0.059718
     10          1           0       -3.212239    1.856110   -0.126078
     11          1           0       -5.590295    2.430461    0.417111
     12          7           0       -2.187313   -0.592352   -0.376279
     13          8           0       -1.407211    0.342092   -0.546259
     14          8           0       -1.892505   -1.783159   -0.451802
     15          6           0        5.347464   -1.765179    0.422311
     16          6           0        4.129679   -1.951685   -0.240059
     17          6           0        3.277832   -0.868992   -0.478134
     18          6           0        3.677036    0.392109   -0.038195
     19          6           0        4.883986    0.610041    0.624426
     20          6           0        5.720075   -0.487164    0.851684
     21          1           0        6.003078   -2.611878    0.603053
     22          1           0        3.837718   -2.943079   -0.574638
     23          1           0        2.329452   -0.985046   -0.988552
     24          1           0        5.147775    1.610216    0.946114
     25          1           0        6.665235   -0.339351    1.366337
     26          7           0        2.783566    1.545990   -0.284508
     27          8           0        3.158273    2.646972    0.113073
     28          8           0        1.725472    1.327571   -0.870486
 ---------------------------------------------------------------------

 SCF Done:  E(RHF) =  -868.336826505     A.U. after   16 cycles
 E2 =    -0.2599708236D+01 EUMP2 =    -0.87093653474059D+03

 The electronic state is 1-A.
 Alpha  occ. eigenvalues --  -20.60286 -20.60166 -20.59623 -20.59484 -15.85260
 Alpha  occ. eigenvalues --  -15.84593 -11.30760 -11.30150 -11.27384 -11.27300
 Alpha  occ. eigenvalues --  -11.27134 -11.26820 -11.26645 -11.26593 -11.26422
 Alpha  occ. eigenvalues --  -11.26371 -11.25881 -11.25781  -1.59310  -1.58639
 Alpha  occ. eigenvalues --   -1.38851  -1.38174  -1.18953  -1.18361  -1.08330
 Alpha  occ. eigenvalues --   -1.07737  -1.04372  -1.03784  -0.95137  -0.94526
 Alpha  occ. eigenvalues --   -0.85765  -0.85177  -0.81961  -0.81339  -0.76987
 Alpha  occ. eigenvalues --   -0.76346  -0.71505  -0.70753  -0.70643  -0.70062
 Alpha  occ. eigenvalues --   -0.69966  -0.69472  -0.64598  -0.64379  -0.64004
 Alpha  occ. eigenvalues --   -0.63798  -0.61712  -0.61110  -0.54881  -0.54317
 Alpha  occ. eigenvalues --   -0.52702  -0.52464  -0.52123  -0.51875  -0.48295
 Alpha  occ. eigenvalues --   -0.48231  -0.47616  -0.47533  -0.44234  -0.43515
 Alpha  occ. eigenvalues --   -0.36951  -0.36383  -0.35983  -0.35399
 Alpha virt. eigenvalues --    0.05541   0.06175   0.11668   0.12249   0.17005
 Alpha virt. eigenvalues --    0.17608   0.21789   0.22343   0.27694   0.28255
 Alpha virt. eigenvalues --    0.28709   0.29302   0.31326   0.31856   0.32995

 Mulliken charges:
               1
     1  C   -0.171292
     2  C   -0.218764
     3  C   -0.171612
     4  C    0.157887
     5  C   -0.171338
     6  C   -0.218868
     7  H    0.224200
     8  H    0.221480
     9  H    0.273361
    10  H    0.281124
    11  H    0.223544
    12  N    0.487215
    13  O   -0.445747
    14  O   -0.470851
    15  C   -0.171796
    16  C   -0.219701
    17  C   -0.171352
    18  C    0.156885
    19  C   -0.172182
    20  C   -0.219338
    21  H    0.221944
    22  H    0.223114
    23  H    0.288597
    24  H    0.272601
    25  H    0.219434
    26  N    0.486679
    27  O   -0.470157
    28  O   -0.445064
 Sum of Mulliken charges =  -0.00000

 Dipole moment (field-independent basis, Debye):
    X=             -2.0171    Y=             -2.7662    Z=              1.8468  Tot=              3.8899
 Quadrupole moment (field-independent basis, Debye-Ang):
   XX=            -47.3792   YY=           -102.9929   ZZ=           -105.5910
   XY=            -14.0397   XZ=              0.6251   YZ=              1.3979

 Normal termination of Gaussian 16 at Wed May  5 22:45:50 2021.
