 Gaussian 16, Revision A.03,
 Gaussian 16:  EM64L-G16RevA.03 25-Dec-2016

 -------------
 #p 6-31g* mp2
 -------------

 ------------------------------------------------------
 Input file generated by CHIRIPA (05-May-2021 14:53:17)
 ------------------------------------------------------
 Symbolic Z-matrix:
 Charge =  0 Multiplicity = 1

                         Standard orientation:
 ---------------------------------------------------------------------
 Center     Atomic      Atomic             Coordinates (Angstroms)
 Number     Number       Type             X           Y           Z
 ---------------------------------------------------------------------
      1          6           0       -3.398202    0.747227    0.309676
      2          6           0       -3.991609    1.975920   -0.380373
      3          6           0       -4.021744    3.206432    0.526669
      4          1           0       -3.982040    0.524283    1.213211
      5          1           0       -2.378608    0.980945    0.646124
      6          1           0       -5.009277    1.739509   -0.716645
      7          1           0       -3.406408    2.195850   -1.282474
      8          1           0       -3.010187    3.470055    0.852025
      9          1           0       -4.622163    3.011121    1.421069
     10          1           0       -4.449707    4.073165    0.013365
     11          6           0       -3.361292   -0.490948   -0.584353
     12          6           0       -2.767885   -1.719641    0.105697
     13          6           0       -2.737751   -2.950153   -0.801346
     14          1           0       -4.380887   -0.724666   -0.920801
     15          1           0       -2.777455   -0.268004   -1.487887
     16          1           0       -3.353087   -1.939571    1.007797
     17          1           0       -1.750218   -1.483230    0.441968
     18          1           0       -2.137331   -2.754842   -1.695746
     19          1           0       -3.749308   -3.213776   -1.126701
     20          1           0       -2.309788   -3.816886   -0.288042
     21          6           0        4.183144    1.636877   -0.876996
     22          6           0        3.508833    0.743574   -1.715945
     23          6           0        2.651596   -0.222940   -1.181583
     24          6           0        2.491283   -0.268035    0.202453
     25          6           0        3.149080    0.608004    1.064515
     26          6           0        4.001436    1.566365    0.508115
     27          1           0        4.847170    2.384522   -1.300661
     28          1           0        3.648032    0.796008   -2.792012
     29          1           0        2.117182   -0.926842   -1.807955
     30          1           0        2.990119    0.531216    2.133278
     31          1           0        4.523817    2.258823    1.162077
     32          7           0        1.586349   -1.286925    0.779824
     33          8           0        1.462168   -1.305952    2.002466
     34          8           0        1.018377   -2.047210   -0.001208
 ---------------------------------------------------------------------

 SCF Done:  E(RHF) =  -669.536199799     A.U. after   15 cycles
 E2 =    -0.2091404196D+01 EUMP2 =    -0.67162760399488D+03

 The electronic state is 1-A.
 Alpha  occ. eigenvalues --  -20.61011 -20.60998 -15.86028 -11.31340 -11.27900
 Alpha  occ. eigenvalues --  -11.27896 -11.27633 -11.26901 -11.26892 -11.21158
 Alpha  occ. eigenvalues --  -11.20747 -11.20731 -11.20510 -11.20219 -11.19785
 Alpha  occ. eigenvalues --   -1.60065  -1.39619  -1.19506  -1.08912  -1.07640
 Alpha  occ. eigenvalues --   -1.04898  -1.02668  -0.95755  -0.95158  -0.86299
 Alpha  occ. eigenvalues --   -0.86189  -0.82587  -0.78788  -0.77644  -0.77383
 Alpha  occ. eigenvalues --   -0.72242  -0.71385  -0.70612  -0.65160  -0.64900
 Alpha  occ. eigenvalues --   -0.64277  -0.62245  -0.60059  -0.58574  -0.56730
 Alpha  occ. eigenvalues --   -0.55402  -0.54465  -0.53231  -0.52988  -0.51850
 Alpha  occ. eigenvalues --   -0.51587  -0.49151  -0.49012  -0.49003  -0.47091
 Alpha  occ. eigenvalues --   -0.45857  -0.45172  -0.44939  -0.44597  -0.42943
 Alpha  occ. eigenvalues --   -0.37482  -0.36499
 Alpha virt. eigenvalues --    0.04847   0.11157   0.16339   0.21284   0.23555
 Alpha virt. eigenvalues --    0.25170   0.27195   0.27352   0.28163   0.28316
 Alpha virt. eigenvalues --    0.28790   0.30847   0.32113   0.32451   0.32576

 Mulliken charges:
               1
     1  C   -0.296886
     2  C   -0.298663
     3  C   -0.474952
     4  H    0.149912
     5  H    0.148023
     6  H    0.151230
     7  H    0.148950
     8  H    0.153324
     9  H    0.155497
    10  H    0.157818
    11  C   -0.297826
    12  C   -0.304776
    13  C   -0.470878
    14  H    0.145781
    15  H    0.145102
    16  H    0.147774
    17  H    0.170800
    18  H    0.152737
    19  H    0.146292
    20  H    0.165821
    21  C   -0.170485
    22  C   -0.218561
    23  C   -0.170882
    24  C    0.158396
    25  C   -0.170844
    26  C   -0.218584
    27  H    0.226228
    28  H    0.224034
    29  H    0.275826
    30  H    0.276048
    31  H    0.224052
    32  N    0.487408
    33  O   -0.458705
    34  O   -0.459011
 Sum of Mulliken charges =  -0.00000

 Dipole moment (field-independent basis, Debye):
    X=              3.4874    Y=              3.4984    Z=             -1.9480  Tot=              5.3099
 Quadrupole moment (field-independent basis, Debye-Ang):
   XX=            -79.3006   YY=            -97.8145   ZZ=            -91.6971
   XY=              9.1949   XZ=             -4.0113   YZ=              2.3062

 Normal termination of Gaussian 16 at Thu May  6 20:32:09 2021.
