 Gaussian 16, Revision A.03,
 Gaussian 16:  EM64L-G16RevA.03 25-Dec-2016

 -------------
 #p 6-31g* mp2
 -------------

 ------------------------------------------------------
 Input file generated by CHIRIPA (05-May-2021 14:57:22)
 ------------------------------------------------------
 Symbolic Z-matrix:
 Charge =  0 Multiplicity = 1

                         Standard orientation:
 ---------------------------------------------------------------------
 Center     Atomic      Atomic             Coordinates (Angstroms)
 Number     Number       Type             X           Y           Z
 ---------------------------------------------------------------------
      1          6           0        4.414195    1.198790    0.734709
      2          6           0        3.273260    1.645586    0.060052
      3          6           0        2.314539    0.734864   -0.393807
      4          6           0        2.529667   -0.621556   -0.154775
      5          6           0        3.656070   -1.097735    0.514372
      6          6           0        4.601628   -0.169033    0.959320
      7          1           0        5.153840    1.913245    1.083816
      8          1           0        3.125071    2.707265   -0.115794
      9          1           0        1.422142    1.053380   -0.918777
     10          1           0        3.776130   -2.162285    0.674805
     11          1           0        5.486738   -0.518889    1.482987
     12          7           0        1.521679   -1.595214   -0.630539
     13          8           0        1.734561   -2.784974   -0.407407
     14          8           0        0.537823   -1.150170   -1.217565
     15          6           0       -1.130291    2.241559   -0.786787
     16          6           0       -1.743196    1.355871   -1.679213
     17          6           0       -2.612388    0.365454   -1.212170
     18          6           0       -2.847142    0.288955    0.159810
     19          6           0       -2.251703    1.156650    1.074056
     20          6           0       -1.386049    2.139303    0.584581
     21          1           0       -0.456456    3.007922   -1.158310
     22          1           0       -1.546426    1.432936   -2.744758
     23          1           0       -3.100303   -0.333222   -1.880907
     24          1           0       -2.467406    1.055091    2.130738
     25          1           0       -0.911466    2.825777    1.279973
     26          7           0       -3.765444   -0.755444    0.666122
     27          8           0       -3.955755   -0.801956    1.879487
     28          8           0       -4.277510   -1.507758   -0.159983
 ---------------------------------------------------------------------

 SCF Done:  E(RHF) =  -868.336031122     A.U. after   16 cycles
 E2 =    -0.2603289876D+01 EUMP2 =    -0.87093932099809D+03

 The electronic state is 1-A.
 Alpha  occ. eigenvalues --  -20.61044 -20.61017 -20.60212 -20.60185 -15.86083
 Alpha  occ. eigenvalues --  -15.85253 -11.31522 -11.30693 -11.28100 -11.28096
 Alpha  occ. eigenvalues --  -11.27899 -11.27319 -11.27211 -11.27192 -11.27178
 Alpha  occ. eigenvalues --  -11.27115 -11.26490 -11.26335  -1.60106  -1.59267
 Alpha  occ. eigenvalues --   -1.39659  -1.38820  -1.19721  -1.18889  -1.09102
 Alpha  occ. eigenvalues --   -1.08344  -1.05149  -1.04299  -0.95925  -0.95153
 Alpha  occ. eigenvalues --   -0.86539  -0.85742  -0.82773  -0.81965  -0.77806
 Alpha  occ. eigenvalues --   -0.76951  -0.72329  -0.71488  -0.71431  -0.70870
 Alpha  occ. eigenvalues --   -0.70568  -0.70123  -0.65381  -0.65174  -0.64588
 Alpha  occ. eigenvalues --   -0.64367  -0.62520  -0.61656  -0.55661  -0.54979
 Alpha  occ. eigenvalues --   -0.53471  -0.53355  -0.52469  -0.52444  -0.49078
 Alpha  occ. eigenvalues --   -0.49042  -0.48253  -0.48224  -0.45038  -0.44209
 Alpha  occ. eigenvalues --   -0.37723  -0.37070  -0.36632  -0.35762
 Alpha virt. eigenvalues --    0.04734   0.05522   0.10842   0.11810   0.16210
 Alpha virt. eigenvalues --    0.16828   0.20361   0.22042   0.26286   0.27490
 Alpha virt. eigenvalues --    0.27904   0.29695   0.30673   0.31327   0.32464

 Mulliken charges:
               1
     1  C   -0.170076
     2  C   -0.223166
     3  C   -0.171920
     4  C    0.155165
     5  C   -0.169199
     6  C   -0.219166
     7  H    0.225919
     8  H    0.217575
     9  H    0.279651
    10  H    0.277577
    11  H    0.224916
    12  N    0.489628
    13  O   -0.457190
    14  O   -0.464227
    15  C   -0.189369
    16  C   -0.202622
    17  C   -0.154617
    18  C    0.162130
    19  C   -0.172154
    20  C   -0.216119
    21  H    0.215522
    22  H    0.223385
    23  H    0.278526
    24  H    0.273840
    25  H    0.218076
    26  N    0.488322
    27  O   -0.463162
    28  O   -0.457245
 Sum of Mulliken charges =  -0.00000

 Dipole moment (field-independent basis, Debye):
    X=              6.6290    Y=              6.7084    Z=             -0.2175  Tot=              9.4336
 Quadrupole moment (field-independent basis, Debye-Ang):
   XX=           -104.3472   YY=           -105.2550   ZZ=           -101.5868
   XY=             -5.0729   XZ=             11.9925   YZ=             -1.3016

 Normal termination of Gaussian 16 at Wed May  5 16:17:20 2021.
