 Gaussian 16, Revision A.03,
 Gaussian 16:  EM64L-G16RevA.03 25-Dec-2016

 -------------
 #p 6-31g* mp2
 -------------

 ------------------------------------------------------
 Input file generated by CHIRIPA (05-May-2021 14:55:24)
 ------------------------------------------------------
 Symbolic Z-matrix:
 Charge =  0 Multiplicity = 1

                         Standard orientation:
 ---------------------------------------------------------------------
 Center     Atomic      Atomic             Coordinates (Angstroms)
 Number     Number       Type             X           Y           Z
 ---------------------------------------------------------------------
      1          6           0        4.148881    1.547860    0.395167
      2          6           0        3.209275    1.233680    1.382565
      3          6           0        2.301989    0.187222    1.192028
      4          6           0        2.362695   -0.527486   -0.003295
      5          6           0        3.287122   -0.238647   -1.005940
      6          6           0        4.184742    0.811991   -0.793837
      7          1           0        4.849928    2.362397    0.551557
      8          1           0        3.179114    1.803459    2.306950
      9          1           0        1.564231   -0.077346    1.939782
     10          1           0        3.292847   -0.824618   -1.916996
     11          1           0        4.913368    1.053750   -1.562409
     12          7           0        1.407309   -1.637536   -0.216423
     13          8           0        1.481341   -2.252008   -1.278299
     14          8           0        0.602534   -1.872104    0.682439
     15          6           0       -2.771086    1.045321   -0.147857
     16          6           0       -3.533594    2.366209   -0.256581
     17          6           0       -2.610221    3.565929   -0.470702
     18          1           0       -2.053891    1.110512    0.681798
     19          1           0       -2.179348    0.895298   -1.061494
     20          1           0       -4.124795    2.513024    0.656404
     21          1           0       -4.249191    2.297798   -1.085951
     22          1           0       -2.029918    3.445960   -1.391277
     23          1           0       -1.904813    3.662408    0.360979
     24          1           0       -3.176113    4.499744   -0.545651
     25          6           0       -3.680508   -0.163309    0.066370
     26          6           0       -2.918002   -1.484198    0.175094
     27          6           0       -3.841375   -2.683918    0.389216
     28          1           0       -4.272248   -0.013287    0.980008
     29          1           0       -4.397705   -0.228500   -0.763284
     30          1           0       -2.202403   -1.415787    1.004464
     31          1           0       -2.326801   -1.631013   -0.737891
     32          1           0       -4.546781   -2.780397   -0.442466
     33          1           0       -4.421677   -2.563947    1.309790
     34          1           0       -3.275482   -3.617732    0.464165
 ---------------------------------------------------------------------

 SCF Done:  E(RHF) =  -669.535841132     A.U. after   15 cycles
 E2 =    -0.2091533634D+01 EUMP2 =    -0.67162737476587D+03

 The electronic state is 1-A.
 Alpha  occ. eigenvalues --  -20.60899 -20.60875 -15.85920 -11.31259 -11.27827
 Alpha  occ. eigenvalues --  -11.27820 -11.27562 -11.26835 -11.26825 -11.21219
 Alpha  occ. eigenvalues --  -11.20879 -11.20806 -11.20500 -11.20150 -11.19887
 Alpha  occ. eigenvalues --   -1.59948  -1.39505  -1.19427  -1.08829  -1.07678
 Alpha  occ. eigenvalues --   -1.04828  -1.02722  -0.95670  -0.95244  -0.86272
 Alpha  occ. eigenvalues --   -0.86226  -0.82508  -0.78838  -0.77578  -0.77359
 Alpha  occ. eigenvalues --   -0.72144  -0.71258  -0.70538  -0.65085  -0.64832
 Alpha  occ. eigenvalues --   -0.64323  -0.62177  -0.60126  -0.58648  -0.56791
 Alpha  occ. eigenvalues --   -0.55331  -0.54567  -0.53156  -0.52921  -0.51941
 Alpha  occ. eigenvalues --   -0.51657  -0.49232  -0.48927  -0.48901  -0.47131
 Alpha  occ. eigenvalues --   -0.45898  -0.45253  -0.44833  -0.44511  -0.42992
 Alpha  occ. eigenvalues --   -0.37403  -0.36428
 Alpha virt. eigenvalues --    0.04958   0.11219   0.16439   0.21302   0.23464
 Alpha virt. eigenvalues --    0.25107   0.26900   0.27457   0.27818   0.28598
 Alpha virt. eigenvalues --    0.28796   0.30982   0.32050   0.32267   0.32744

 Mulliken charges:
               1
     1  C   -0.170579
     2  C   -0.218382
     3  C   -0.170445
     4  C    0.158586
     5  C   -0.170866
     6  C   -0.218481
     7  H    0.225916
     8  H    0.223635
     9  H    0.275008
    10  H    0.275675
    11  H    0.223694
    12  N    0.489982
    13  O   -0.460232
    14  O   -0.460328
    15  C   -0.296044
    16  C   -0.298834
    17  C   -0.474717
    18  H    0.145958
    19  H    0.148921
    20  H    0.150671
    21  H    0.151914
    22  H    0.154313
    23  H    0.151463
    24  H    0.158642
    25  C   -0.298899
    26  C   -0.300140
    27  C   -0.476575
    28  H    0.145207
    29  H    0.146382
    30  H    0.165979
    31  H    0.157882
    32  H    0.149867
    33  H    0.149005
    34  H    0.165821
 Sum of Mulliken charges =  -0.00000

 Dipole moment (field-independent basis, Debye):
    X=              3.5955    Y=              3.7634    Z=              0.7547  Tot=              5.2593
 Quadrupole moment (field-independent basis, Debye-Ang):
   XX=            -79.8459   YY=           -100.6210   ZZ=            -89.8865
   XY=              6.9861   XZ=             -0.1403   YZ=              0.8247

 Normal termination of Gaussian 16 at Thu May  6 16:00:32 2021.
