 Gaussian 16, Revision A.03,
 Gaussian 16:  EM64L-G16RevA.03 25-Dec-2016

 -------------
 #p 6-31g* mp2
 -------------

 ------------------------------------------------------
 Input file generated by CHIRIPA (05-May-2021 14:55:22)
 ------------------------------------------------------
 Symbolic Z-matrix:
 Charge =  0 Multiplicity = 1

                         Standard orientation:
 ---------------------------------------------------------------------
 Center     Atomic      Atomic             Coordinates (Angstroms)
 Number     Number       Type             X           Y           Z
 ---------------------------------------------------------------------
      1          6           0        2.996867    2.054445    0.965281
      2          6           0        3.804645    1.023643    1.456670
      3          6           0        3.701048   -0.269468    0.935441
      4          6           0        2.774877   -0.497398   -0.081193
      5          6           0        1.956051    0.508632   -0.591799
      6          6           0        2.076770    1.794109   -0.055585
      7          1           0        3.083994    3.055999    1.376005
      8          1           0        4.520079    1.222915    2.249444
      9          1           0        4.314035   -1.085996    1.297308
     10          1           0        1.252087    0.279338   -1.382543
     11          1           0        1.448143    2.592702   -0.439149
     12          7           0        2.656141   -1.862315   -0.640927
     13          8           0        1.832404   -2.037245   -1.536189
     14          8           0        3.389060   -2.731363   -0.173785
     15          6           0       -3.382638    0.884435   -0.522792
     16          6           0       -2.108322    1.642150   -0.148662
     17          6           0       -1.732669    2.710528   -1.175914
     18          1           0       -3.247766    0.416790   -1.507710
     19          1           0       -4.209400    1.600616   -0.627405
     20          1           0       -1.284515    0.924596   -0.043432
     21          1           0       -2.246174    2.107886    0.835565
     22          1           0       -2.535287    3.448442   -1.275358
     23          1           0       -1.568164    2.258428   -2.159350
     24          1           0       -0.818800    3.239889   -0.888720
     25          6           0       -3.771146   -0.186982    0.494486
     26          6           0       -5.045461   -0.944697    0.120355
     27          6           0       -5.421114   -2.013075    1.147607
     28          1           0       -2.944384   -0.903163    0.599098
     29          1           0       -3.906019    0.280663    1.479403
     30          1           0       -4.907609   -1.410433   -0.863872
     31          1           0       -5.869268   -0.227142    0.015125
     32          1           0       -5.585620   -1.560975    2.131042
     33          1           0       -4.618496   -2.750988    1.247052
     34          1           0       -6.334983   -2.542436    0.860413
 ---------------------------------------------------------------------

 SCF Done:  E(RHF) =  -669.535469844     A.U. after   15 cycles
 E2 =    -0.2091863043D+01 EUMP2 =    -0.67162733288615D+03

 The electronic state is 1-A.
 Alpha  occ. eigenvalues --  -20.60785 -20.60779 -15.85838 -11.31194 -11.27760
 Alpha  occ. eigenvalues --  -11.27751 -11.27489 -11.26777 -11.26739 -11.22109
 Alpha  occ. eigenvalues --  -11.21901 -11.21656 -11.21612 -11.21466 -11.21017
 Alpha  occ. eigenvalues --   -1.59861  -1.39414  -1.19364  -1.08760  -1.08673
 Alpha  occ. eigenvalues --   -1.04766  -1.03831  -0.96297  -0.95596  -0.87318
 Alpha  occ. eigenvalues --   -0.86160  -0.82428  -0.79900  -0.78435  -0.77480
 Alpha  occ. eigenvalues --   -0.72056  -0.71184  -0.70472  -0.65308  -0.65009
 Alpha  occ. eigenvalues --   -0.64794  -0.62191  -0.61194  -0.59693  -0.57885
 Alpha  occ. eigenvalues --   -0.55570  -0.55255  -0.53189  -0.53089  -0.52858
 Alpha  occ. eigenvalues --   -0.52534  -0.50217  -0.48815  -0.48811  -0.48208
 Alpha  occ. eigenvalues --   -0.46916  -0.45988  -0.45873  -0.44822  -0.44069
 Alpha  occ. eigenvalues --   -0.37341  -0.36342
 Alpha virt. eigenvalues --    0.05019   0.11252   0.16441   0.19709   0.22892
 Alpha virt. eigenvalues --    0.23927   0.25912   0.26312   0.27276   0.27928
 Alpha virt. eigenvalues --    0.29236   0.29715   0.31238   0.31723   0.32314

 Mulliken charges:
               1
     1  C   -0.172138
     2  C   -0.218283
     3  C   -0.171102
     4  C    0.158217
     5  C   -0.173675
     6  C   -0.221127
     7  H    0.225931
     8  H    0.223454
     9  H    0.275576
    10  H    0.276245
    11  H    0.231104
    12  N    0.488156
    13  O   -0.460879
    14  O   -0.460339
    15  C   -0.298760
    16  C   -0.303256
    17  C   -0.480236
    18  H    0.152589
    19  H    0.149701
    20  H    0.153643
    21  H    0.152709
    22  H    0.160744
    23  H    0.157424
    24  H    0.149515
    25  C   -0.299349
    26  C   -0.300138
    27  C   -0.476247
    28  H    0.153711
    29  H    0.148716
    30  H    0.154226
    31  H    0.151007
    32  H    0.154234
    33  H    0.157804
    34  H    0.160822
 Sum of Mulliken charges =  -0.00000

 Dipole moment (field-independent basis, Debye):
    X=              0.3161    Y=              4.7421    Z=              1.9858  Tot=              5.1508
 Quadrupole moment (field-independent basis, Debye-Ang):
   XX=            -89.6951   YY=            -99.9342   ZZ=            -93.7871
   XY=             11.3592   XZ=              8.2245   YZ=             -1.5662

 Normal termination of Gaussian 16 at Thu May  6 04:37:10 2021.
