 Gaussian 16, Revision A.03,
 Gaussian 16:  EM64L-G16RevA.03 25-Dec-2016

 -------------
 #p 6-31g* mp2
 -------------

 ------------------------------------------------------
 Input file generated by CHIRIPA (05-May-2021 14:55:21)
 ------------------------------------------------------
 Symbolic Z-matrix:
 Charge =  0 Multiplicity = 1

                         Standard orientation:
 ---------------------------------------------------------------------
 Center     Atomic      Atomic             Coordinates (Angstroms)
 Number     Number       Type             X           Y           Z
 ---------------------------------------------------------------------
      1          6           0        2.784026   -2.570419   -0.488882
      2          6           0        2.921457   -1.582113   -1.469130
      3          6           0        2.675360   -0.240186   -1.163817
      4          6           0        2.291800    0.079362    0.137744
      5          6           0        2.146259   -0.882408    1.136296
      6          6           0        2.397547   -2.218034    0.808415
      7          1           0        2.977217   -3.610413   -0.734822
      8          1           0        3.221463   -1.852863   -2.477463
      9          1           0        2.774152    0.545137   -1.903362
     10          1           0        1.845737   -0.581771    2.132650
     11          1           0        2.290020   -2.983447    1.571714
     12          7           0        2.028520    1.496665    0.472910
     13          8           0        1.691836    1.752234    1.627018
     14          8           0        2.163830    2.325140   -0.424840
     15          6           0       -3.016797    0.893227   -0.419455
     16          6           0       -1.901348    1.821038    0.063169
     17          6           0       -1.970274    3.209384   -0.573646
     18          1           0       -2.960188    0.799986   -1.512637
     19          1           0       -3.989309    1.352776   -0.194891
     20          1           0       -0.931240    1.359239   -0.160994
     21          1           0       -1.960502    1.911927    1.155348
     22          1           0       -2.923673    3.693830   -0.339241
     23          1           0       -1.888562    3.138002   -1.663063
     24          1           0       -1.163731    3.856249   -0.214599
     25          6           0       -2.961293   -0.498406    0.208245
     26          6           0       -4.076742   -1.426217   -0.274379
     27          6           0       -4.007816   -2.814565    0.362436
     28          1           0       -1.988780   -0.957955   -0.016319
     29          1           0       -3.017902   -0.405166    1.301426
     30          1           0       -4.017588   -1.517107   -1.366559
     31          1           0       -5.046849   -0.964419   -0.050216
     32          1           0       -4.089526   -2.743181    1.451853
     33          1           0       -3.054417   -3.299010    0.128031
     34          1           0       -4.814359   -3.461429    0.003388
 ---------------------------------------------------------------------

 SCF Done:  E(RHF) =  -669.535892517     A.U. after   15 cycles
 E2 =    -0.2091940189D+01 EUMP2 =    -0.67162783270655D+03

 The electronic state is 1-A.
 Alpha  occ. eigenvalues --  -20.60841 -20.60835 -15.85878 -11.31253 -11.27818
 Alpha  occ. eigenvalues --  -11.27813 -11.27558 -11.26829 -11.26818 -11.21489
 Alpha  occ. eigenvalues --  -11.21147 -11.21093 -11.20939 -11.20863 -11.20114
 Alpha  occ. eigenvalues --   -1.59911  -1.39462  -1.19422  -1.08818  -1.08065
 Alpha  occ. eigenvalues --   -1.04820  -1.03094  -0.95653  -0.95547  -0.86571
 Alpha  occ. eigenvalues --   -0.86218  -0.82481  -0.79198  -0.77848  -0.77528
 Alpha  occ. eigenvalues --   -0.72101  -0.71244  -0.70525  -0.65072  -0.64821
 Alpha  occ. eigenvalues --   -0.64703  -0.62165  -0.60500  -0.58945  -0.57117
 Alpha  occ. eigenvalues --   -0.55322  -0.54859  -0.53152  -0.52911  -0.52207
 Alpha  occ. eigenvalues --   -0.51977  -0.49526  -0.48862  -0.48857  -0.47496
 Alpha  occ. eigenvalues --   -0.46255  -0.45406  -0.45304  -0.44830  -0.43344
 Alpha  occ. eigenvalues --   -0.37400  -0.36422
 Alpha virt. eigenvalues --    0.04993   0.11229   0.16465   0.21371   0.23116
 Alpha virt. eigenvalues --    0.24686   0.26788   0.27277   0.27617   0.28306
 Alpha virt. eigenvalues --    0.28454   0.30808   0.31646   0.32027   0.32507

 Mulliken charges:
               1
     1  C   -0.170777
     2  C   -0.218687
     3  C   -0.171582
     4  C    0.155646
     5  C   -0.170527
     6  C   -0.218713
     7  H    0.225894
     8  H    0.223653
     9  H    0.275923
    10  H    0.276252
    11  H    0.223939
    12  N    0.489923
    13  O   -0.458708
    14  O   -0.460252
    15  C   -0.298379
    16  C   -0.295581
    17  C   -0.477012
    18  H    0.147321
    19  H    0.148833
    20  H    0.145341
    21  H    0.156514
    22  H    0.150185
    23  H    0.151501
    24  H    0.175279
    25  C   -0.297841
    26  C   -0.298976
    27  C   -0.475133
    28  H    0.146479
    29  H    0.149634
    30  H    0.150949
    31  H    0.152589
    32  H    0.154877
    33  H    0.151876
    34  H    0.159561
 Sum of Mulliken charges =  -0.00000

 Dipole moment (field-independent basis, Debye):
    X=              1.0507    Y=             -4.8707    Z=             -1.1169  Tot=              5.1064
 Quadrupole moment (field-independent basis, Debye-Ang):
   XX=            -91.1152   YY=            -96.5181   ZZ=            -90.2920
   XY=            -11.6619   XZ=             -4.3804   YZ=             -1.4310

 Normal termination of Gaussian 16 at Wed May  5 18:58:12 2021.
