 Gaussian 16, Revision A.03,
 Gaussian 16:  EM64L-G16RevA.03 25-Dec-2016

 -------------
 #p 6-31g* mp2
 -------------

 ------------------------------------------------------
 Input file generated by CHIRIPA (05-May-2021 14:51:11)
 ------------------------------------------------------
 Symbolic Z-matrix:
 Charge =  0 Multiplicity = 1

                         Standard orientation:
 ---------------------------------------------------------------------
 Center     Atomic      Atomic             Coordinates (Angstroms)
 Number     Number       Type             X           Y           Z
 ---------------------------------------------------------------------
      1          6           0       -2.487655    1.393348    0.179471
      2          6           0       -1.202676    1.713652    0.943812
      3          6           0       -1.153713    3.159707    1.438102
      4          1           0       -2.578706    2.077734   -0.675087
      5          1           0       -3.351379    1.588916    0.829956
      6          1           0       -0.341581    1.516221    0.292542
      7          1           0       -1.114577    1.028298    1.796539
      8          1           0       -1.993965    3.366202    2.108876
      9          1           0       -1.216577    3.856897    0.596333
     10          1           0       -0.226720    3.366969    1.981779
     11          6           0       -2.551379   -0.048572   -0.321064
     12          6           0       -3.836359   -0.368876   -1.085405
     13          6           0       -3.885321   -1.814931   -1.579695
     14          1           0       -1.687656   -0.244139   -0.971549
     15          1           0       -2.460329   -0.732958    0.533494
     16          1           0       -3.924458    0.316479   -1.938133
     17          1           0       -4.697453   -0.171444   -0.434135
     18          1           0       -3.822457   -2.512121   -0.737926
     19          1           0       -3.045070   -2.021426   -2.250470
     20          1           0       -4.812315   -2.022192   -2.123373
     21          6           0        2.911324   -0.518208   -0.566501
     22          6           0        3.493019    0.895610   -0.593589
     23          6           0        4.274086    1.189034   -1.874852
     24          1           0        3.727356   -1.245727   -0.674909
     25          1           0        2.254230   -0.653570   -1.436732
     26          1           0        4.147735    1.028724    0.277183
     27          1           0        2.675529    1.619843   -0.484912
     28          1           0        3.628110    1.083733   -2.752477
     29          1           0        5.108680    0.489257   -1.986052
     30          1           0        4.681125    2.204994   -1.873136
     31          6           0        2.127711   -0.826568    0.708095
     32          6           0        1.546015   -2.240385    0.735183
     33          6           0        0.764948   -2.533810    2.016445
     34          1           0        2.784805   -0.691207    1.578325
     35          1           0        1.311679   -0.099049    0.816503
     36          1           0        2.363506   -2.964619    0.626505
     37          1           0        0.891299   -2.373501   -0.135589
     38          1           0       -0.069646   -1.834034    2.127645
     39          1           0        1.410925   -2.428510    2.894070
     40          1           0        0.357909   -3.549771    2.014729
 ---------------------------------------------------------------------

 SCF Done:  E(RHF) =  -470.733131001     A.U. after   11 cycles
 E2 =    -0.1584087028D+01 EUMP2 =    -0.47231721802919D+03

 The electronic state is 1-A.
 Alpha  occ. eigenvalues --  -11.21707 -11.21667 -11.21598 -11.21525 -11.21498
 Alpha  occ. eigenvalues --  -11.21438 -11.21348 -11.21222 -11.21143 -11.21116
 Alpha  occ. eigenvalues --  -11.21071 -11.21024  -1.08530  -1.08369  -1.03612
 Alpha  occ. eigenvalues --   -1.03488  -0.96053  -0.95936  -0.87071  -0.86954
 Alpha  occ. eigenvalues --   -0.79716  -0.79540  -0.78421  -0.78102  -0.65198
 Alpha  occ. eigenvalues --   -0.64977  -0.61011  -0.60887  -0.59435  -0.59296
 Alpha  occ. eigenvalues --   -0.57686  -0.57532  -0.55337  -0.55231  -0.52747
 Alpha  occ. eigenvalues --   -0.52639  -0.52490  -0.52353  -0.49998  -0.49894
 Alpha  occ. eigenvalues --   -0.48105  -0.47856  -0.46758  -0.46609  -0.46184
 Alpha  occ. eigenvalues --   -0.45778  -0.45684  -0.45176  -0.43859  -0.43732
 Alpha virt. eigenvalues --    0.20010   0.22449   0.23632   0.23815   0.25336
 Alpha virt. eigenvalues --    0.25876   0.27006   0.28001   0.28719   0.29499
 Alpha virt. eigenvalues --    0.30850   0.31626   0.31766   0.31812   0.31994

 Mulliken charges:
               1
     1  C   -0.297770
     2  C   -0.307158
     3  C   -0.475514
     4  H    0.149898
     5  H    0.150046
     6  H    0.156337
     7  H    0.153931
     8  H    0.155611
     9  H    0.155325
    10  H    0.161105
    11  C   -0.300789
    12  C   -0.299669
    13  C   -0.475812
    14  H    0.149304
    15  H    0.151458
    16  H    0.152153
    17  H    0.152294
    18  H    0.155631
    19  H    0.155043
    20  H    0.160531
    21  C   -0.297751
    22  C   -0.300956
    23  C   -0.475579
    24  H    0.149577
    25  H    0.148307
    26  H    0.152176
    27  H    0.152057
    28  H    0.154852
    29  H    0.155363
    30  H    0.160197
    31  C   -0.308155
    32  C   -0.298908
    33  C   -0.478288
    34  H    0.148585
    35  H    0.161184
    36  H    0.151383
    37  H    0.152218
    38  H    0.157067
    39  H    0.154831
    40  H    0.159882
 Sum of Mulliken charges =  -0.00000

 Dipole moment (field-independent basis, Debye):
    X=             -0.0587    Y=              0.0385    Z=              0.0099  Tot=              0.0709
 Quadrupole moment (field-independent basis, Debye-Ang):
   XX=            -84.2117   YY=            -85.7616   ZZ=            -84.7690
   XY=             -0.5451   XZ=              0.4293   YZ=             -0.4539

 Normal termination of Gaussian 16 at Wed May  5 18:16:49 2021.
