 Gaussian 16, Revision A.03,
 Gaussian 16:  EM64L-G16RevA.03 25-Dec-2016

 -------------
 #p 6-31g* mp2
 -------------

 ------------------------------------------------------
 Input file generated by CHIRIPA (05-May-2021 14:55:21)
 ------------------------------------------------------
 Symbolic Z-matrix:
 Charge =  0 Multiplicity = 1

                         Standard orientation:
 ---------------------------------------------------------------------
 Center     Atomic      Atomic             Coordinates (Angstroms)
 Number     Number       Type             X           Y           Z
 ---------------------------------------------------------------------
      1          6           0       -4.341849   -1.826610   -0.705093
      2          6           0       -2.963960   -1.882268   -0.939280
      3          6           0       -2.158353   -0.763747   -0.705919
      4          6           0       -2.766556    0.399366   -0.236293
      5          6           0       -4.136502    0.486094    0.006642
      6          6           0       -4.922698   -0.644690   -0.233710
      7          1           0       -4.960125   -2.700267   -0.889089
      8          1           0       -2.510137   -2.798824   -1.305360
      9          1           0       -1.089096   -0.779239   -0.878741
     10          1           0       -4.560156    1.413858    0.371592
     11          1           0       -5.992519   -0.598573   -0.050949
     12          7           0       -1.923971    1.589985    0.014457
     13          8           0       -2.484061    2.602788    0.428179
     14          8           0       -0.719416    1.487845   -0.207475
     15          6           0        3.949370    0.142448   -0.251572
     16          6           0        5.209238   -0.420858   -0.909907
     17          6           0        5.657803    0.395104   -2.122669
     18          1           0        3.139370    0.175455   -0.993028
     19          1           0        4.136609    1.181395    0.053261
     20          1           0        5.020129   -1.458882   -1.212163
     21          1           0        6.016279   -0.452707   -0.166748
     22          1           0        5.873647    1.428636   -1.833145
     23          1           0        4.871835    0.416743   -2.884500
     24          1           0        6.560030   -0.025173   -2.577875
     25          6           0        3.488516   -0.662479    0.962278
     26          6           0        2.228648   -0.099173    1.620613
     27          6           0        1.780083   -0.915135    2.833373
     28          1           0        3.301277   -1.701427    0.657444
     29          1           0        4.298515   -0.695486    1.703733
     30          1           0        1.421607   -0.067325    0.877453
     31          1           0        2.417757    0.938851    1.922869
     32          1           0        2.566050   -0.936775    3.595206
     33          1           0        1.564240   -1.948667    2.543851
     34          1           0        0.877856   -0.494858    3.288581
 ---------------------------------------------------------------------

 SCF Done:  E(RHF) =  -669.535874421     A.U. after   15 cycles
 E2 =    -0.2091299801D+01 EUMP2 =    -0.67162717422208D+03

 The electronic state is 1-A.
 Alpha  occ. eigenvalues --  -20.60911 -20.60905 -15.85942 -11.31280 -11.27853
 Alpha  occ. eigenvalues --  -11.27840 -11.27583 -11.26858 -11.26847 -11.21160
 Alpha  occ. eigenvalues --  -11.20815 -11.20746 -11.20686 -11.20668 -11.20521
 Alpha  occ. eigenvalues --   -1.59971  -1.39528  -1.19450  -1.08851  -1.07829
 Alpha  occ. eigenvalues --   -1.04850  -1.02953  -0.95692  -0.95442  -0.86459
 Alpha  occ. eigenvalues --   -0.86250  -0.82527  -0.78996  -0.77673  -0.77504
 Alpha  occ. eigenvalues --   -0.72166  -0.71285  -0.70560  -0.65109  -0.64857
 Alpha  occ. eigenvalues --   -0.64471  -0.62202  -0.60361  -0.58795  -0.57025
 Alpha  occ. eigenvalues --   -0.55353  -0.54754  -0.53179  -0.52944  -0.52142
 Alpha  occ. eigenvalues --   -0.51855  -0.49407  -0.48934  -0.48920  -0.47315
 Alpha  occ. eigenvalues --   -0.46044  -0.45256  -0.45119  -0.44724  -0.43207
 Alpha  occ. eigenvalues --   -0.37428  -0.36451
 Alpha virt. eigenvalues --    0.04928   0.11191   0.16409   0.20959   0.23195
 Alpha virt. eigenvalues --    0.24611   0.26230   0.27468   0.27677   0.28469
 Alpha virt. eigenvalues --    0.28968   0.30666   0.31638   0.32130   0.32418

 Mulliken charges:
               1
     1  C   -0.170555
     2  C   -0.218687
     3  C   -0.170927
     4  C    0.158183
     5  C   -0.170843
     6  C   -0.218518
     7  H    0.225978
     8  H    0.223814
     9  H    0.276059
    10  H    0.275825
    11  H    0.223806
    12  N    0.490057
    13  O   -0.459240
    14  O   -0.461653
    15  C   -0.297488
    16  C   -0.299132
    17  C   -0.475155
    18  H    0.151753
    19  H    0.152672
    20  H    0.148419
    21  H    0.150822
    22  H    0.156377
    23  H    0.154845
    24  H    0.157966
    25  C   -0.298322
    26  C   -0.305794
    27  C   -0.475713
    28  H    0.142821
    29  H    0.147252
    30  H    0.166717
    31  H    0.156893
    32  H    0.153185
    33  H    0.147981
    34  H    0.160600
 Sum of Mulliken charges =  -0.00000

 Dipole moment (field-independent basis, Debye):
    X=             -3.1586    Y=             -4.0300    Z=             -0.9220  Tot=              5.2027
 Quadrupole moment (field-independent basis, Debye-Ang):
   XX=            -75.5668   YY=            -97.2921   ZZ=            -95.4849
   XY=              8.8664   XZ=              2.5701   YZ=              2.6063

 Normal termination of Gaussian 16 at Wed May  5 23:50:37 2021.
