 Gaussian 16, Revision A.03,
 Gaussian 16:  EM64L-G16RevA.03 25-Dec-2016

 -------------
 #p 6-31g* mp2
 -------------

 ------------------------------------------------------
 Input file generated by CHIRIPA (05-May-2021 14:55:24)
 ------------------------------------------------------
 Symbolic Z-matrix:
 Charge =  0 Multiplicity = 1

                         Standard orientation:
 ---------------------------------------------------------------------
 Center     Atomic      Atomic             Coordinates (Angstroms)
 Number     Number       Type             X           Y           Z
 ---------------------------------------------------------------------
      1          6           0        2.167448    2.199643    1.191278
      2          6           0        1.521737    1.139531    1.836057
      3          6           0        1.419856   -0.110700    1.218731
      4          6           0        1.977521   -0.266327   -0.049370
      5          6           0        2.627027    0.770481   -0.717548
      6          6           0        2.717063    2.012066   -0.081223
      7          1           0        2.241991    3.167494    1.678211
      8          1           0        1.093968    1.282314    2.824324
      9          1           0        0.925411   -0.948529    1.695160
     10          1           0        3.043634    0.597681   -1.702432
     11          1           0        3.219101    2.833568   -0.584350
     12          7           0        1.875934   -1.585314   -0.712962
     13          8           0        2.375524   -1.696700   -1.830388
     14          8           0        1.298645   -2.482774   -0.103094
     15          6           0       -2.532709    0.805015    0.101872
     16          6           0       -2.722529    1.724473   -1.105004
     17          6           0       -2.680180    3.206535   -0.731514
     18          1           0       -3.313019    1.019837    0.844781
     19          1           0       -1.571771    1.035726    0.582251
     20          1           0       -3.682191    1.491154   -1.583779
     21          1           0       -1.941790    1.507305   -1.845207
     22          1           0       -1.718814    3.461135   -0.273743
     23          1           0       -3.469102    3.444892   -0.010828
     24          1           0       -2.817940    3.845811   -1.609127
     25          6           0       -2.572607   -0.679722   -0.255467
     26          6           0       -2.382788   -1.599181    0.951409
     27          6           0       -2.425136   -3.081242    0.577919
     28          1           0       -3.533545   -0.910434   -0.735846
     29          1           0       -1.792298   -0.894545   -0.998375
     30          1           0       -3.163526   -1.382013    1.691613
     31          1           0       -1.423125   -1.365862    1.430185
     32          1           0       -1.636214   -3.319601   -0.142766
     33          1           0       -3.386502   -3.335844    0.120148
     34          1           0       -2.287376   -3.720519    1.455533
 ---------------------------------------------------------------------

 SCF Done:  E(RHF) =  -669.535820136     A.U. after   15 cycles
 E2 =    -0.2094171098D+01 EUMP2 =    -0.67162999123329D+03

 The electronic state is 1-A.
 Alpha  occ. eigenvalues --  -20.60993 -20.60986 -15.86022 -11.31356 -11.27917
 Alpha  occ. eigenvalues --  -11.27914 -11.27655 -11.26933 -11.26916 -11.21580
 Alpha  occ. eigenvalues --  -11.21286 -11.21269 -11.21205 -11.21084 -11.20264
 Alpha  occ. eigenvalues --   -1.60052  -1.39606  -1.19531  -1.08927  -1.08239
 Alpha  occ. eigenvalues --   -1.04928  -1.03288  -0.95773  -0.95707  -0.86732
 Alpha  occ. eigenvalues --   -0.86321  -0.82597  -0.79390  -0.78072  -0.77640
 Alpha  occ. eigenvalues --   -0.72244  -0.71373  -0.70636  -0.65185  -0.65017
 Alpha  occ. eigenvalues --   -0.64791  -0.62295  -0.60646  -0.59128  -0.57338
 Alpha  occ. eigenvalues --   -0.55425  -0.54997  -0.53249  -0.53021  -0.52406
 Alpha  occ. eigenvalues --   -0.52138  -0.49639  -0.49004  -0.48993  -0.47691
 Alpha  occ. eigenvalues --   -0.46413  -0.45616  -0.45504  -0.44947  -0.43550
 Alpha  occ. eigenvalues --   -0.37499  -0.36473
 Alpha virt. eigenvalues --    0.04814   0.11052   0.16279   0.20758   0.23013
 Alpha virt. eigenvalues --    0.24239   0.25980   0.27117   0.27740   0.28300
 Alpha virt. eigenvalues --    0.28784   0.30462   0.31435   0.31864   0.32427

 Mulliken charges:
               1
     1  C   -0.170996
     2  C   -0.219672
     3  C   -0.171123
     4  C    0.157539
     5  C   -0.170779
     6  C   -0.218281
     7  H    0.226775
     8  H    0.225280
     9  H    0.280482
    10  H    0.276125
    11  H    0.224350
    12  N    0.488545
    13  O   -0.458779
    14  O   -0.461055
    15  C   -0.302270
    16  C   -0.298702
    17  C   -0.475321
    18  H    0.147062
    19  H    0.148217
    20  H    0.152924
    21  H    0.152754
    22  H    0.151185
    23  H    0.154449
    24  H    0.159906
    25  C   -0.299141
    26  C   -0.297721
    27  C   -0.479832
    28  H    0.150155
    29  H    0.153111
    30  H    0.147512
    31  H    0.142790
    32  H    0.176738
    33  H    0.150578
    34  H    0.157196
 Sum of Mulliken charges =  -0.00000

 Dipole moment (field-independent basis, Debye):
    X=              0.5593    Y=              4.5392    Z=              2.2401  Tot=              5.0927
 Quadrupole moment (field-independent basis, Debye-Ang):
   XX=            -92.0032   YY=            -98.2105   ZZ=            -92.1417
   XY=             10.4175   XZ=              2.5272   YZ=             -2.3392

 Normal termination of Gaussian 16 at Thu May  6 06:21:00 2021.
