 Gaussian 16, Revision A.03,
 Gaussian 16:  EM64L-G16RevA.03 25-Dec-2016

 -------------
 #p 6-31g* mp2
 -------------

 ------------------------------------------------------
 Input file generated by CHIRIPA (05-May-2021 14:57:26)
 ------------------------------------------------------
 Symbolic Z-matrix:
 Charge =  0 Multiplicity = 1

                         Standard orientation:
 ---------------------------------------------------------------------
 Center     Atomic      Atomic             Coordinates (Angstroms)
 Number     Number       Type             X           Y           Z
 ---------------------------------------------------------------------
      1          6           0        4.445231    2.394331    0.468178
      2          6           0        3.646118    1.733474    1.406904
      3          6           0        3.233679    0.415991    1.186264
      4          6           0        3.640590   -0.213281    0.010794
      5          6           0        4.436590    0.418373   -0.943505
      6          6           0        4.837225    1.735832   -0.701968
      7          1           0        4.761039    3.417774    0.647693
      8          1           0        3.340177    2.242393    2.316545
      9          1           0        2.614876   -0.119246    1.896209
     10          1           0        4.725626   -0.115067   -1.840900
     11          1           0        5.457811    2.246586   -1.432754
     12          7           0        3.210207   -1.608029   -0.233849
     13          8           0        3.582154   -2.140363   -1.277359
     14          8           0        2.509075   -2.142488    0.622541
     15          6           0       -1.551540   -1.307522    0.133000
     16          6           0       -2.738015   -1.853135    0.634103
     17          6           0       -3.940648   -1.146805    0.537559
     18          6           0       -3.920341    0.108213   -0.068914
     19          6           0       -2.754586    0.678643   -0.577750
     20          6           0       -1.563591   -0.045598   -0.470264
     21          1           0       -0.621826   -1.863172    0.212247
     22          1           0       -2.731645   -2.832951    1.103107
     23          1           0       -4.873612   -1.545534    0.917047
     24          1           0       -2.792428    1.657582   -1.039988
     25          1           0       -0.643672    0.380613   -0.860312
     26          7           0       -5.187354    0.865454   -0.176913
     27          8           0       -5.142876    1.969259   -0.715681
     28          8           0       -6.200925    0.340835    0.279252
 ---------------------------------------------------------------------

 SCF Done:  E(RHF) =  -868.339957512     A.U. after   16 cycles
 E2 =    -0.2598524919D+01 EUMP2 =    -0.87093848243091D+03

 The electronic state is 1-A.
 Alpha  occ. eigenvalues --  -20.61947 -20.61883 -20.60476 -20.60468 -15.86936
 Alpha  occ. eigenvalues --  -15.85527 -11.32076 -11.30765 -11.28616 -11.28587
 Alpha  occ. eigenvalues --  -11.28271 -11.27548 -11.27535 -11.27367 -11.27327
 Alpha  occ. eigenvalues --  -11.26860 -11.26296 -11.26228  -1.60980  -1.59555
 Alpha  occ. eigenvalues --   -1.40538  -1.39112  -1.20219  -1.18920  -1.09649
 Alpha  occ. eigenvalues --   -1.08300  -1.05575  -1.04319  -0.96520  -0.95158
 Alpha  occ. eigenvalues --   -0.86981  -0.85702  -0.83354  -0.82010  -0.78437
 Alpha  occ. eigenvalues --   -0.77111  -0.73153  -0.72301  -0.71745  -0.71298
 Alpha  occ. eigenvalues --   -0.70879  -0.69905  -0.65861  -0.65556  -0.64556
 Alpha  occ. eigenvalues --   -0.64310  -0.62917  -0.61682  -0.56061  -0.54662
 Alpha  occ. eigenvalues --   -0.53928  -0.53648  -0.52645  -0.52398  -0.49928
 Alpha  occ. eigenvalues --   -0.49887  -0.48509  -0.48491  -0.45977  -0.44547
 Alpha  occ. eigenvalues --   -0.38182  -0.37174  -0.36840  -0.35948
 Alpha virt. eigenvalues --    0.04028   0.05443   0.10474   0.11721   0.15550
 Alpha virt. eigenvalues --    0.16981   0.20682   0.22016   0.26629   0.27445
 Alpha virt. eigenvalues --    0.27696   0.28980   0.30407   0.31419   0.32271

 Mulliken charges:
               1
     1  C   -0.170034
     2  C   -0.218530
     3  C   -0.173424
     4  C    0.155214
     5  C   -0.171148
     6  C   -0.218574
     7  H    0.229222
     8  H    0.226887
     9  H    0.275191
    10  H    0.277215
    11  H    0.226618
    12  N    0.487493
    13  O   -0.454661
    14  O   -0.467646
    15  C   -0.178413
    16  C   -0.220283
    17  C   -0.171338
    18  C    0.157212
    19  C   -0.171864
    20  C   -0.221271
    21  H    0.245939
    22  H    0.225268
    23  H    0.274210
    24  H    0.272577
    25  H    0.220000
    26  N    0.488266
    27  O   -0.462744
    28  O   -0.461380
 Sum of Mulliken charges =  -0.00000

 Dipole moment (field-independent basis, Debye):
    X=              6.4013    Y=              2.2407    Z=              1.2473  Tot=              6.8959
 Quadrupole moment (field-independent basis, Debye-Ang):
   XX=           -127.2489   YY=           -105.2362   ZZ=           -100.7772
   XY=             31.5951   XZ=             -2.6045   YZ=             -1.7098

 Normal termination of Gaussian 16 at Thu May  6 08:21:33 2021.
