 Gaussian 16, Revision A.03,
 Gaussian 16:  EM64L-G16RevA.03 25-Dec-2016

 -------------
 #p 6-31g* mp2
 -------------

 ------------------------------------------------------
 Input file generated by CHIRIPA (05-May-2021 14:57:23)
 ------------------------------------------------------
 Symbolic Z-matrix:
 Charge =  0 Multiplicity = 1

                         Standard orientation:
 ---------------------------------------------------------------------
 Center     Atomic      Atomic             Coordinates (Angstroms)
 Number     Number       Type             X           Y           Z
 ---------------------------------------------------------------------
      1          6           0        1.833149   -2.624553    0.138031
      2          6           0        2.600508   -2.218483   -0.958686
      3          6           0        3.085571   -0.909819   -1.040298
      4          6           0        2.782876   -0.029460   -0.002688
      5          6           0        2.020934   -0.403974    1.102967
      6          6           0        1.546317   -1.717601    1.163550
      7          1           0        1.460397   -3.643082    0.193261
      8          1           0        2.824830   -2.920682   -1.756584
      9          1           0        3.681926   -0.568926   -1.877897
     10          1           0        1.813806    0.318680    1.882894
     11          1           0        0.950617   -2.030180    2.016474
     12          7           0        3.290861    1.358591   -0.077956
     13          8           0        3.010267    2.115051    0.849229
     14          8           0        3.959996    1.663803   -1.062711
     15          6           0       -2.206382    2.732486    0.024140
     16          6           0       -3.415845    2.266749   -0.501987
     17          6           0       -3.699513    0.897987   -0.525867
     18          6           0       -2.746793    0.019026   -0.012990
     19          6           0       -1.532755    0.452175    0.517842
     20          6           0       -1.270347    1.825311    0.531481
     21          1           0       -1.994279    3.797472    0.038714
     22          1           0       -4.144643    2.968971   -0.896678
     23          1           0       -4.627879    0.510185   -0.927320
     24          1           0       -0.825865   -0.272082    0.904078
     25          1           0       -0.330228    2.184153    0.940693
     26          7           0       -3.035845   -1.432338   -0.032850
     27          8           0       -2.179940   -2.186233    0.425085
     28          8           0       -4.112837   -1.788538   -0.505975
 ---------------------------------------------------------------------

 SCF Done:  E(RHF) =  -868.339327695     A.U. after   16 cycles
 E2 =    -0.2602303083D+01 EUMP2 =    -0.87094163077821D+03

 The electronic state is 1-A.
 Alpha  occ. eigenvalues --  -20.61375 -20.61326 -20.61109 -20.61065 -15.86380
 Alpha  occ. eigenvalues --  -15.86129 -11.31552 -11.31203 -11.28143 -11.28042
 Alpha  occ. eigenvalues --  -11.27759 -11.27654 -11.27610 -11.27395 -11.26959
 Alpha  occ. eigenvalues --  -11.26943 -11.26708 -11.26600  -1.60416  -1.60159
 Alpha  occ. eigenvalues --   -1.39979  -1.39725  -1.19689  -1.19347  -1.09058
 Alpha  occ. eigenvalues --   -1.08787  -1.05110  -1.04689  -0.95945  -0.95676
 Alpha  occ. eigenvalues --   -0.86437  -0.86112  -0.82810  -0.82525  -0.77978
 Alpha  occ. eigenvalues --   -0.77565  -0.72597  -0.72373  -0.71733  -0.71470
 Alpha  occ. eigenvalues --   -0.70703  -0.70449  -0.65331  -0.65085  -0.64946
 Alpha  occ. eigenvalues --   -0.64658  -0.62540  -0.61975  -0.55417  -0.55219
 Alpha  occ. eigenvalues --   -0.53491  -0.53126  -0.53042  -0.52617  -0.49377
 Alpha  occ. eigenvalues --   -0.49332  -0.49127  -0.49077  -0.45421  -0.45195
 Alpha  occ. eigenvalues --   -0.37541  -0.37306  -0.36721  -0.36228
 Alpha virt. eigenvalues --    0.04563   0.04893   0.10867   0.11348   0.16042
 Alpha virt. eigenvalues --    0.16465   0.20463   0.22266   0.25878   0.27375
 Alpha virt. eigenvalues --    0.28518   0.29672   0.30121   0.31510   0.32572

 Mulliken charges:
               1
     1  C   -0.162749
     2  C   -0.218873
     3  C   -0.170372
     4  C    0.161189
     5  C   -0.185529
     6  C   -0.222908
     7  H    0.236442
     8  H    0.226764
     9  H    0.276268
    10  H    0.270855
    11  H    0.232949
    12  N    0.488710
    13  O   -0.468258
    14  O   -0.456295
    15  C   -0.169704
    16  C   -0.219361
    17  C   -0.170468
    18  C    0.154318
    19  C   -0.174142
    20  C   -0.230612
    21  H    0.229810
    22  H    0.223779
    23  H    0.274589
    24  H    0.279384
    25  H    0.235236
    26  N    0.488597
    27  O   -0.470771
    28  O   -0.458850
 Sum of Mulliken charges =  -0.00000

 Dipole moment (field-independent basis, Debye):
    X=             -0.6178    Y=              0.0209    Z=              0.1748  Tot=              0.6424
 Quadrupole moment (field-independent basis, Debye-Ang):
   XX=           -116.2693   YY=           -103.9842   ZZ=           -100.9664
   XY=            -30.0854   XZ=              0.2832   YZ=              0.4573

 Normal termination of Gaussian 16 at Thu May  6 11:19:34 2021.
