 Gaussian 16, Revision A.03,
 Gaussian 16:  EM64L-G16RevA.03 25-Dec-2016

 -------------
 #p 6-31g* mp2
 -------------

 ------------------------------------------------------
 Input file generated by CHIRIPA (05-May-2021 14:57:26)
 ------------------------------------------------------
 Symbolic Z-matrix:
 Charge =  0 Multiplicity = 1

                         Standard orientation:
 ---------------------------------------------------------------------
 Center     Atomic      Atomic             Coordinates (Angstroms)
 Number     Number       Type             X           Y           Z
 ---------------------------------------------------------------------
      1          6           0        6.013599   -0.095757   -1.163796
      2          6           0        5.498930    1.088853   -0.626828
      3          6           0        4.298508    1.080865    0.089742
      4          6           0        3.635954   -0.134996    0.250967
      5          6           0        4.123125   -1.331883   -0.271926
      6          6           0        5.325267   -1.300221   -0.984947
      7          1           0        6.946784   -0.080356   -1.719066
      8          1           0        6.031347    2.025719   -0.764155
      9          1           0        3.877474    1.983276    0.516124
     10          1           0        3.569728   -2.250376   -0.118495
     11          1           0        5.722597   -2.221743   -1.400844
     12          7           0        2.364211   -0.155984    1.007689
     13          8           0        1.799627   -1.240179    1.135767
     14          8           0        1.956082    0.912157    1.458400
     15          6           0       -2.786740    2.420432   -0.050108
     16          6           0       -4.054571    2.254157   -0.617097
     17          6           0       -4.650896    0.990559   -0.664695
     18          6           0       -3.947915   -0.089745   -0.133611
     19          6           0       -2.683440    0.043762    0.437852
     20          6           0       -2.106420    1.316651    0.474632
     21          1           0       -2.330998    3.405634   -0.017334
     22          1           0       -4.585243    3.109572   -1.025382
     23          1           0       -5.631259    0.833461   -1.097853
     24          1           0       -2.178961   -0.827884    0.836787
     25          1           0       -1.121684    1.442808    0.915569
     26          7           0       -4.568999   -1.432376   -0.178275
     27          8           0       -3.928969   -2.368146    0.296418
     28          8           0       -5.684074   -1.523538   -0.687130
 ---------------------------------------------------------------------

 SCF Done:  E(RHF) =  -868.340549076     A.U. after   16 cycles
 E2 =    -0.2598403537D+01 EUMP2 =    -0.87093895261272D+03

 The electronic state is 1-A.
 Alpha  occ. eigenvalues --  -20.61693 -20.61659 -20.59941 -20.59921 -15.86683
 Alpha  occ. eigenvalues --  -15.84976 -11.31768 -11.30192 -11.28324 -11.28275
 Alpha  occ. eigenvalues --  -11.27993 -11.27265 -11.27230 -11.26807 -11.26588
 Alpha  occ. eigenvalues --  -11.26464 -11.25833 -11.25495  -1.60732  -1.59013
 Alpha  occ. eigenvalues --   -1.40290  -1.38568  -1.19914  -1.18342  -1.09362
 Alpha  occ. eigenvalues --   -1.07778  -1.05273  -1.03689  -0.96243  -0.94636
 Alpha  occ. eigenvalues --   -0.86684  -0.85102  -0.83083  -0.81447  -0.78162
 Alpha  occ. eigenvalues --   -0.76505  -0.72911  -0.72024  -0.71200  -0.71017
 Alpha  occ. eigenvalues --   -0.70335  -0.69467  -0.65569  -0.65272  -0.63982
 Alpha  occ. eigenvalues --   -0.63652  -0.62621  -0.61003  -0.55785  -0.54241
 Alpha  occ. eigenvalues --   -0.53617  -0.53360  -0.52079  -0.51746  -0.49680
 Alpha  occ. eigenvalues --   -0.49650  -0.47962  -0.47942  -0.45748  -0.44006
 Alpha  occ. eigenvalues --   -0.37876  -0.36862  -0.36359  -0.35299
 Alpha virt. eigenvalues --    0.04326   0.05972   0.10797   0.12340   0.15868
 Alpha virt. eigenvalues --    0.17499   0.20962   0.22598   0.26898   0.27795
 Alpha virt. eigenvalues --    0.28706   0.29334   0.30562   0.31945   0.32241

 Mulliken charges:
               1
     1  C   -0.169702
     2  C   -0.218556
     3  C   -0.170770
     4  C    0.157765
     5  C   -0.170001
     6  C   -0.218560
     7  H    0.227754
     8  H    0.224600
     9  H    0.273992
    10  H    0.278138
    11  H    0.226168
    12  N    0.489208
    13  O   -0.456817
    14  O   -0.469129
    15  C   -0.172855
    16  C   -0.219000
    17  C   -0.173351
    18  C    0.157665
    19  C   -0.174375
    20  C   -0.229089
    21  H    0.222615
    22  H    0.218832
    23  H    0.271817
    24  H    0.284071
    25  H    0.245934
    26  N    0.487842
    27  O   -0.459562
    28  O   -0.464633
 Sum of Mulliken charges =  -0.00000

 Dipole moment (field-independent basis, Debye):
    X=              7.2358    Y=              4.6521    Z=             -2.4557  Tot=              8.9459
 Quadrupole moment (field-independent basis, Debye-Ang):
   XX=            -87.6047   YY=           -100.7652   ZZ=           -106.5886
   XY=            -20.6945   XZ=             -8.2163   YZ=             -0.3777

 Normal termination of Gaussian 16 at Fri May  7 08:09:59 2021.
