 Gaussian 16, Revision A.03,
 Gaussian 16:  EM64L-G16RevA.03 25-Dec-2016

 -------------
 #p 6-31g* mp2
 -------------

 ------------------------------------------------------
 Input file generated by CHIRIPA (05-May-2021 14:57:21)
 ------------------------------------------------------
 Symbolic Z-matrix:
 Charge =  0 Multiplicity = 1

                         Standard orientation:
 ---------------------------------------------------------------------
 Center     Atomic      Atomic             Coordinates (Angstroms)
 Number     Number       Type             X           Y           Z
 ---------------------------------------------------------------------
      1          6           0        5.164143    0.576052    0.690989
      2          6           0        4.306682   -0.193285    1.484337
      3          6           0        3.055451   -0.587766    1.001271
      4          6           0        2.692188   -0.193456   -0.285528
      5          6           0        3.524255    0.572955   -1.100125
      6          6           0        4.770887    0.956047   -0.596440
      7          1           0        6.134343    0.878071    1.074255
      8          1           0        4.609450   -0.489848    2.484551
      9          1           0        2.372006   -1.183449    1.594131
     10          1           0        3.194618    0.853271   -2.093191
     11          1           0        5.434745    1.553516   -1.214799
     12          7           0        1.370001   -0.605046   -0.807842
     13          8           0        1.073456   -0.244730   -1.944887
     14          8           0        0.655250   -1.280174   -0.070298
     15          6           0       -2.770597   -2.392116    0.113054
     16          6           0       -3.167660   -1.673768   -1.019571
     17          6           0       -3.248508   -0.278532   -0.983164
     18          6           0       -2.923588    0.369026    0.207796
     19          6           0       -2.524689   -0.318584    1.352943
     20          6           0       -2.450943   -1.713427    1.293615
     21          1           0       -2.710551   -3.475817    0.075870
     22          1           0       -3.416504   -2.198199   -1.937773
     23          1           0       -3.552991    0.302382   -1.845283
     24          1           0       -2.282905    0.232102    2.253889
     25          1           0       -2.142274   -2.268707    2.174769
     26          7           0       -3.005419    1.845892    0.258470
     27          8           0       -2.713864    2.392830    1.319834
     28          8           0       -3.359561    2.428559   -0.764134
 ---------------------------------------------------------------------

 SCF Done:  E(RHF) =  -868.337899808     A.U. after   16 cycles
 E2 =    -0.2600526778D+01 EUMP2 =    -0.87093842658597D+03

 The electronic state is 1-A.
 Alpha  occ. eigenvalues --  -20.61001 -20.60989 -20.59714 -20.59695 -15.86032
 Alpha  occ. eigenvalues --  -15.84749 -11.31325 -11.29763 -11.27918 -11.27862
 Alpha  occ. eigenvalues --  -11.27609 -11.26899 -11.26862 -11.26355 -11.26311
 Alpha  occ. eigenvalues --  -11.26026 -11.25308 -11.25269  -1.60066  -1.58788
 Alpha  occ. eigenvalues --   -1.39625  -1.38353  -1.19489  -1.17893  -1.08898
 Alpha  occ. eigenvalues --   -1.07374  -1.04885  -1.03289  -0.95749  -0.94279
 Alpha  occ. eigenvalues --   -0.86287  -0.84738  -0.82589  -0.81152  -0.77647
 Alpha  occ. eigenvalues --   -0.76232  -0.72277  -0.71384  -0.70991  -0.70603
 Alpha  occ. eigenvalues --   -0.70096  -0.69101  -0.65149  -0.64891  -0.63606
 Alpha  occ. eigenvalues --   -0.63376  -0.62240  -0.60708  -0.55390  -0.53865
 Alpha  occ. eigenvalues --   -0.53213  -0.52983  -0.51624  -0.51460  -0.49021
 Alpha  occ. eigenvalues --   -0.48906  -0.47755  -0.47713  -0.45044  -0.43838
 Alpha  occ. eigenvalues --   -0.37460  -0.36481  -0.35797  -0.34784
 Alpha virt. eigenvalues --    0.04867   0.06341   0.11174   0.12820   0.16389
 Alpha virt. eigenvalues --    0.17918   0.21302   0.22664   0.27199   0.28152
 Alpha virt. eigenvalues --    0.28549   0.29535   0.30861   0.32121   0.32406

 Mulliken charges:
               1
     1  C   -0.170261
     2  C   -0.218029
     3  C   -0.170320
     4  C    0.158880
     5  C   -0.169812
     6  C   -0.218142
     7  H    0.226374
     8  H    0.223139
     9  H    0.271616
    10  H    0.276704
    11  H    0.224620
    12  N    0.490185
    13  O   -0.459350
    14  O   -0.464857
    15  C   -0.159524
    16  C   -0.212353
    17  C   -0.165076
    18  C    0.158624
    19  C   -0.168148
    20  C   -0.204994
    21  H    0.219957
    22  H    0.218953
    23  H    0.271775
    24  H    0.267505
    25  H    0.214859
    26  N    0.487906
    27  O   -0.467217
    28  O   -0.463013
 Sum of Mulliken charges =  -0.00000

 Dipole moment (field-independent basis, Debye):
    X=              5.2072    Y=             -3.8833    Z=              1.5064  Tot=              6.6681
 Quadrupole moment (field-independent basis, Debye-Ang):
   XX=            -82.5722   YY=           -109.6885   ZZ=            -98.1562
   XY=             19.6119   XZ=              5.2844   YZ=             -4.4405

 Normal termination of Gaussian 16 at Thu May  6 19:29:17 2021.
