 Gaussian 16, Revision A.03,
 Gaussian 16:  EM64L-G16RevA.03 25-Dec-2016

 -------------
 #p 6-31g* mp2
 -------------

 ------------------------------------------------------
 Input file generated by CHIRIPA (05-May-2021 14:51:14)
 ------------------------------------------------------
 Symbolic Z-matrix:
 Charge =  0 Multiplicity = 1

                         Standard orientation:
 ---------------------------------------------------------------------
 Center     Atomic      Atomic             Coordinates (Angstroms)
 Number     Number       Type             X           Y           Z
 ---------------------------------------------------------------------
      1          6           0        2.476543   -0.152880    0.920078
      2          6           0        1.566050   -1.374870    0.794670
      3          6           0        0.585959   -1.504014    1.961090
      4          1           0        3.034405   -0.214588    1.864497
      5          1           0        1.856998    0.752535    0.981599
      6          1           0        2.187163   -2.277593    0.732012
      7          1           0        1.010433   -1.310342   -0.149650
      8          1           0       -0.057926   -0.620724    2.022840
      9          1           0        1.125491   -1.593471    2.909512
     10          1           0       -0.055179   -2.384196    1.851173
     11          6           0        3.461941   -0.010148   -0.238518
     12          6           0        4.372433    1.211842   -0.113110
     13          6           0        5.352525    1.340986   -1.279530
     14          1           0        4.081485   -0.915563   -0.300038
     15          1           0        2.904079    0.051560   -1.182937
     16          1           0        4.928051    1.147314    0.831211
     17          1           0        3.751320    2.114565   -0.050452
     18          1           0        4.812992    1.430443   -2.227952
     19          1           0        5.996409    0.457696   -1.341279
     20          1           0        5.993663    2.221168   -1.169613
     21          6           0       -3.247727    0.764297   -0.539991
     22          6           0       -3.379058    1.732278    0.636337
     23          6           0       -3.937537    3.093946    0.221900
     24          1           0       -2.597381    1.211814   -1.304009
     25          1           0       -4.233063    0.630613   -1.007577
     26          1           0       -2.394026    1.863023    1.102420
     27          1           0       -4.029013    1.282324    1.397729
     28          1           0       -4.931385    2.983257   -0.223761
     29          1           0       -3.287108    3.567255   -0.520747
     30          1           0       -4.023090    3.770257    1.078137
     31          6           0       -2.690756   -0.601269   -0.141569
     32          6           0       -2.559425   -1.569250   -1.317898
     33          6           0       -2.000947   -2.930918   -0.903460
     34          1           0       -1.705421   -0.467585    0.326017
     35          1           0       -3.341103   -1.048786    0.622449
     36          1           0       -1.909471   -1.119296   -2.079289
     37          1           0       -3.544457   -1.699995   -1.783981
     38          1           0       -2.651375   -3.404227   -0.160814
     39          1           0       -1.007098   -2.820229   -0.457799
     40          1           0       -1.915394   -3.607230   -1.759697
 ---------------------------------------------------------------------

 SCF Done:  E(RHF) =  -470.732211177     A.U. after   11 cycles
 E2 =    -0.1584388271D+01 EUMP2 =    -0.47231659944780D+03

 The electronic state is 1-A.
 Alpha  occ. eigenvalues --  -11.21681 -11.21642 -11.21621 -11.21582 -11.21467
 Alpha  occ. eigenvalues --  -11.21405 -11.21378 -11.21286 -11.21102 -11.21085
 Alpha  occ. eigenvalues --  -11.21077 -11.21011  -1.08508  -1.08404  -1.03626
 Alpha  occ. eigenvalues --   -1.03489  -0.96038  -0.95966  -0.87050  -0.86986
 Alpha  occ. eigenvalues --   -0.79655  -0.79588  -0.78306  -0.78235  -0.65313
 Alpha  occ. eigenvalues --   -0.64910  -0.61206  -0.60751  -0.59507  -0.59235
 Alpha  occ. eigenvalues --   -0.57807  -0.57434  -0.55387  -0.55204  -0.52749
 Alpha  occ. eigenvalues --   -0.52658  -0.52560  -0.52264  -0.50100  -0.49798
 Alpha  occ. eigenvalues --   -0.47974  -0.47883  -0.46720  -0.46590  -0.45917
 Alpha  occ. eigenvalues --   -0.45764  -0.45741  -0.45506  -0.43833  -0.43767
 Alpha virt. eigenvalues --    0.20379   0.23234   0.23445   0.24333   0.26046
 Alpha virt. eigenvalues --    0.26658   0.26731   0.27482   0.28009   0.29734
 Alpha virt. eigenvalues --    0.30551   0.31218   0.31702   0.32050   0.32314

 Mulliken charges:
               1
     1  C   -0.297791
     2  C   -0.304986
     3  C   -0.481126
     4  H    0.150254
     5  H    0.148896
     6  H    0.152921
     7  H    0.153903
     8  H    0.156589
     9  H    0.156422
    10  H    0.163813
    11  C   -0.298389
    12  C   -0.299706
    13  C   -0.475742
    14  H    0.149824
    15  H    0.149526
    16  H    0.152113
    17  H    0.151887
    18  H    0.155186
    19  H    0.155307
    20  H    0.160409
    21  C   -0.297704
    22  C   -0.299666
    23  C   -0.475636
    24  H    0.148866
    25  H    0.149510
    26  H    0.150731
    27  H    0.152306
    28  H    0.155400
    29  H    0.155008
    30  H    0.160298
    31  C   -0.306988
    32  C   -0.298760
    33  C   -0.483635
    34  H    0.160288
    35  H    0.149303
    36  H    0.150707
    37  H    0.151844
    38  H    0.154648
    39  H    0.164235
    40  H    0.159934
 Sum of Mulliken charges =  -0.00000

 Dipole moment (field-independent basis, Debye):
    X=              0.0329    Y=             -0.0135    Z=              0.0306  Tot=              0.0469
 Quadrupole moment (field-independent basis, Debye-Ang):
   XX=            -84.1534   YY=            -85.5004   ZZ=            -85.1414
   XY=              0.1268   XZ=              0.6651   YZ=             -0.0915

 Normal termination of Gaussian 16 at Thu May  6 00:50:51 2021.
