 Gaussian 16, Revision A.03,
 Gaussian 16:  EM64L-G16RevA.03 25-Dec-2016

 -------------
 #p 6-31g* mp2
 -------------

 ------------------------------------------------------
 Input file generated by CHIRIPA (05-May-2021 14:53:18)
 ------------------------------------------------------
 Symbolic Z-matrix:
 Charge =  0 Multiplicity = 1

                         Standard orientation:
 ---------------------------------------------------------------------
 Center     Atomic      Atomic             Coordinates (Angstroms)
 Number     Number       Type             X           Y           Z
 ---------------------------------------------------------------------
      1          6           0        4.856527    0.253376    0.449355
      2          6           0        5.304871    1.489621   -0.330820
      3          6           0        6.459738    2.228860    0.345643
      4          1           0        4.557132    0.555524    1.462278
      5          1           0        5.710844   -0.427744    0.566033
      6          1           0        4.449620    2.167574   -0.447190
      7          1           0        5.603052    1.184522   -1.342066
      8          1           0        7.330040    1.572552    0.447801
      9          1           0        6.170054    2.561190    1.347761
     10          1           0        6.764285    3.109204   -0.228906
     11          6           0        3.702711   -0.496292   -0.214297
     12          6           0        3.254367   -1.732537    0.565877
     13          6           0        2.099500   -2.471775   -0.110585
     14          1           0        2.848394    0.184828   -0.330975
     15          1           0        4.002106   -0.798440   -1.227220
     16          1           0        2.956186   -1.427437    1.577123
     17          1           0        4.109618   -2.410489    0.682247
     18          1           0        2.389184   -2.804105   -1.112704
     19          1           0        1.229199   -1.815467   -0.212743
     20          1           0        1.794953   -3.352119    0.463964
     21          6           0       -5.099869    1.829816    0.428711
     22          6           0       -5.181382    0.556992    1.002990
     23          6           0       -4.213815   -0.412148    0.721693
     24          6           0       -3.173649   -0.072837   -0.142142
     25          6           0       -3.064917    1.186513   -0.729938
     26          6           0       -4.043758    2.139967   -0.434398
     27          1           0       -5.855877    2.576575    0.652762
     28          1           0       -6.000456    0.313322    1.673652
     29          1           0       -4.252641   -1.405286    1.152490
     30          1           0       -2.236669    1.399887   -1.394689
     31          1           0       -3.977908    3.127645   -0.881836
     32          7           0       -2.143361   -1.090520   -0.447478
     33          8           0       -1.236898   -0.766657   -1.211725
     34          8           0       -2.261793   -2.192773    0.083229
 ---------------------------------------------------------------------

 SCF Done:  E(RHF) =  -669.536311474     A.U. after   15 cycles
 E2 =    -0.2091057780D+01 EUMP2 =    -0.67162736925406D+03

 The electronic state is 1-A.
 Alpha  occ. eigenvalues --  -20.60995 -20.60987 -15.86011 -11.31328 -11.27888
 Alpha  occ. eigenvalues --  -11.27883 -11.27622 -11.26890 -11.26881 -11.21072
 Alpha  occ. eigenvalues --  -11.20688 -11.20662 -11.20449 -11.20389 -11.19295
 Alpha  occ. eigenvalues --   -1.60043  -1.39600  -1.19493  -1.08898  -1.07590
 Alpha  occ. eigenvalues --   -1.04886  -1.02597  -0.95741  -0.95012  -0.86287
 Alpha  occ. eigenvalues --   -0.86018  -0.82573  -0.78701  -0.77629  -0.77347
 Alpha  occ. eigenvalues --   -0.72222  -0.71358  -0.70600  -0.65147  -0.64888
 Alpha  occ. eigenvalues --   -0.64234  -0.62233  -0.60002  -0.58471  -0.56618
 Alpha  occ. eigenvalues --   -0.55393  -0.54301  -0.53219  -0.52977  -0.51700
 Alpha  occ. eigenvalues --   -0.51434  -0.49225  -0.48981  -0.48717  -0.46964
 Alpha  occ. eigenvalues --   -0.45757  -0.45057  -0.44877  -0.44706  -0.42859
 Alpha  occ. eigenvalues --   -0.37470  -0.36487
 Alpha virt. eigenvalues --    0.04870   0.11169   0.16366   0.21308   0.23630
 Alpha virt. eigenvalues --    0.25323   0.27227   0.27458   0.28157   0.28315
 Alpha virt. eigenvalues --    0.29111   0.30867   0.32329   0.32435   0.32572

 Mulliken charges:
               1
     1  C   -0.297438
     2  C   -0.298683
     3  C   -0.475122
     4  H    0.147343
     5  H    0.148043
     6  H    0.150176
     7  H    0.151593
     8  H    0.154731
     9  H    0.153834
    10  H    0.158089
    11  C   -0.297235
    12  C   -0.299842
    13  C   -0.482209
    14  H    0.151052
    15  H    0.148804
    16  H    0.147213
    17  H    0.146526
    18  H    0.150820
    19  H    0.179212
    20  H    0.157292
    21  C   -0.170520
    22  C   -0.218596
    23  C   -0.170745
    24  C    0.158515
    25  C   -0.170871
    26  C   -0.218568
    27  H    0.226125
    28  H    0.223957
    29  H    0.276013
    30  H    0.275860
    31  H    0.223953
    32  N    0.488001
    33  O   -0.459439
    34  O   -0.457886
 Sum of Mulliken charges =  -0.00000

 Dipole moment (field-independent basis, Debye):
    X=             -4.0146    Y=              3.5746    Z=              1.0162  Tot=              5.4706
 Quadrupole moment (field-independent basis, Debye-Ang):
   XX=            -72.4492   YY=            -93.8230   ZZ=            -93.8416
   XY=            -10.4761   XZ=             -5.5408   YZ=             -2.7192

 Normal termination of Gaussian 16 at Thu May  6 17:20:00 2021.
