 Gaussian 16, Revision A.03,
 Gaussian 16:  EM64L-G16RevA.03 25-Dec-2016

 -------------
 #p 6-31g* mp2
 -------------

 ------------------------------------------------------
 Input file generated by CHIRIPA (05-May-2021 14:53:13)
 ------------------------------------------------------
 Symbolic Z-matrix:
 Charge =  0 Multiplicity = 1

                         Standard orientation:
 ---------------------------------------------------------------------
 Center     Atomic      Atomic             Coordinates (Angstroms)
 Number     Number       Type             X           Y           Z
 ---------------------------------------------------------------------
      1          6           0        5.021954   -0.060464    0.185864
      2          6           0        5.324177   -1.338303   -0.597573
      3          6           0        6.719426   -1.892870   -0.308560
      4          1           0        5.777606    0.698839   -0.057847
      5          1           0        5.120510   -0.265766    1.260821
      6          1           0        5.223729   -1.131005   -1.670678
      7          1           0        4.567607   -2.094589   -0.352114
      8          1           0        6.827972   -2.127477    0.755290
      9          1           0        7.487821   -1.158418   -0.570765
     10          1           0        6.914476   -2.806312   -0.879032
     11          6           0        3.630774    0.506025   -0.092411
     12          6           0        3.328552    1.783864    0.691026
     13          6           0        1.933302    2.338430    0.402013
     14          1           0        3.532218    0.711326   -1.167369
     15          1           0        2.875123   -0.253278    0.151300
     16          1           0        4.085122    2.540150    0.445567
     17          1           0        3.429000    1.576565    1.764130
     18          1           0        1.164907    1.603979    0.664217
     19          1           0        1.824757    2.573038   -0.661838
     20          1           0        1.738253    3.251873    0.972484
     21          6           0       -5.831467   -0.770281   -0.011948
     22          6           0       -5.406516    0.419979   -0.611298
     23          6           0       -4.050708    0.760498   -0.630777
     24          6           0       -3.142971   -0.116405   -0.038879
     25          6           0       -3.535272   -1.309494    0.566042
     26          6           0       -4.896138   -1.629702    0.573777
     27          1           0       -6.886656   -1.026914   -0.001377
     28          1           0       -6.130671    1.089326   -1.066949
     29          1           0       -3.694295    1.675600   -1.087916
     30          1           0       -2.789859   -1.956619    1.012144
     31          1           0       -5.223285   -2.554739    1.039961
     32          7           0       -1.704961    0.233336   -0.053284
     33          8           0       -0.925117   -0.556199    0.475029
     34          8           0       -1.384921    1.290375   -0.592615
 ---------------------------------------------------------------------

 SCF Done:  E(RHF) =  -669.536526246     A.U. after   15 cycles
 E2 =    -0.2091682592D+01 EUMP2 =    -0.67162820883857D+03

 The electronic state is 1-A.
 Alpha  occ. eigenvalues --  -20.61077 -20.61069 -15.86072 -11.31364 -11.27917
 Alpha  occ. eigenvalues --  -11.27912 -11.27647 -11.26914 -11.26904 -11.20692
 Alpha  occ. eigenvalues --  -11.20347 -11.20280 -11.20023 -11.19895 -11.18892
 Alpha  occ. eigenvalues --   -1.60112  -1.39668  -1.19523  -1.08935  -1.07166
 Alpha  occ. eigenvalues --   -1.04912  -1.02204  -0.95783  -0.94623  -0.86314
 Alpha  occ. eigenvalues --   -0.85631  -0.82615  -0.78321  -0.77677  -0.76900
 Alpha  occ. eigenvalues --   -0.72273  -0.71417  -0.70631  -0.65177  -0.64916
 Alpha  occ. eigenvalues --   -0.63809  -0.62259  -0.59611  -0.58100  -0.56240
 Alpha  occ. eigenvalues --   -0.55420  -0.53912  -0.53245  -0.53003  -0.51355
 Alpha  occ. eigenvalues --   -0.51086  -0.49177  -0.49039  -0.48414  -0.46524
 Alpha  occ. eigenvalues --   -0.45356  -0.45087  -0.44431  -0.44287  -0.42472
 Alpha  occ. eigenvalues --   -0.37499  -0.36511
 Alpha virt. eigenvalues --    0.04844   0.11146   0.16355   0.21286   0.24031
 Alpha virt. eigenvalues --    0.25700   0.27207   0.27883   0.28170   0.28727
 Alpha virt. eigenvalues --    0.29472   0.30859   0.32390   0.32739   0.32862

 Mulliken charges:
               1
     1  C   -0.297227
     2  C   -0.298741
     3  C   -0.474908
     4  H    0.146104
     5  H    0.147020
     6  H    0.150568
     7  H    0.152351
     8  H    0.153751
     9  H    0.153569
    10  H    0.157308
    11  C   -0.299181
    12  C   -0.299402
    13  C   -0.479381
    14  H    0.147212
    15  H    0.160115
    16  H    0.143779
    17  H    0.146261
    18  H    0.181521
    19  H    0.153215
    20  H    0.148028
    21  C   -0.170418
    22  C   -0.218613
    23  C   -0.170720
    24  C    0.159987
    25  C   -0.170676
    26  C   -0.218610
    27  H    0.226245
    28  H    0.224108
    29  H    0.276207
    30  H    0.275819
    31  H    0.224034
    32  N    0.487830
    33  O   -0.461043
    34  O   -0.456115
 Sum of Mulliken charges =  -0.00000

 Dipole moment (field-independent basis, Debye):
    X=             -5.5949    Y=             -1.3239    Z=              0.0041  Tot=              5.7494
 Quadrupole moment (field-independent basis, Debye-Ang):
   XX=            -65.7387   YY=            -91.6712   ZZ=            -93.8242
   XY=              3.9498   XZ=              0.1708   YZ=             -3.0332

 Normal termination of Gaussian 16 at Thu May  6 07:20:13 2021.
