 Gaussian 16, Revision A.03,
 Gaussian 16:  EM64L-G16RevA.03 25-Dec-2016

 -------------
 #p 6-31g* mp2
 -------------

 ------------------------------------------------------
 Input file generated by CHIRIPA (05-May-2021 14:57:25)
 ------------------------------------------------------
 Symbolic Z-matrix:
 Charge =  0 Multiplicity = 1

                         Standard orientation:
 ---------------------------------------------------------------------
 Center     Atomic      Atomic             Coordinates (Angstroms)
 Number     Number       Type             X           Y           Z
 ---------------------------------------------------------------------
      1          6           0       -5.410463    0.967037    0.340977
      2          6           0       -4.799318    1.168224   -0.901017
      3          6           0       -3.544606    0.614756   -1.172895
      4          6           0       -2.926728   -0.137845   -0.175343
      5          6           0       -3.509877   -0.356174    1.071878
      6          6           0       -4.764930    0.206821    1.321731
      7          1           0       -6.385287    1.400684    0.543623
      8          1           0       -5.298310    1.758172   -1.664570
      9          1           0       -3.048756    0.754730   -2.125763
     10          1           0       -2.987817   -0.948962    1.813143
     11          1           0       -5.237172    0.048922    2.287185
     12          7           0       -1.598240   -0.728819   -0.451510
     13          8           0       -1.074693   -1.387895    0.444121
     14          8           0       -1.105673   -0.521759   -1.558371
     15          6           0        2.380699   -2.362639    0.052919
     16          6           0        2.940785   -1.769613   -1.083367
     17          6           0        3.368096   -0.438831   -1.052224
     18          6           0        3.219635    0.272767    0.137263
     19          6           0        2.665501   -0.290003    1.285965
     20          6           0        2.245084   -1.622246    1.231880
     21          1           0        2.051430   -3.396990    0.019816
     22          1           0        3.047339   -2.342201   -2.000337
     23          1           0        3.805131    0.045044   -1.917258
     24          1           0        2.572288    0.306192    2.185566
     25          1           0        1.810474   -2.080201    2.115869
     26          7           0        3.668361    1.682380    0.182376
     27          8           0        3.526587    2.287844    1.242542
     28          8           0        4.153350    2.155079   -0.843283
 ---------------------------------------------------------------------

 SCF Done:  E(RHF) =  -868.338544993     A.U. after   16 cycles
 E2 =    -0.2600021110D+01 EUMP2 =    -0.87093856610288D+03

 The electronic state is 1-A.
 Alpha  occ. eigenvalues --  -20.61248 -20.61218 -20.59696 -20.59689 -15.86277
 Alpha  occ. eigenvalues --  -15.84736 -11.31502 -11.29738 -11.28078 -11.28034
 Alpha  occ. eigenvalues --  -11.27763 -11.27046 -11.27018 -11.26276 -11.26260
 Alpha  occ. eigenvalues --  -11.25899 -11.25222 -11.25188  -1.60299  -1.58778
 Alpha  occ. eigenvalues --   -1.39862  -1.38342  -1.19659  -1.17854  -1.09079
 Alpha  occ. eigenvalues --   -1.07310  -1.05044  -1.03229  -0.95941  -0.94222
 Alpha  occ. eigenvalues --   -0.86449  -0.84656  -0.82783  -0.81092  -0.77847
 Alpha  occ. eigenvalues --   -0.76191  -0.72519  -0.71611  -0.70973  -0.70769
 Alpha  occ. eigenvalues --   -0.70092  -0.68999  -0.65319  -0.65046  -0.63533
 Alpha  occ. eigenvalues --   -0.63273  -0.62397  -0.60634  -0.55549  -0.53748
 Alpha  occ. eigenvalues --   -0.53377  -0.53137  -0.51600  -0.51367  -0.49257
 Alpha  occ. eigenvalues --   -0.49164  -0.47741  -0.47692  -0.45302  -0.43832
 Alpha  occ. eigenvalues --   -0.37628  -0.36639  -0.35699  -0.34748
 Alpha virt. eigenvalues --    0.04673   0.06356   0.11018   0.12897   0.16203
 Alpha virt. eigenvalues --    0.17985   0.21167   0.22807   0.27075   0.28029
 Alpha virt. eigenvalues --    0.28662   0.29673   0.30736   0.32201   0.32364

 Mulliken charges:
               1
     1  C   -0.170133
     2  C   -0.218247
     3  C   -0.170081
     4  C    0.158572
     5  C   -0.170667
     6  C   -0.218211
     7  H    0.226955
     8  H    0.225047
     9  H    0.276556
    10  H    0.272704
    11  H    0.223953
    12  N    0.489631
    13  O   -0.466435
    14  O   -0.458195
    15  C   -0.156970
    16  C   -0.213324
    17  C   -0.169713
    18  C    0.157521
    19  C   -0.175536
    20  C   -0.199516
    21  H    0.222154
    22  H    0.218766
    23  H    0.270340
    24  H    0.268447
    25  H    0.218621
    26  N    0.488158
    27  O   -0.466037
    28  O   -0.464362
 Sum of Mulliken charges =  -0.00000

 Dipole moment (field-independent basis, Debye):
    X=             -6.6610    Y=             -3.0616    Z=              0.7275  Tot=              7.3669
 Quadrupole moment (field-independent basis, Debye-Ang):
   XX=            -89.3273   YY=           -108.7199   ZZ=            -96.7401
   XY=            -23.0243   XZ=             -4.3915   YZ=             -3.1168

 Normal termination of Gaussian 16 at Thu May  6 19:43:49 2021.
