 Gaussian 16, Revision A.03,
 Gaussian 16:  EM64L-G16RevA.03 25-Dec-2016

 -------------
 #p 6-31g* mp2
 -------------

 ------------------------------------------------------
 Input file generated by CHIRIPA (05-May-2021 14:55:22)
 ------------------------------------------------------
 Symbolic Z-matrix:
 Charge =  0 Multiplicity = 1

                         Standard orientation:
 ---------------------------------------------------------------------
 Center     Atomic      Atomic             Coordinates (Angstroms)
 Number     Number       Type             X           Y           Z
 ---------------------------------------------------------------------
      1          6           0        2.996884    2.548831    0.915227
      2          6           0        3.734130    2.208803   -0.223795
      3          6           0        3.663639    0.917926   -0.755976
      4          6           0        2.842139   -0.012182   -0.120897
      5          6           0        2.095466    0.296103    1.015206
      6          6           0        2.181343    1.593081    1.530009
      7          1           0        3.057619    3.553985    1.321888
      8          1           0        4.368318    2.949004   -0.703328
      9          1           0        4.223681    0.627781   -1.636650
     10          1           0        1.472005   -0.463332    1.471246
     11          1           0        1.607666    1.854332    2.414705
     12          7           0        2.759369   -1.382005   -0.675094
     13          8           0        2.028256   -2.183224   -0.097029
     14          8           0        3.427174   -1.628516   -1.677045
     15          6           0       -3.063696   -0.742765   -0.076190
     16          6           0       -2.822951   -1.708087    1.084922
     17          6           0       -1.635894   -2.640642    0.841970
     18          1           0       -3.231241   -1.319955   -0.995824
     19          1           0       -2.155822   -0.146504   -0.242423
     20          1           0       -3.731480   -2.301386    1.249814
     21          1           0       -2.656151   -1.128535    2.001935
     22          1           0       -0.716127   -2.064260    0.699091
     23          1           0       -1.797566   -3.243775   -0.057304
     24          1           0       -1.481777   -3.322159    1.684373
     25          6           0       -4.247101    0.195998    0.151859
     26          6           0       -4.487845    1.161320   -1.009253
     27          6           0       -5.674904    2.093875   -0.766300
     28          1           0       -5.154974   -0.400263    0.318093
     29          1           0       -4.079556    0.773187    1.071493
     30          1           0       -4.654646    0.581768   -1.926266
     31          1           0       -3.579317    1.754618   -1.174143
     32          1           0       -5.513230    2.697007    0.132974
     33          1           0       -6.594670    1.517493   -0.623422
     34          1           0       -5.829021    2.775392   -1.608703
 ---------------------------------------------------------------------

 SCF Done:  E(RHF) =  -669.535760010     A.U. after   15 cycles
 E2 =    -0.2091366838D+01 EUMP2 =    -0.67162712684832D+03

 The electronic state is 1-A.
 Alpha  occ. eigenvalues --  -20.60879 -20.60874 -15.85911 -11.31272 -11.27840
 Alpha  occ. eigenvalues --  -11.27832 -11.27577 -11.26855 -11.26844 -11.21554
 Alpha  occ. eigenvalues --  -11.21293 -11.21271 -11.21151 -11.21074 -11.20332
 Alpha  occ. eigenvalues --   -1.59942  -1.39498  -1.19443  -1.08839  -1.08253
 Alpha  occ. eigenvalues --   -1.04845  -1.03291  -0.95729  -0.95656  -0.86714
 Alpha  occ. eigenvalues --   -0.86243  -0.82508  -0.79354  -0.78060  -0.77552
 Alpha  occ. eigenvalues --   -0.72135  -0.71257  -0.70551  -0.65099  -0.64913
 Alpha  occ. eigenvalues --   -0.64833  -0.62200  -0.60693  -0.59111  -0.57320
 Alpha  occ. eigenvalues --   -0.55348  -0.54998  -0.53173  -0.52938  -0.52389
 Alpha  occ. eigenvalues --   -0.52112  -0.49676  -0.48891  -0.48873  -0.47647
 Alpha  occ. eigenvalues --   -0.46410  -0.45595  -0.45544  -0.44834  -0.43553
 Alpha  occ. eigenvalues --   -0.37422  -0.36447
 Alpha virt. eigenvalues --    0.04941   0.11172   0.16436   0.20885   0.22927
 Alpha virt. eigenvalues --    0.24134   0.26329   0.27172   0.27593   0.27793
 Alpha virt. eigenvalues --    0.29011   0.30431   0.31536   0.31936   0.32154

 Mulliken charges:
               1
     1  C   -0.170599
     2  C   -0.218524
     3  C   -0.170716
     4  C    0.157752
     5  C   -0.172872
     6  C   -0.219277
     7  H    0.225923
     8  H    0.223799
     9  H    0.275863
    10  H    0.278971
    11  H    0.223932
    12  N    0.489461
    13  O   -0.461048
    14  O   -0.459343
    15  C   -0.297152
    16  C   -0.300637
    17  C   -0.481193
    18  H    0.152313
    19  H    0.146430
    20  H    0.150994
    21  H    0.144531
    22  H    0.167537
    23  H    0.158976
    24  H    0.158269
    25  C   -0.297568
    26  C   -0.299310
    27  C   -0.475430
    28  H    0.149998
    29  H    0.146309
    30  H    0.153322
    31  H    0.150312
    32  H    0.153473
    33  H    0.155687
    34  H    0.159818
 Sum of Mulliken charges =  -0.00000

 Dipole moment (field-independent basis, Debye):
    X=              0.4428    Y=              4.7584    Z=              1.8672  Tot=              5.1308
 Quadrupole moment (field-independent basis, Debye-Ang):
   XX=            -92.1065   YY=            -95.0199   ZZ=            -92.9287
   XY=             16.0318   XZ=              3.3556   YZ=             -1.1732

 Normal termination of Gaussian 16 at Thu May  6 17:33:53 2021.
