 Gaussian 16, Revision A.03,
 Gaussian 16:  EM64L-G16RevA.03 25-Dec-2016

 -------------
 #p 6-31g* mp2
 -------------

 ------------------------------------------------------
 Input file generated by CHIRIPA (05-May-2021 14:55:20)
 ------------------------------------------------------
 Symbolic Z-matrix:
 Charge =  0 Multiplicity = 1

                         Standard orientation:
 ---------------------------------------------------------------------
 Center     Atomic      Atomic             Coordinates (Angstroms)
 Number     Number       Type             X           Y           Z
 ---------------------------------------------------------------------
      1          6           0       -2.763500   -1.921144   -1.552205
      2          6           0       -2.233130   -0.706960   -2.000519
      3          6           0       -1.948363    0.320494   -1.096199
      4          6           0       -2.207517    0.098659    0.255436
      5          6           0       -2.735520   -1.099865    0.732976
      6          6           0       -3.012564   -2.113382   -0.189292
      7          1           0       -2.981714   -2.713882   -2.261673
      8          1           0       -2.038686   -0.554863   -3.058395
      9          1           0       -1.537399    1.270356   -1.416027
     10          1           0       -2.918626   -1.221950    1.793629
     11          1           0       -3.424418   -3.055298    0.161730
     12          7           0       -1.910135    1.179002    1.222299
     13          8           0       -2.147506    0.958631    2.407933
     14          8           0       -1.445308    2.225689    0.776184
     15          6           0        3.453559   -0.398145   -0.003791
     16          6           0        2.968905   -1.744403    0.535361
     17          6           0        4.111204   -2.733589    0.768725
     18          1           0        3.997139   -0.561299   -0.944454
     19          1           0        4.175192    0.033826    0.703347
     20          1           0        2.247358   -2.173061   -0.171914
     21          1           0        2.426251   -1.578004    1.474752
     22          1           0        4.828380   -2.330458    1.491043
     23          1           0        4.648471   -2.928895   -0.164978
     24          1           0        3.742296   -3.689217    1.154140
     25          6           0        2.323155    0.601395   -0.242189
     26          6           0        2.807809    1.947653   -0.781340
     27          6           0        1.665511    2.936839   -1.014704
     28          1           0        1.601522    0.169424   -0.949325
     29          1           0        1.779576    0.764549    0.698475
     30          1           0        3.350464    1.781255   -1.720730
     31          1           0        3.529357    2.376311   -0.074065
     32          1           0        1.128245    3.132145   -0.081001
     33          1           0        0.948334    2.533708   -1.737022
     34          1           0        2.034418    3.892467   -1.400118
 ---------------------------------------------------------------------

 SCF Done:  E(RHF) =  -669.536060091     A.U. after   15 cycles
 E2 =    -0.2092483864D+01 EUMP2 =    -0.67162854395526D+03

 The electronic state is 1-A.
 Alpha  occ. eigenvalues --  -20.60873 -20.60862 -15.85903 -11.31224 -11.27794
 Alpha  occ. eigenvalues --  -11.27785 -11.27536 -11.26807 -11.26797 -11.21477
 Alpha  occ. eigenvalues --  -11.21178 -11.21164 -11.21042 -11.21001 -11.20364
 Alpha  occ. eigenvalues --   -1.59933  -1.39488  -1.19396  -1.08801  -1.08151
 Alpha  occ. eigenvalues --   -1.04796  -1.03214  -0.95683  -0.95611  -0.86664
 Alpha  occ. eigenvalues --   -0.86195  -0.82481  -0.79294  -0.77983  -0.77505
 Alpha  occ. eigenvalues --   -0.72132  -0.71244  -0.70510  -0.65057  -0.64827
 Alpha  occ. eigenvalues --   -0.64758  -0.62150  -0.60608  -0.59045  -0.57260
 Alpha  occ. eigenvalues --   -0.55307  -0.54928  -0.53127  -0.52894  -0.52348
 Alpha  occ. eigenvalues --   -0.52055  -0.49588  -0.48894  -0.48881  -0.47590
 Alpha  occ. eigenvalues --   -0.46335  -0.45572  -0.45446  -0.44739  -0.43482
 Alpha  occ. eigenvalues --   -0.37370  -0.36384
 Alpha virt. eigenvalues --    0.04964   0.11218   0.16439   0.20866   0.23105
 Alpha virt. eigenvalues --    0.24153   0.26089   0.27163   0.27649   0.27785
 Alpha virt. eigenvalues --    0.29310   0.30798   0.31466   0.32015   0.32387

 Mulliken charges:
               1
     1  C   -0.170405
     2  C   -0.220330
     3  C   -0.171704
     4  C    0.157957
     5  C   -0.170363
     6  C   -0.218550
     7  H    0.225726
     8  H    0.223594
     9  H    0.280520
    10  H    0.275561
    11  H    0.223578
    12  N    0.489369
    13  O   -0.460034
    14  O   -0.461111
    15  C   -0.297828
    16  C   -0.299646
    17  C   -0.475379
    18  H    0.147426
    19  H    0.150893
    20  H    0.148847
    21  H    0.153861
    22  H    0.156334
    23  H    0.153961
    24  H    0.158573
    25  C   -0.299699
    26  C   -0.299825
    27  C   -0.480142
    28  H    0.142975
    29  H    0.155876
    30  H    0.147149
    31  H    0.152804
    32  H    0.181987
    33  H    0.141299
    34  H    0.156727
 Sum of Mulliken charges =  -0.00000

 Dipole moment (field-independent basis, Debye):
    X=             -1.1617    Y=             -3.7165    Z=             -3.2428  Tot=              5.0673
 Quadrupole moment (field-independent basis, Debye-Ang):
   XX=            -91.1325   YY=            -94.6920   ZZ=            -93.3247
   XY=             10.3004   XZ=              6.2400   YZ=             -2.9128

 Normal termination of Gaussian 16 at Thu May  6 14:08:19 2021.
