 Gaussian 16, Revision A.03,
 Gaussian 16:  EM64L-G16RevA.03 25-Dec-2016

 -------------
 #p 6-31g* mp2
 -------------

 ------------------------------------------------------
 Input file generated by CHIRIPA (05-May-2021 14:57:27)
 ------------------------------------------------------
 Symbolic Z-matrix:
 Charge =  0 Multiplicity = 1

                         Standard orientation:
 ---------------------------------------------------------------------
 Center     Atomic      Atomic             Coordinates (Angstroms)
 Number     Number       Type             X           Y           Z
 ---------------------------------------------------------------------
      1          6           0       -2.986887    2.602095    0.508387
      2          6           0       -4.247591    2.125679    0.882783
      3          6           0       -4.630795    0.816045    0.578546
      4          6           0       -3.724277    0.006458   -0.104159
      5          6           0       -2.461190    0.452008   -0.490663
      6          6           0       -2.099274    1.765215   -0.175935
      7          1           0       -2.697473    3.620838    0.748801
      8          1           0       -4.938973    2.773372    1.414320
      9          1           0       -5.600599    0.421529    0.856493
     10          1           0       -1.793590   -0.217246   -1.019650
     11          1           0       -1.119546    2.132513   -0.467943
     12          7           0       -4.118689   -1.381884   -0.431795
     13          8           0       -3.301807   -2.075203   -1.033998
     14          8           0       -5.237244   -1.750458   -0.080190
     15          6           0        2.128238   -2.169131    0.581246
     16          6           0        3.498786   -2.269251    0.842195
     17          6           0        4.356482   -1.204038    0.551974
     18          6           0        3.807288   -0.048316   -0.001183
     19          6           0        2.446179    0.081873   -0.272702
     20          6           0        1.607227   -0.995956    0.025610
     21          1           0        1.469240   -3.001514    0.809839
     22          1           0        3.906194   -3.179138    1.273669
     23          1           0        5.421399   -1.254691    0.743818
     24          1           0        2.069388    1.001700   -0.703243
     25          1           0        0.543248   -0.915387   -0.178113
     26          7           0        4.705371    1.086056   -0.312710
     27          8           0        4.196766    2.093436   -0.799682
     28          8           0        5.900887    0.946316   -0.064013
 ---------------------------------------------------------------------

 SCF Done:  E(RHF) =  -868.337683623     A.U. after   16 cycles
 E2 =    -0.2599625453D+01 EUMP2 =    -0.87093730907610D+03

 The electronic state is 1-A.
 Alpha  occ. eigenvalues --  -20.61475 -20.61444 -20.61072 -20.61054 -15.86516
 Alpha  occ. eigenvalues --  -15.86121 -11.31889 -11.31465 -11.28540 -11.28385
 Alpha  occ. eigenvalues --  -11.28113 -11.28103 -11.27993 -11.27687 -11.27488
 Alpha  occ. eigenvalues --  -11.27382 -11.27072 -11.26967  -1.60536  -1.60141
 Alpha  occ. eigenvalues --   -1.40092  -1.39697  -1.20041  -1.19626  -1.09414
 Alpha  occ. eigenvalues --   -1.09002  -1.05459  -1.05043  -0.96261  -0.95848
 Alpha  occ. eigenvalues --   -0.86843  -0.86425  -0.83106  -0.82698  -0.78182
 Alpha  occ. eigenvalues --   -0.77760  -0.72731  -0.72339  -0.71859  -0.71463
 Alpha  occ. eigenvalues --   -0.71132  -0.70697  -0.65694  -0.65484  -0.65276
 Alpha  occ. eigenvalues --   -0.65024  -0.62895  -0.62329  -0.55899  -0.55465
 Alpha  occ. eigenvalues --   -0.53767  -0.53594  -0.53344  -0.53076  -0.49499
 Alpha  occ. eigenvalues --   -0.49479  -0.49102  -0.49088  -0.45498  -0.45109
 Alpha  occ. eigenvalues --   -0.37974  -0.37559  -0.37059  -0.36642
 Alpha virt. eigenvalues --    0.04345   0.04793   0.10559   0.11019   0.15837
 Alpha virt. eigenvalues --    0.16308   0.18257   0.22181   0.24706   0.25611
 Alpha virt. eigenvalues --    0.28185   0.29024   0.30612   0.31081   0.32586

 Mulliken charges:
               1
     1  C   -0.170187
     2  C   -0.217582
     3  C   -0.170300
     4  C    0.160718
     5  C   -0.178976
     6  C   -0.217998
     7  H    0.230225
     8  H    0.226648
     9  H    0.277564
    10  H    0.271203
    11  H    0.223500
    12  N    0.487961
    13  O   -0.464074
    14  O   -0.456999
    15  C   -0.171336
    16  C   -0.218396
    17  C   -0.170476
    18  C    0.159045
    19  C   -0.173063
    20  C   -0.220076
    21  H    0.232607
    22  H    0.225603
    23  H    0.276499
    24  H    0.268189
    25  H    0.223229
    26  N    0.488359
    27  O   -0.463132
    28  O   -0.458753
 Sum of Mulliken charges =  -0.00000

 Dipole moment (field-independent basis, Debye):
    X=             -1.9186    Y=              0.8810    Z=              2.4035  Tot=              3.1991
 Quadrupole moment (field-independent basis, Debye-Ang):
   XX=           -131.3335   YY=           -103.2441   ZZ=           -105.0099
   XY=            -37.4547   XZ=             -1.1008   YZ=             -1.1998

 Normal termination of Gaussian 16 at Thu May  6 13:10:26 2021.
