 Gaussian 16, Revision A.03,
 Gaussian 16:  EM64L-G16RevA.03 25-Dec-2016

 -------------
 #p 6-31g* mp2
 -------------

 ------------------------------------------------------
 Input file generated by CHIRIPA (05-May-2021 14:51:11)
 ------------------------------------------------------
 Symbolic Z-matrix:
 Charge =  0 Multiplicity = 1

                         Standard orientation:
 ---------------------------------------------------------------------
 Center     Atomic      Atomic             Coordinates (Angstroms)
 Number     Number       Type             X           Y           Z
 ---------------------------------------------------------------------
      1          6           0        3.715579   -0.192811    0.086968
      2          6           0        4.290199   -1.578415   -0.209507
      3          6           0        5.277760   -2.049712    0.858386
      4          1           0        4.539770    0.528795    0.170267
      5          1           0        3.216902   -0.212117    1.065918
      6          1           0        4.786445   -1.556864   -1.188227
      7          1           0        3.464532   -2.296771   -0.292300
      8          1           0        4.791232   -2.099581    1.837878
      9          1           0        6.120656   -1.355471    0.936861
     10          1           0        5.676261   -3.042348    0.626588
     11          6           0        2.726680    0.292122   -0.971638
     12          6           0        2.152060    1.677726   -0.675163
     13          6           0        1.164499    2.149023   -1.743057
     14          1           0        3.225357    0.311429   -1.950588
     15          1           0        1.902489   -0.429484   -1.054937
     16          1           0        2.977727    2.396082   -0.592370
     17          1           0        1.655814    1.656176    0.303556
     18          1           0        0.321603    1.454782   -1.821531
     19          1           0        1.651027    2.198893   -2.722548
     20          1           0        0.765998    3.141659   -1.511258
     21          6           0       -3.808849   -0.100031   -0.042928
     22          6           0       -4.363952   -1.518356   -0.177833
     23          6           0       -5.539304   -1.602982   -1.152091
     24          1           0       -4.612224    0.571157    0.290297
     25          1           0       -3.492617    0.258124   -1.032432
     26          1           0       -4.677763   -1.874250    0.811853
     27          1           0       -3.559113   -2.186282   -0.510591
     28          1           0       -5.236055   -1.273504   -2.151134
     29          1           0       -6.361061   -0.959700   -0.821175
     30          1           0       -5.920595   -2.625664   -1.233320
     31          6           0       -2.633410    0.000720    0.927598
     32          6           0       -2.078307    1.419045    1.062502
     33          6           0       -0.902955    1.503670    2.036761
     34          1           0       -2.949641   -0.357435    1.917102
     35          1           0       -1.830034   -0.670468    0.594373
     36          1           0       -2.883145    2.086970    1.395261
     37          1           0       -1.764495    1.774939    0.072817
     38          1           0       -0.081198    0.860389    1.705846
     39          1           0       -1.206203    1.174194    3.035804
     40          1           0       -0.521665    2.526353    2.117990
 ---------------------------------------------------------------------

 SCF Done:  E(RHF) =  -470.733004293     A.U. after   11 cycles
 E2 =    -0.1583383122D+01 EUMP2 =    -0.47231638741453D+03

 The electronic state is 1-A.
 Alpha  occ. eigenvalues --  -11.21624 -11.21616 -11.21609 -11.21538 -11.21438
 Alpha  occ. eigenvalues --  -11.21414 -11.21378 -11.21355 -11.21115 -11.21093
 Alpha  occ. eigenvalues --  -11.21085 -11.21072  -1.08472  -1.08424  -1.03595
 Alpha  occ. eigenvalues --   -1.03495  -0.96036  -0.95967  -0.87057  -0.86982
 Alpha  occ. eigenvalues --   -0.79691  -0.79528  -0.78287  -0.78229  -0.65250
 Alpha  occ. eigenvalues --   -0.64946  -0.61253  -0.60652  -0.59420  -0.59308
 Alpha  occ. eigenvalues --   -0.57640  -0.57576  -0.55418  -0.55155  -0.52719
 Alpha  occ. eigenvalues --   -0.52666  -0.52457  -0.52390  -0.50169  -0.49787
 Alpha  occ. eigenvalues --   -0.47984  -0.47858  -0.46889  -0.46405  -0.45868
 Alpha  occ. eigenvalues --   -0.45774  -0.45734  -0.45551  -0.43818  -0.43777
 Alpha virt. eigenvalues --    0.19883   0.23056   0.23674   0.25441   0.25758
 Alpha virt. eigenvalues --    0.26116   0.26904   0.27837   0.28553   0.29024
 Alpha virt. eigenvalues --    0.30859   0.31269   0.31712   0.32141   0.32279

 Mulliken charges:
               1
     1  C   -0.298536
     2  C   -0.299600
     3  C   -0.475739
     4  H    0.149956
     5  H    0.149358
     6  H    0.151983
     7  H    0.151755
     8  H    0.155329
     9  H    0.155230
    10  H    0.160253
    11  C   -0.298266
    12  C   -0.307504
    13  C   -0.476368
    14  H    0.149593
    15  H    0.148458
    16  H    0.151826
    17  H    0.161260
    18  H    0.155000
    19  H    0.155173
    20  H    0.160396
    21  C   -0.298349
    22  C   -0.299651
    23  C   -0.475742
    24  H    0.149882
    25  H    0.149533
    26  H    0.151975
    27  H    0.151796
    28  H    0.155314
    29  H    0.155250
    30  H    0.160314
    31  C   -0.298433
    32  C   -0.303652
    33  C   -0.478459
    34  H    0.149671
    35  H    0.148869
    36  H    0.152204
    37  H    0.156650
    38  H    0.156998
    39  H    0.155568
    40  H    0.160703
 Sum of Mulliken charges =  -0.00000

 Dipole moment (field-independent basis, Debye):
    X=             -0.0119    Y=              0.0202    Z=              0.0164  Tot=              0.0287
 Quadrupole moment (field-independent basis, Debye-Ang):
   XX=            -84.9896   YY=            -84.8315   ZZ=            -84.8757
   XY=              0.3680   XZ=             -1.9631   YZ=              0.1235

 Normal termination of Gaussian 16 at Thu May  6 05:25:37 2021.
