 Gaussian 16, Revision A.03,
 Gaussian 16:  EM64L-G16RevA.03 25-Dec-2016

 -------------
 #p 6-31g* mp2
 -------------

 ------------------------------------------------------
 Input file generated by CHIRIPA (05-May-2021 14:51:14)
 ------------------------------------------------------
 Symbolic Z-matrix:
 Charge =  0 Multiplicity = 1

                         Standard orientation:
 ---------------------------------------------------------------------
 Center     Atomic      Atomic             Coordinates (Angstroms)
 Number     Number       Type             X           Y           Z
 ---------------------------------------------------------------------
      1          6           0       -1.716477    0.835681   -0.372227
      2          6           0       -2.097940    2.313967   -0.287717
      3          6           0       -0.885080    3.228389   -0.112800
      4          1           0       -1.169800    0.552038    0.537518
      5          1           0       -1.022641    0.690645   -1.211840
      6          1           0       -2.791933    2.455939    0.550635
      7          1           0       -2.643940    2.594075   -1.197683
      8          1           0       -0.193476    3.116131   -0.954039
      9          1           0       -0.342311    2.977210    0.804213
     10          1           0       -1.180650    4.280587   -0.054685
     11          6           0       -2.918266   -0.091047   -0.547178
     12          6           0       -2.536803   -1.569333   -0.631688
     13          6           0       -3.749663   -2.483755   -0.806605
     14          1           0       -3.612102    0.053989    0.292435
     15          1           0       -3.464943    0.192596   -1.456923
     16          1           0       -1.990803   -1.849442    0.278278
     17          1           0       -1.842810   -1.711306   -1.470040
     18          1           0       -4.292432   -2.232576   -1.723617
     19          1           0       -4.441267   -2.371497    0.034634
     20          1           0       -3.454093   -3.535954   -0.864720
     21          6           0        1.654842   -0.211357    0.804055
     22          6           0        1.599318   -0.676389    2.259611
     23          6           0        0.267650   -0.347237    2.934973
     24          1           0        1.480437    0.872625    0.765198
     25          1           0        0.833330   -0.680359    0.244992
     26          1           0        2.421522   -0.207729    2.815448
     27          1           0        1.774066   -1.759360    2.295024
     28          1           0       -0.561753   -0.827505    2.405791
     29          1           0        0.089382    0.732941    2.929171
     30          1           0        0.249672   -0.688475    3.974730
     31          6           0        2.979901   -0.533277    0.115351
     32          6           0        3.035424   -0.068244   -1.340207
     33          6           0        4.367092   -0.397397   -2.015568
     34          1           0        3.801413   -0.064275    0.674412
     35          1           0        3.154306   -1.617259    0.154206
     36          1           0        2.860677    1.014726   -1.375619
     37          1           0        2.213221   -0.536905   -1.896042
     38          1           0        4.545361   -1.477576   -2.009767
     39          1           0        5.196496    0.082872   -1.486385
     40          1           0        4.385072   -0.056159   -3.055324
 ---------------------------------------------------------------------

 SCF Done:  E(RHF) =  -470.730885606     A.U. after   11 cycles
 E2 =    -0.1586378804D+01 EUMP2 =    -0.47231726440990D+03

 The electronic state is 1-A.
 Alpha  occ. eigenvalues --  -11.21658 -11.21618 -11.21587 -11.21529 -11.21335
 Alpha  occ. eigenvalues --  -11.21331 -11.21229 -11.21177 -11.21131 -11.21102
 Alpha  occ. eigenvalues --  -11.21067 -11.21060  -1.08492  -1.08309  -1.03568
 Alpha  occ. eigenvalues --   -1.03506  -0.95997  -0.95960  -0.87022  -0.86979
 Alpha  occ. eigenvalues --   -0.79725  -0.79554  -0.78674  -0.77718  -0.65103
 Alpha  occ. eigenvalues --   -0.64989  -0.61039  -0.60850  -0.59419  -0.59286
 Alpha  occ. eigenvalues --   -0.57625  -0.57578  -0.55311  -0.55221  -0.52719
 Alpha  occ. eigenvalues --   -0.52665  -0.52469  -0.52379  -0.49957  -0.49905
 Alpha  occ. eigenvalues --   -0.48194  -0.47873  -0.46792  -0.46629  -0.46418
 Alpha  occ. eigenvalues --   -0.45673  -0.45575  -0.44582  -0.43775  -0.43727
 Alpha virt. eigenvalues --    0.20427   0.22023   0.22821   0.23858   0.25185
 Alpha virt. eigenvalues --    0.26249   0.26620   0.28292   0.28911   0.29569
 Alpha virt. eigenvalues --    0.30609   0.31211   0.31444   0.31850   0.32530

 Mulliken charges:
               1
     1  C   -0.309713
     2  C   -0.298620
     3  C   -0.477980
     4  H    0.166540
     5  H    0.148954
     6  H    0.151322
     7  H    0.151195
     8  H    0.155455
     9  H    0.155612
    10  H    0.160090
    11  C   -0.297198
    12  C   -0.304185
    13  C   -0.475441
    14  H    0.148994
    15  H    0.149130
    16  H    0.153475
    17  H    0.151609
    18  H    0.155632
    19  H    0.155506
    20  H    0.160075
    21  C   -0.308142
    22  C   -0.297891
    23  C   -0.483767
    24  H    0.153786
    25  H    0.157184
    26  H    0.151829
    27  H    0.151827
    28  H    0.158419
    29  H    0.155487
    30  H    0.161796
    31  C   -0.297463
    32  C   -0.299992
    33  C   -0.475630
    34  H    0.148948
    35  H    0.149176
    36  H    0.152055
    37  H    0.151464
    38  H    0.155158
    39  H    0.155291
    40  H    0.160013
 Sum of Mulliken charges =  -0.00000

 Dipole moment (field-independent basis, Debye):
    X=              0.0050    Y=             -0.0119    Z=              0.0214  Tot=              0.0250
 Quadrupole moment (field-independent basis, Debye-Ang):
   XX=            -86.2239   YY=            -84.7167   ZZ=            -84.1143
   XY=             -0.0546   XZ=              0.4610   YZ=             -0.0006

 Normal termination of Gaussian 16 at Thu May  6 05:36:32 2021.
