 Gaussian 16, Revision A.03,
 Gaussian 16:  EM64L-G16RevA.03 25-Dec-2016

 -------------
 #p 6-31g* mp2
 -------------

 ------------------------------------------------------
 Input file generated by CHIRIPA (05-May-2021 14:51:14)
 ------------------------------------------------------
 Symbolic Z-matrix:
 Charge =  0 Multiplicity = 1

                         Standard orientation:
 ---------------------------------------------------------------------
 Center     Atomic      Atomic             Coordinates (Angstroms)
 Number     Number       Type             X           Y           Z
 ---------------------------------------------------------------------
      1          6           0       -2.712268    0.952267    0.156036
      2          6           0       -2.421211    2.266109   -0.569973
      3          6           0       -1.891617    3.353583    0.365295
      4          1           0       -3.441894    1.136805    0.956372
      5          1           0       -1.793542    0.600628    0.645613
      6          1           0       -3.339874    2.614452   -1.059188
      7          1           0       -1.692338    2.078386   -1.368797
      8          1           0       -0.961352    3.030679    0.843775
      9          1           0       -2.618249    3.569791    1.155143
     10          1           0       -1.690255    4.284173   -0.174441
     11          6           0       -3.242380   -0.144646   -0.765643
     12          6           0       -3.533438   -1.458488   -0.039635
     13          6           0       -4.063032   -2.545962   -0.974902
     14          1           0       -4.161107    0.206993   -1.255221
     15          1           0       -2.512755   -0.329184   -1.565979
     16          1           0       -4.262311   -1.270765    0.759189
     17          1           0       -2.614775   -1.806831    0.449580
     18          1           0       -3.336399   -2.762170   -1.764750
     19          1           0       -4.993296   -2.223058   -1.453382
     20          1           0       -4.264394   -3.476552   -0.435166
     21          6           0        3.550175    0.070387    0.130415
     22          6           0        4.582167   -0.546901   -0.814006
     23          6           0        5.722011    0.413949   -1.153590
     24          1           0        3.140121    0.980212   -0.328953
     25          1           0        4.052488    0.386287    1.055229
     26          1           0        4.077816   -0.862802   -1.736206
     27          1           0        4.989673   -1.455468   -0.352420
     28          1           0        6.251069    0.720330   -0.245389
     29          1           0        5.334031    1.316363   -1.637038
     30          1           0        6.448225   -0.047711   -1.829861
     31          6           0        2.404474   -0.878008    0.479193
     32          6           0        1.372481   -0.260720    1.423614
     33          6           0        0.232638   -1.221570    1.763197
     34          1           0        1.902161   -1.193909   -0.445623
     35          1           0        2.814528   -1.787833    0.938561
     36          1           0        0.964976    0.647847    0.962028
     37          1           0        1.876833    0.055181    2.345813
     38          1           0        0.620618   -2.123984    2.246644
     39          1           0       -0.296421   -1.527951    0.854997
     40          1           0       -0.493577   -0.759910    2.439469
 ---------------------------------------------------------------------

 SCF Done:  E(RHF) =  -470.732360313     A.U. after   11 cycles
 E2 =    -0.1584309009D+01 EUMP2 =    -0.47231666932219D+03

 The electronic state is 1-A.
 Alpha  occ. eigenvalues --  -11.21714 -11.21647 -11.21579 -11.21510 -11.21480
 Alpha  occ. eigenvalues --  -11.21415 -11.21349 -11.21262 -11.21152 -11.21104
 Alpha  occ. eigenvalues --  -11.21071 -11.21030  -1.08517  -1.08380  -1.03611
 Alpha  occ. eigenvalues --   -1.03496  -0.96074  -0.95935  -0.87082  -0.86963
 Alpha  occ. eigenvalues --   -0.79706  -0.79536  -0.78317  -0.78200  -0.65332
 Alpha  occ. eigenvalues --   -0.64890  -0.60998  -0.60920  -0.59431  -0.59314
 Alpha  occ. eigenvalues --   -0.57696  -0.57526  -0.55442  -0.55162  -0.52785
 Alpha  occ. eigenvalues --   -0.52621  -0.52529  -0.52325  -0.50051  -0.49890
 Alpha  occ. eigenvalues --   -0.48020  -0.47860  -0.46856  -0.46459  -0.45928
 Alpha  occ. eigenvalues --   -0.45762  -0.45726  -0.45438  -0.43844  -0.43734
 Alpha virt. eigenvalues --    0.20168   0.23031   0.23368   0.24558   0.26008
 Alpha virt. eigenvalues --    0.26814   0.26987   0.27317   0.28264   0.29735
 Alpha virt. eigenvalues --    0.30006   0.31464   0.31716   0.31913   0.32399

 Mulliken charges:
               1
     1  C   -0.309170
     2  C   -0.298716
     3  C   -0.477458
     4  H    0.148954
     5  H    0.163122
     6  H    0.151845
     7  H    0.150815
     8  H    0.156016
     9  H    0.155370
    10  H    0.160201
    11  C   -0.297442
    12  C   -0.306774
    13  C   -0.475247
    14  H    0.149431
    15  H    0.148035
    16  H    0.151667
    17  H    0.159440
    18  H    0.154435
    19  H    0.154998
    20  H    0.160195
    21  C   -0.298438
    22  C   -0.299720
    23  C   -0.475768
    24  H    0.149734
    25  H    0.149816
    26  H    0.151932
    27  H    0.152071
    28  H    0.155301
    29  H    0.155300
    30  H    0.160417
    31  C   -0.298292
    32  C   -0.304263
    33  C   -0.482748
    34  H    0.149440
    35  H    0.150192
    36  H    0.154106
    37  H    0.152932
    38  H    0.157102
    39  H    0.158856
    40  H    0.162310
 Sum of Mulliken charges =  -0.00000

 Dipole moment (field-independent basis, Debye):
    X=              0.0522    Y=             -0.0243    Z=              0.0465  Tot=              0.0740
 Quadrupole moment (field-independent basis, Debye-Ang):
   XX=            -84.6138   YY=            -85.7534   ZZ=            -84.5014
   XY=             -1.3499   XZ=              0.2630   YZ=             -0.5490

 Normal termination of Gaussian 16 at Thu May  6 00:51:13 2021.
