 Gaussian 16, Revision A.03,
 Gaussian 16:  EM64L-G16RevA.03 25-Dec-2016

 -------------
 #p 6-31g* mp2
 -------------

 ------------------------------------------------------
 Input file generated by CHIRIPA (05-May-2021 14:51:10)
 ------------------------------------------------------
 Symbolic Z-matrix:
 Charge =  0 Multiplicity = 1

                         Standard orientation:
 ---------------------------------------------------------------------
 Center     Atomic      Atomic             Coordinates (Angstroms)
 Number     Number       Type             X           Y           Z
 ---------------------------------------------------------------------
      1          6           0       -2.742280   -0.877998    0.115970
      2          6           0       -1.498176   -0.385416    0.855937
      3          6           0       -0.328158   -1.365285    0.762609
      4          1           0       -3.043787   -1.851465    0.526336
      5          1           0       -2.489022   -1.048647   -0.939556
      6          1           0       -1.754054   -0.214426    1.909457
      7          1           0       -1.199708    0.587081    0.443890
      8          1           0       -0.044714   -1.528444   -0.282206
      9          1           0       -0.602209   -2.334506    1.191688
     10          1           0        0.550708   -0.993351    1.298445
     11          6           0       -3.920471    0.090770    0.200135
     12          6           0       -5.164576   -0.401812   -0.539833
     13          6           0       -6.334593    0.578057   -0.446505
     14          1           0       -4.173730    0.261418    1.255660
     15          1           0       -3.618964    1.064236   -0.210232
     16          1           0       -5.463043   -1.374309   -0.127786
     17          1           0       -4.908698   -0.572802   -1.593353
     18          1           0       -6.060543    1.547277   -0.875584
     19          1           0       -6.618038    0.741216    0.598311
     20          1           0       -7.213459    0.206123   -0.982340
     21          6           0        3.857220   -0.144177   -0.025009
     22          6           0        3.449445   -1.528874   -0.529309
     23          6           0        4.511692   -2.594068   -0.255835
     24          1           0        4.803102    0.148523   -0.501012
     25          1           0        4.054219   -0.198176    1.054653
     26          1           0        3.251934   -1.471978   -1.607441
     27          1           0        2.504324   -1.818230   -0.052194
     28          1           0        4.703306   -2.680098    0.818634
     29          1           0        5.455162   -2.331879   -0.745448
     30          1           0        4.199624   -3.576187   -0.624500
     31          6           0        2.805531    0.931405   -0.291096
     32          6           0        3.213307    2.316102    0.213205
     33          6           0        2.151060    3.381296   -0.060270
     34          1           0        2.608533    0.985404   -1.370757
     35          1           0        1.859650    0.638705    0.184908
     36          1           0        4.158427    2.605458   -0.263910
     37          1           0        3.410818    2.259206    1.291336
     38          1           0        1.207590    3.119107    0.429344
     39          1           0        1.959447    3.467326   -1.134739
     40          1           0        2.463128    4.363416    0.308396
 ---------------------------------------------------------------------

 SCF Done:  E(RHF) =  -470.732139468     A.U. after   11 cycles
 E2 =    -0.1583990653D+01 EUMP2 =    -0.47231613012121D+03

 The electronic state is 1-A.
 Alpha  occ. eigenvalues --  -11.21671 -11.21620 -11.21564 -11.21445 -11.21442
 Alpha  occ. eigenvalues --  -11.21380 -11.21324 -11.21258 -11.21128 -11.21084
 Alpha  occ. eigenvalues --  -11.21064 -11.20987  -1.08479  -1.08359  -1.03583
 Alpha  occ. eigenvalues --   -1.03464  -0.96047  -0.95915  -0.87066  -0.86937
 Alpha  occ. eigenvalues --   -0.79701  -0.79495  -0.78287  -0.78165  -0.65172
 Alpha  occ. eigenvalues --   -0.64976  -0.60975  -0.60874  -0.59426  -0.59282
 Alpha  occ. eigenvalues --   -0.57703  -0.57484  -0.55349  -0.55191  -0.52824
 Alpha  occ. eigenvalues --   -0.52564  -0.52501  -0.52307  -0.49992  -0.49870
 Alpha  occ. eigenvalues --   -0.47991  -0.47827  -0.46752  -0.46497  -0.45865
 Alpha  occ. eigenvalues --   -0.45742  -0.45678  -0.45536  -0.43764  -0.43677
 Alpha virt. eigenvalues --    0.21099   0.23023   0.23739   0.24404   0.26148
 Alpha virt. eigenvalues --    0.26596   0.26875   0.27357   0.28037   0.29887
 Alpha virt. eigenvalues --    0.29994   0.30961   0.31893   0.31932   0.32399

 Mulliken charges:
               1
     1  C   -0.298627
     2  C   -0.302624
     3  C   -0.479938
     4  H    0.149871
     5  H    0.150078
     6  H    0.152005
     7  H    0.153491
     8  H    0.158678
     9  H    0.155984
    10  H    0.161162
    11  C   -0.298437
    12  C   -0.299688
    13  C   -0.475744
    14  H    0.149543
    15  H    0.149953
    16  H    0.151946
    17  H    0.152034
    18  H    0.155309
    19  H    0.155193
    20  H    0.160325
    21  C   -0.297577
    22  C   -0.308318
    23  C   -0.475088
    24  H    0.149316
    25  H    0.148323
    26  H    0.150389
    27  H    0.163575
    28  H    0.154638
    29  H    0.154569
    30  H    0.159862
    31  C   -0.306938
    32  C   -0.298971
    33  C   -0.476144
    34  H    0.148523
    35  H    0.159761
    36  H    0.151838
    37  H    0.151460
    38  H    0.155065
    39  H    0.154920
    40  H    0.160282
 Sum of Mulliken charges =  -0.00000

 Dipole moment (field-independent basis, Debye):
    X=             -0.0715    Y=             -0.0251    Z=              0.0067  Tot=              0.0761
 Quadrupole moment (field-independent basis, Debye-Ang):
   XX=            -86.1215   YY=            -85.7355   ZZ=            -83.2730
   XY=              1.4140   XZ=             -0.7206   YZ=             -0.4766

 Normal termination of Gaussian 16 at Wed May  5 21:24:59 2021.
