 Gaussian 16, Revision A.03,
 Gaussian 16:  EM64L-G16RevA.03 25-Dec-2016

 -------------
 #p 6-31g* mp2
 -------------

 ------------------------------------------------------
 Input file generated by CHIRIPA (05-May-2021 14:55:21)
 ------------------------------------------------------
 Symbolic Z-matrix:
 Charge =  0 Multiplicity = 1

                         Standard orientation:
 ---------------------------------------------------------------------
 Center     Atomic      Atomic             Coordinates (Angstroms)
 Number     Number       Type             X           Y           Z
 ---------------------------------------------------------------------
      1          6           0        1.673605    2.493406    0.640275
      2          6           0        3.035742    2.554516    0.328235
      3          6           0        3.730724    1.400817   -0.046635
      4          6           0        3.029162    0.197349   -0.099237
      5          6           0        1.672113    0.104154    0.205756
      6          6           0        0.997330    1.270575    0.578150
      7          1           0        1.141572    3.394568    0.930521
      8          1           0        3.563514    3.502807    0.375622
      9          1           0        4.785316    1.419618   -0.293412
     10          1           0        1.173069   -0.855640    0.149459
     11          1           0       -0.060516    1.220128    0.819939
     12          7           0        3.754217   -1.030754   -0.494784
     13          8           0        3.113290   -2.078777   -0.533479
     14          8           0        4.949712   -0.922065   -0.758629
     15          6           0       -3.231689   -1.069282   -0.129002
     16          6           0       -2.398487   -1.533598    1.066059
     17          6           0       -1.417522   -2.649439    0.704952
     18          1           0       -3.783668   -1.926481   -0.538237
     19          1           0       -2.557619   -0.722897   -0.924641
     20          1           0       -3.073971   -1.877712    1.859737
     21          1           0       -1.848576   -0.675155    1.472616
     22          1           0       -0.720502   -2.313839   -0.069734
     23          1           0       -1.952859   -3.523229    0.319588
     24          1           0       -0.832205   -2.966166    1.573830
     25          6           0       -4.217052    0.045907    0.216161
     26          6           0       -5.050254    0.510223   -0.978901
     27          6           0       -6.031220    1.626064   -0.617793
     28          1           0       -4.891123   -0.300479    1.011800
     29          1           0       -3.665073    0.903106    0.625396
     30          1           0       -5.600166   -0.348220   -1.385457
     31          1           0       -4.374771    0.854337   -1.772579
     32          1           0       -5.495882    2.499853   -0.232429
     33          1           0       -6.728239    1.290464    0.156892
     34          1           0       -6.616536    1.942791   -1.486672
 ---------------------------------------------------------------------

 SCF Done:  E(RHF) =  -669.535319184     A.U. after   15 cycles
 E2 =    -0.2091909477D+01 EUMP2 =    -0.67162722866182D+03

 The electronic state is 1-A.
 Alpha  occ. eigenvalues --  -20.60737 -20.60731 -15.85788 -11.31151 -11.27732
 Alpha  occ. eigenvalues --  -11.27693 -11.27481 -11.26751 -11.26734 -11.22342
 Alpha  occ. eigenvalues --  -11.22107 -11.22030 -11.21973 -11.21601 -11.21529
 Alpha  occ. eigenvalues --   -1.59812  -1.39365  -1.19331  -1.09054  -1.08728
 Alpha  occ. eigenvalues --   -1.04739  -1.04112  -0.96540  -0.95561  -0.87550
 Alpha  occ. eigenvalues --   -0.86134  -0.82395  -0.80170  -0.78857  -0.77444
 Alpha  occ. eigenvalues --   -0.72008  -0.71135  -0.70454  -0.65724  -0.64982
 Alpha  occ. eigenvalues --   -0.64751  -0.62245  -0.61369  -0.59895  -0.58142
 Alpha  occ. eigenvalues --   -0.55866  -0.55213  -0.53207  -0.53066  -0.52967
 Alpha  occ. eigenvalues --   -0.52833  -0.50456  -0.48770  -0.48763  -0.48469
 Alpha  occ. eigenvalues --   -0.47223  -0.46395  -0.46325  -0.44771  -0.44358
 Alpha  occ. eigenvalues --   -0.37318  -0.36338
 Alpha virt. eigenvalues --    0.05087   0.11304   0.16569   0.18329   0.22777
 Alpha virt. eigenvalues --    0.23636   0.24786   0.25890   0.27084   0.28536
 Alpha virt. eigenvalues --    0.29290   0.30487   0.31279   0.31524   0.32413

 Mulliken charges:
               1
     1  C   -0.170829
     2  C   -0.218933
     3  C   -0.170076
     4  C    0.158448
     5  C   -0.180476
     6  C   -0.226012
     7  H    0.225643
     8  H    0.223319
     9  H    0.275554
    10  H    0.288365
    11  H    0.227415
    12  N    0.486938
    13  O   -0.460307
    14  O   -0.460560
    15  C   -0.299442
    16  C   -0.303737
    17  C   -0.481822
    18  H    0.154446
    19  H    0.148630
    20  H    0.156793
    21  H    0.142517
    22  H    0.155653
    23  H    0.162412
    24  H    0.165774
    25  C   -0.297287
    26  C   -0.300183
    27  C   -0.475763
    28  H    0.151972
    29  H    0.142901
    30  H    0.154517
    31  H    0.152230
    32  H    0.153397
    33  H    0.156340
    34  H    0.162164
 Sum of Mulliken charges =  -0.00000

 Dipole moment (field-independent basis, Debye):
    X=             -2.7146    Y=              4.1747    Z=              1.3685  Tot=              5.1643
 Quadrupole moment (field-independent basis, Debye-Ang):
   XX=           -106.2949   YY=            -91.7267   ZZ=            -95.8237
   XY=             16.7673   XZ=              4.0255   YZ=             -0.7791

 Normal termination of Gaussian 16 at Wed May  5 15:56:42 2021.
