 Gaussian 16, Revision A.03,
 Gaussian 16:  EM64L-G16RevA.03 25-Dec-2016

 -------------
 #p 6-31g* mp2
 -------------

 ------------------------------------------------------
 Input file generated by CHIRIPA (05-May-2021 14:53:18)
 ------------------------------------------------------
 Symbolic Z-matrix:
 Charge =  0 Multiplicity = 1

                         Standard orientation:
 ---------------------------------------------------------------------
 Center     Atomic      Atomic             Coordinates (Angstroms)
 Number     Number       Type             X           Y           Z
 ---------------------------------------------------------------------
      1          6           0        3.409827   -0.524070   -0.298594
      2          6           0        4.627296   -0.863731    0.561861
      3          6           0        4.825386   -2.369605    0.737634
      4          1           0        2.512074   -0.962580    0.158236
      5          1           0        3.522253   -0.997509   -1.283790
      6          1           0        4.513258   -0.388650    1.544668
      7          1           0        5.522228   -0.424199    0.103031
      8          1           0        4.964616   -2.855778   -0.233372
      9          1           0        3.949914   -2.820027    1.216456
     10          1           0        5.701158   -2.589850    1.355999
     11          6           0        3.198578    0.977570   -0.483472
     12          6           0        1.981108    1.317231   -1.343928
     13          6           0        1.783019    2.823105   -1.519700
     14          1           0        3.086151    1.451009    0.501724
     15          1           0        4.096331    1.416079   -0.940302
     16          1           0        1.086176    0.877699   -0.885098
     17          1           0        2.095146    0.842149   -2.326735
     18          1           0        2.658490    3.273527   -1.998523
     19          1           0        1.643788    3.309278   -0.548695
     20          1           0        0.907246    3.043350   -2.138065
     21          6           0       -1.148267    1.158017    1.895891
     22          6           0       -2.494370    1.493379    1.716840
     23          6           0       -3.297851    0.760577    0.838223
     24          6           0       -2.719959   -0.306227    0.151741
     25          6           0       -1.382065   -0.664987    0.308654
     26          6           0       -0.597382    0.081801    1.192467
     27          1           0       -0.531404    1.732708    2.580441
     28          1           0       -2.924880    2.328678    2.261802
     29          1           0       -4.342838    0.998470    0.680654
     30          1           0       -0.981205   -1.502972   -0.248582
     31          1           0        0.447718   -0.180923    1.329534
     32          7           0       -3.560617   -1.089415   -0.781162
     33          8           0       -3.027607   -2.024783   -1.374140
     34          8           0       -4.736619   -0.753081   -0.901728
 ---------------------------------------------------------------------

 SCF Done:  E(RHF) =  -669.534492632     A.U. after   15 cycles
 E2 =    -0.2093476877D+01 EUMP2 =    -0.67162796950948D+03

 The electronic state is 1-A.
 Alpha  occ. eigenvalues --  -20.60798 -20.60792 -15.85852 -11.31247 -11.27813
 Alpha  occ. eigenvalues --  -11.27809 -11.27561 -11.26837 -11.26816 -11.22286
 Alpha  occ. eigenvalues --  -11.22211 -11.22083 -11.21990 -11.21626 -11.21504
 Alpha  occ. eigenvalues --   -1.59872  -1.39425  -1.19429  -1.09124  -1.08810
 Alpha  occ. eigenvalues --   -1.04846  -1.04094  -0.96567  -0.95642  -0.87576
 Alpha  occ. eigenvalues --   -0.86232  -0.82487  -0.80170  -0.78950  -0.77513
 Alpha  occ. eigenvalues --   -0.72070  -0.71196  -0.70524  -0.65930  -0.65077
 Alpha  occ. eigenvalues --   -0.64733  -0.62181  -0.61496  -0.59924  -0.58169
 Alpha  occ. eigenvalues --   -0.55892  -0.55321  -0.53262  -0.53158  -0.52969
 Alpha  occ. eigenvalues --   -0.52903  -0.50520  -0.48833  -0.48822  -0.48477
 Alpha  occ. eigenvalues --   -0.47227  -0.46445  -0.46401  -0.44823  -0.44392
 Alpha  occ. eigenvalues --   -0.37395  -0.36353
 Alpha virt. eigenvalues --    0.04995   0.11162   0.16373   0.19146   0.23009
 Alpha virt. eigenvalues --    0.23764   0.25047   0.26249   0.27193   0.28418
 Alpha virt. eigenvalues --    0.29552   0.30954   0.31332   0.31603   0.31713

 Mulliken charges:
               1
     1  C   -0.300823
     2  C   -0.299718
     3  C   -0.475945
     4  H    0.139071
     5  H    0.155751
     6  H    0.149490
     7  H    0.155422
     8  H    0.158092
     9  H    0.153602
    10  H    0.162530
    11  C   -0.299211
    12  C   -0.308213
    13  C   -0.474269
    14  H    0.143023
    15  H    0.153918
    16  H    0.156423
    17  H    0.155215
    18  H    0.156338
    19  H    0.150545
    20  H    0.163956
    21  C   -0.172751
    22  C   -0.218184
    23  C   -0.170913
    24  C    0.158894
    25  C   -0.171886
    26  C   -0.222884
    27  H    0.226152
    28  H    0.223820
    29  H    0.275926
    30  H    0.276491
    31  H    0.232319
    32  N    0.488094
    33  O   -0.459950
    34  O   -0.460328
 Sum of Mulliken charges =  -0.00000

 Dipole moment (field-independent basis, Debye):
    X=              3.0054    Y=              2.7513    Z=              3.2146  Tot=              5.1899
 Quadrupole moment (field-independent basis, Debye-Ang):
   XX=           -107.1768   YY=            -96.3105   ZZ=            -93.4463
   XY=            -11.0600   XZ=            -10.3557   YZ=              0.4279

 Normal termination of Gaussian 16 at Thu May  6 09:11:17 2021.
