 Gaussian 16, Revision A.03,
 Gaussian 16:  EM64L-G16RevA.03 25-Dec-2016

 -------------
 #p 6-31g* mp2
 -------------

 ------------------------------------------------------
 Input file generated by CHIRIPA (05-May-2021 14:55:25)
 ------------------------------------------------------
 Symbolic Z-matrix:
 Charge =  0 Multiplicity = 1

                         Standard orientation:
 ---------------------------------------------------------------------
 Center     Atomic      Atomic             Coordinates (Angstroms)
 Number     Number       Type             X           Y           Z
 ---------------------------------------------------------------------
      1          6           0        4.547742    1.150334   -0.169955
      2          6           0        3.828997    1.123951    1.029725
      3          6           0        2.704228    0.304830    1.165677
      4          6           0        2.324602   -0.478480    0.076825
      5          6           0        3.019989   -0.474167   -1.131359
      6          6           0        4.141660    0.352597   -1.244773
      7          1           0        5.420286    1.789616   -0.266811
      8          1           0        4.142057    1.742421    1.866106
      9          1           0        2.129520    0.265017    2.083034
     10          1           0        2.683586   -1.101891   -1.947578
     11          1           0        4.697930    0.371055   -2.177654
     12          7           0        1.135499   -1.349693    0.208821
     13          8           0        0.821588   -2.030332   -0.765256
     14          8           0        0.539907   -1.335413    1.283858
     15          6           0       -3.614297   -0.204321   -0.250081
     16          6           0       -2.968176   -1.483374    0.283338
     17          6           0       -3.755937   -2.741240   -0.084086
     18          1           0       -4.637062   -0.126145    0.143347
     19          1           0       -3.704362   -0.275529   -1.342882
     20          1           0       -2.878094   -1.409193    1.374666
     21          1           0       -1.946764   -1.558417   -0.111253
     22          1           0       -3.834455   -2.842747   -1.171345
     23          1           0       -4.771077   -2.692676    0.323017
     24          1           0       -3.276331   -3.643882    0.307164
     25          6           0       -2.838388    1.061649    0.109101
     26          6           0       -3.484509    2.340702   -0.424318
     27          6           0       -2.696749    3.598568   -0.056894
     28          1           0       -2.748323    1.132857    1.201901
     29          1           0       -1.815623    0.983473   -0.284327
     30          1           0       -4.505921    2.415745   -0.029727
     31          1           0       -3.574591    2.266521   -1.515647
     32          1           0       -1.681608    3.550004   -0.463997
     33          1           0       -2.618230    3.700075    1.030365
     34          1           0       -3.176354    4.501210   -0.448144
 ---------------------------------------------------------------------

 SCF Done:  E(RHF) =  -669.536392263     A.U. after   15 cycles
 E2 =    -0.2092349143D+01 EUMP2 =    -0.67162874140554D+03

 The electronic state is 1-A.
 Alpha  occ. eigenvalues --  -20.61073 -20.61064 -15.86065 -11.31360 -11.27913
 Alpha  occ. eigenvalues --  -11.27906 -11.27642 -11.26907 -11.26897 -11.20965
 Alpha  occ. eigenvalues --  -11.20664 -11.20478 -11.20165 -11.19706 -11.19578
 Alpha  occ. eigenvalues --   -1.60111  -1.39665  -1.19519  -1.08930  -1.07355
 Alpha  occ. eigenvalues --   -1.04906  -1.02410  -0.95776  -0.94949  -0.86309
 Alpha  occ. eigenvalues --   -0.85979  -0.82612  -0.78541  -0.77674  -0.77031
 Alpha  occ. eigenvalues --   -0.72270  -0.71421  -0.70626  -0.65171  -0.64910
 Alpha  occ. eigenvalues --   -0.64001  -0.62253  -0.59813  -0.58372  -0.56498
 Alpha  occ. eigenvalues --   -0.55412  -0.54272  -0.53242  -0.52996  -0.51668
 Alpha  occ. eigenvalues --   -0.51359  -0.49197  -0.49048  -0.48893  -0.46791
 Alpha  occ. eigenvalues --   -0.45590  -0.45115  -0.44524  -0.44350  -0.42681
 Alpha  occ. eigenvalues --   -0.37491  -0.36504
 Alpha virt. eigenvalues --    0.04822   0.11151   0.16332   0.21291   0.23778
 Alpha virt. eigenvalues --    0.25444   0.27215   0.27607   0.28090   0.28632
 Alpha virt. eigenvalues --    0.28928   0.30906   0.32364   0.32462   0.32737

 Mulliken charges:
               1
     1  C   -0.170369
     2  C   -0.218600
     3  C   -0.170493
     4  C    0.160562
     5  C   -0.170892
     6  C   -0.218636
     7  H    0.226302
     8  H    0.224196
     9  H    0.276241
    10  H    0.275864
    11  H    0.224048
    12  N    0.486582
    13  O   -0.460477
    14  O   -0.456557
    15  C   -0.298681
    16  C   -0.305733
    17  C   -0.474744
    18  H    0.143948
    19  H    0.145592
    20  H    0.151617
    21  H    0.178119
    22  H    0.150781
    23  H    0.146799
    24  H    0.162562
    25  C   -0.294384
    26  C   -0.298748
    27  C   -0.474630
    28  H    0.149611
    29  H    0.145663
    30  H    0.150831
    31  H    0.150301
    32  H    0.151936
    33  H    0.153711
    34  H    0.157679
 Sum of Mulliken charges =  -0.00000

 Dipole moment (field-independent basis, Debye):
    X=              4.5708    Y=              2.9362    Z=             -0.3933  Tot=              5.4469
 Quadrupole moment (field-independent basis, Debye-Ang):
   XX=            -76.9171   YY=            -99.3907   ZZ=            -89.7844
   XY=              4.6925   XZ=             -2.2046   YZ=              2.1059

 Normal termination of Gaussian 16 at Wed May  5 20:51:47 2021.
