 Gaussian 16, Revision A.03,
 Gaussian 16:  EM64L-G16RevA.03 25-Dec-2016

 -------------
 #p 6-31g* mp2
 -------------

 ------------------------------------------------------
 Input file generated by CHIRIPA (05-May-2021 14:51:12)
 ------------------------------------------------------
 Symbolic Z-matrix:
 Charge =  0 Multiplicity = 1

                         Standard orientation:
 ---------------------------------------------------------------------
 Center     Atomic      Atomic             Coordinates (Angstroms)
 Number     Number       Type             X           Y           Z
 ---------------------------------------------------------------------
      1          6           0        1.984897   -0.843332    0.198586
      2          6           0        1.871422   -1.934849    1.263338
      3          6           0        0.499439   -2.609636    1.274299
      4          1           0        1.205070   -0.089020    0.371295
      5          1           0        1.782828   -1.281434   -0.788648
      6          1           0        2.075004   -1.495105    2.248120
      7          1           0        2.651731   -2.686551    1.088188
      8          1           0        0.290970   -3.074415    0.305216
      9          1           0       -0.289033   -1.876199    1.471738
     10          1           0        0.440286   -3.386551    2.042911
     11          6           0        3.350729   -0.159457    0.175232
     12          6           0        3.464205    0.932061   -0.889520
     13          6           0        4.836187    1.606848   -0.900481
     14          1           0        3.552798    0.278645    1.162465
     15          1           0        4.130557   -0.913768    0.002523
     16          1           0        2.683895    1.683762   -0.714370
     17          1           0        3.260622    0.492316   -1.874302
     18          1           0        5.624660    0.873410   -1.097920
     19          1           0        5.044656    2.071626    0.068602
     20          1           0        4.895341    2.383763   -1.669093
     21          6           0       -2.616145   -0.017500   -0.745040
     22          6           0       -3.068335   -1.414358   -0.318080
     23          6           0       -2.959116   -2.441408   -1.445481
     24          1           0       -3.220492    0.310698   -1.601776
     25          1           0       -1.576426   -0.067876   -1.096950
     26          1           0       -4.106443   -1.361110    0.034219
     27          1           0       -2.462970   -1.739191    0.537861
     28          1           0       -1.924032   -2.523973   -1.792448
     29          1           0       -3.576842   -2.143744   -2.298951
     30          1           0       -3.287428   -3.432942   -1.118478
     31          6           0       -2.719481    1.020289    0.371223
     32          6           0       -2.267292    2.417148   -0.055738
     33          6           0       -2.376511    3.444197    1.071663
     34          1           0       -3.759201    1.070665    0.723132
     35          1           0       -2.115134    0.692091    1.227959
     36          1           0       -2.872657    2.741980   -0.911678
     37          1           0       -1.229185    2.363899   -0.408036
     38          1           0       -1.758784    3.146532    1.925134
     39          1           0       -3.411595    3.526761    1.418630
     40          1           0       -2.048198    4.435732    0.744661
 ---------------------------------------------------------------------

 SCF Done:  E(RHF) =  -470.733200391     A.U. after   11 cycles
 E2 =    -0.1583789187D+01 EUMP2 =    -0.47231698957809D+03

 The electronic state is 1-A.
 Alpha  occ. eigenvalues --  -11.21682 -11.21657 -11.21613 -11.21493 -11.21479
 Alpha  occ. eigenvalues --  -11.21425 -11.21392 -11.21300 -11.21146 -11.21109
 Alpha  occ. eigenvalues --  -11.21089 -11.21004  -1.08511  -1.08394  -1.03609
 Alpha  occ. eigenvalues --   -1.03484  -0.96056  -0.95944  -0.87073  -0.86963
 Alpha  occ. eigenvalues --   -0.79688  -0.79539  -0.78323  -0.78211  -0.65204
 Alpha  occ. eigenvalues --   -0.64979  -0.61024  -0.60896  -0.59408  -0.59318
 Alpha  occ. eigenvalues --   -0.57654  -0.57556  -0.55353  -0.55237  -0.52740
 Alpha  occ. eigenvalues --   -0.52649  -0.52499  -0.52342  -0.50097  -0.49813
 Alpha  occ. eigenvalues --   -0.48097  -0.47780  -0.46786  -0.46509  -0.46012
 Alpha  occ. eigenvalues --   -0.45798  -0.45622  -0.45515  -0.43856  -0.43749
 Alpha virt. eigenvalues --    0.19516   0.22765   0.23463   0.24959   0.25342
 Alpha virt. eigenvalues --    0.25680   0.26627   0.27634   0.28726   0.30028
 Alpha virt. eigenvalues --    0.30981   0.31105   0.31764   0.31805   0.32151

 Mulliken charges:
               1
     1  C   -0.300188
     2  C   -0.299796
     3  C   -0.481259
     4  H    0.150517
     5  H    0.149483
     6  H    0.152110
     7  H    0.152445
     8  H    0.157113
     9  H    0.158988
    10  H    0.160926
    11  C   -0.298330
    12  C   -0.299745
    13  C   -0.475761
    14  H    0.149772
    15  H    0.150073
    16  H    0.151708
    17  H    0.152108
    18  H    0.155313
    19  H    0.155315
    20  H    0.160517
    21  C   -0.300331
    22  C   -0.304699
    23  C   -0.475816
    24  H    0.149441
    25  H    0.152006
    26  H    0.151129
    27  H    0.158867
    28  H    0.155146
    29  H    0.154655
    30  H    0.160096
    31  C   -0.299047
    32  C   -0.300092
    33  C   -0.475640
    34  H    0.149819
    35  H    0.148627
    36  H    0.152339
    37  H    0.151821
    38  H    0.154705
    39  H    0.155380
    40  H    0.160282
 Sum of Mulliken charges =  -0.00000

 Dipole moment (field-independent basis, Debye):
    X=              0.0385    Y=             -0.0221    Z=              0.0096  Tot=              0.0455
 Quadrupole moment (field-independent basis, Debye-Ang):
   XX=            -84.6324   YY=            -85.2784   ZZ=            -84.7770
   XY=             -1.0105   XZ=              0.1683   YZ=             -0.1843

 Normal termination of Gaussian 16 at Wed May  5 15:16:41 2021.
