 Gaussian 16, Revision A.03,
 Gaussian 16:  EM64L-G16RevA.03 25-Dec-2016

 -------------
 #p 6-31g* mp2
 -------------

 ------------------------------------------------------
 Input file generated by CHIRIPA (05-May-2021 14:53:13)
 ------------------------------------------------------
 Symbolic Z-matrix:
 Charge =  0 Multiplicity = 1

                         Standard orientation:
 ---------------------------------------------------------------------
 Center     Atomic      Atomic             Coordinates (Angstroms)
 Number     Number       Type             X           Y           Z
 ---------------------------------------------------------------------
      1          6           0       -3.002783   -0.311885    0.855989
      2          6           0       -1.602405   -0.829601    0.525993
      3          6           0       -0.635535   -0.711457    1.704551
      4          1           0       -2.933660    0.738155    1.171556
      5          1           0       -3.399854   -0.870827    1.714659
      6          1           0       -1.208649   -0.270790   -0.332670
      7          1           0       -1.674893   -1.878475    0.210991
      8          1           0       -1.002509   -1.283665    2.562752
      9          1           0       -0.533616    0.333154    2.016002
     10          1           0        0.359539   -1.087231    1.446711
     11          6           0       -3.980762   -0.423330   -0.312285
     12          6           0       -5.381139    0.094386    0.017711
     13          6           0       -6.348009   -0.023758   -1.160847
     14          1           0       -3.583691    0.135612   -1.170955
     15          1           0       -4.049885   -1.473370   -0.627852
     16          1           0       -5.308651    1.143259    0.332713
     17          1           0       -5.774896   -0.464425    0.876374
     18          1           0       -6.449929   -1.068369   -1.472298
     19          1           0       -5.981035    0.548450   -2.019048
     20          1           0       -7.343084    0.352016   -0.903007
     21          6           0        1.620602    2.529498    0.121949
     22          6           0        1.770624    2.008168   -1.167327
     23          6           0        2.382629    0.766738   -1.364432
     24          6           0        2.835001    0.070416   -0.244707
     25          6           0        2.700142    0.563198    1.052316
     26          6           0        2.085021    1.806624    1.225709
     27          1           0        1.143970    3.494646    0.265854
     28          1           0        1.410905    2.567352   -2.026373
     29          1           0        2.511665    0.339642   -2.351527
     30          1           0        3.068805   -0.017512    1.889146
     31          1           0        1.969864    2.209033    2.228132
     32          7           0        3.484554   -1.244887   -0.440821
     33          8           0        3.874585   -1.838688    0.562131
     34          8           0        3.591342   -1.657115   -1.593774
 ---------------------------------------------------------------------

 SCF Done:  E(RHF) =  -669.534397136     A.U. after   15 cycles
 E2 =    -0.2093406143D+01 EUMP2 =    -0.67162780327927D+03

 The electronic state is 1-A.
 Alpha  occ. eigenvalues --  -20.60816 -20.60810 -15.85866 -11.31218 -11.27812
 Alpha  occ. eigenvalues --  -11.27777 -11.27561 -11.26828 -11.26783 -11.21787
 Alpha  occ. eigenvalues --  -11.21671 -11.21573 -11.21514 -11.21240 -11.21086
 Alpha  occ. eigenvalues --   -1.59890  -1.39443  -1.19415  -1.08808  -1.08580
 Alpha  occ. eigenvalues --   -1.04821  -1.03654  -0.96118  -0.95638  -0.87139
 Alpha  occ. eigenvalues --   -0.86217  -0.82470  -0.79729  -0.78398  -0.77514
 Alpha  occ. eigenvalues --   -0.72083  -0.71219  -0.70525  -0.65219  -0.65064
 Alpha  occ. eigenvalues --   -0.64819  -0.62163  -0.61073  -0.59514  -0.57743
 Alpha  occ. eigenvalues --   -0.55484  -0.55320  -0.53378  -0.52910  -0.52573
 Alpha  occ. eigenvalues --   -0.52430  -0.50042  -0.48843  -0.48838  -0.48050
 Alpha  occ. eigenvalues --   -0.46770  -0.45938  -0.45873  -0.44849  -0.43933
 Alpha  occ. eigenvalues --   -0.37372  -0.36301
 Alpha virt. eigenvalues --    0.05016   0.11125   0.16482   0.21255   0.22689
 Alpha virt. eigenvalues --    0.24115   0.26430   0.26873   0.27322   0.28068
 Alpha virt. eigenvalues --    0.28309   0.30201   0.31305   0.31588   0.31811

 Mulliken charges:
               1
     1  C   -0.297973
     2  C   -0.300463
     3  C   -0.475145
     4  H    0.145704
     5  H    0.150396
     6  H    0.151052
     7  H    0.155116
     8  H    0.154130
     9  H    0.148507
    10  H    0.163498
    11  C   -0.298020
    12  C   -0.299500
    13  C   -0.475651
    14  H    0.147520
    15  H    0.151652
    16  H    0.150111
    17  H    0.152724
    18  H    0.156383
    19  H    0.154276
    20  H    0.160383
    21  C   -0.171694
    22  C   -0.218860
    23  C   -0.171206
    24  C    0.159790
    25  C   -0.170454
    26  C   -0.214312
    27  H    0.225665
    28  H    0.223552
    29  H    0.275889
    30  H    0.276093
    31  H    0.223763
    32  N    0.487849
    33  O   -0.460644
    34  O   -0.460129
 Sum of Mulliken charges =  -0.00000

 Dipole moment (field-independent basis, Debye):
    X=             -2.2279    Y=              4.6186    Z=              0.6783  Tot=              5.1726
 Quadrupole moment (field-independent basis, Debye-Ang):
   XX=           -109.1199   YY=            -93.7989   ZZ=            -90.7857
   XY=             13.4011   XZ=              2.6963   YZ=             -1.8470

 Normal termination of Gaussian 16 at Thu May  6 08:56:45 2021.
