 Gaussian 16, Revision A.03,
 Gaussian 16:  EM64L-G16RevA.03 25-Dec-2016

 -------------
 #p 6-31g* mp2
 -------------

 ------------------------------------------------------
 Input file generated by CHIRIPA (05-May-2021 14:53:16)
 ------------------------------------------------------
 Symbolic Z-matrix:
 Charge =  0 Multiplicity = 1

                         Standard orientation:
 ---------------------------------------------------------------------
 Center     Atomic      Atomic             Coordinates (Angstroms)
 Number     Number       Type             X           Y           Z
 ---------------------------------------------------------------------
      1          6           0       -2.387802    1.523758   -0.237160
      2          6           0       -1.228668    2.132856    0.552392
      3          6           0       -1.160011    3.654754    0.422358
      4          1           0       -2.286263    1.798512   -1.296001
      5          1           0       -3.331710    1.965409    0.111233
      6          1           0       -0.287347    1.689175    0.203568
      7          1           0       -1.332873    1.856461    1.609445
      8          1           0       -2.083439    4.114752    0.788806
      9          1           0       -1.031973    3.946515   -0.625059
     10          1           0       -0.324210    4.069277    0.994605
     11          6           0       -2.469641    0.003032   -0.117069
     12          6           0       -3.628775   -0.606067   -0.906620
     13          6           0       -3.697431   -2.127964   -0.776587
     14          1           0       -1.525733   -0.438620   -0.465462
     15          1           0       -2.571180   -0.271722    0.941772
     16          1           0       -3.524570   -0.329671   -1.963674
     17          1           0       -4.570096   -0.162385   -0.557797
     18          1           0       -3.825470   -2.419725    0.270830
     19          1           0       -2.774004   -2.587962   -1.143035
     20          1           0       -4.533233   -2.542488   -1.348833
     21          6           0        3.329071    0.896113   -1.306879
     22          6           0        2.957840    1.311316   -0.023791
     23          6           0        2.164851    0.492553    0.785741
     24          6           0        1.759034   -0.740693    0.278093
     25          6           0        2.112418   -1.182451   -0.995980
     26          6           0        2.905922   -0.347252   -1.788030
     27          1           0        3.945283    1.538532   -1.928954
     28          1           0        3.285003    2.276417    0.352491
     29          1           0        1.862911    0.789211    1.782860
     30          1           0        1.770909   -2.149921   -1.343530
     31          1           0        3.192701   -0.672301   -2.784096
     32          7           0        0.919260   -1.616181    1.125854
     33          8           0        0.574716   -2.698105    0.655357
     34          8           0        0.621489   -1.203887    2.244775
 ---------------------------------------------------------------------

 SCF Done:  E(RHF) =  -669.535067958     A.U. after   15 cycles
 E2 =    -0.2094593169D+01 EUMP2 =    -0.67162966112732D+03

 The electronic state is 1-A.
 Alpha  occ. eigenvalues --  -20.60848 -20.60831 -15.85874 -11.31248 -11.27848
 Alpha  occ. eigenvalues --  -11.27814 -11.27584 -11.26845 -11.26835 -11.21327
 Alpha  occ. eigenvalues --  -11.21099 -11.21081 -11.21070 -11.20846 -11.20324
 Alpha  occ. eigenvalues --   -1.59898  -1.39454  -1.19452  -1.08831  -1.08045
 Alpha  occ. eigenvalues --   -1.04856  -1.03158  -0.95671  -0.95602  -0.86623
 Alpha  occ. eigenvalues --   -0.86239  -0.82494  -0.79248  -0.77870  -0.77519
 Alpha  occ. eigenvalues --   -0.72101  -0.71208  -0.70547  -0.65094  -0.64843
 Alpha  occ. eigenvalues --   -0.64684  -0.62195  -0.60573  -0.59025  -0.57215
 Alpha  occ. eigenvalues --   -0.55343  -0.54891  -0.53244  -0.52931  -0.52318
 Alpha  occ. eigenvalues --   -0.52010  -0.49533  -0.48864  -0.48856  -0.47544
 Alpha  occ. eigenvalues --   -0.46273  -0.45367  -0.45339  -0.44767  -0.43411
 Alpha  occ. eigenvalues --   -0.37397  -0.36376
 Alpha virt. eigenvalues --    0.04975   0.11155   0.16426   0.21216   0.23177
 Alpha virt. eigenvalues --    0.24565   0.26749   0.26950   0.27500   0.28083
 Alpha virt. eigenvalues --    0.28871   0.30889   0.31693   0.31908   0.32166

 Mulliken charges:
               1
     1  C   -0.296822
     2  C   -0.309707
     3  C   -0.473939
     4  H    0.146099
     5  H    0.149082
     6  H    0.154797
     7  H    0.157900
     8  H    0.156823
     9  H    0.152956
    10  H    0.153054
    11  C   -0.300629
    12  C   -0.299799
    13  C   -0.475690
    14  H    0.144225
    15  H    0.161095
    16  H    0.147506
    17  H    0.150365
    18  H    0.160563
    19  H    0.159997
    20  H    0.155928
    21  C   -0.170649
    22  C   -0.217400
    23  C   -0.173545
    24  C    0.159833
    25  C   -0.172456
    26  C   -0.218550
    27  H    0.226128
    28  H    0.224357
    29  H    0.277493
    30  H    0.275883
    31  H    0.223761
    32  N    0.491250
    33  O   -0.460469
    34  O   -0.459440
 Sum of Mulliken charges =  -0.00000

 Dipole moment (field-independent basis, Debye):
    X=              3.0240    Y=              2.9281    Z=             -2.8659  Tot=              5.0923
 Quadrupole moment (field-independent basis, Debye-Ang):
   XX=            -84.7148   YY=            -98.9467   ZZ=            -93.4233
   XY=              3.4007   XZ=             -5.3423   YZ=              5.9729

 Normal termination of Gaussian 16 at Thu May  6 12:12:16 2021.
