 Gaussian 16, Revision A.03,
 Gaussian 16:  EM64L-G16RevA.03 25-Dec-2016

 -------------
 #p 6-31g* mp2
 -------------

 ------------------------------------------------------
 Input file generated by CHIRIPA (05-May-2021 14:51:11)
 ------------------------------------------------------
 Symbolic Z-matrix:
 Charge =  0 Multiplicity = 1

                         Standard orientation:
 ---------------------------------------------------------------------
 Center     Atomic      Atomic             Coordinates (Angstroms)
 Number     Number       Type             X           Y           Z
 ---------------------------------------------------------------------
      1          6           0        1.608642    1.315204    0.086744
      2          6           0        1.924189    2.770624    0.433398
      3          6           0        0.673950    3.580840    0.777265
      4          1           0        0.909228    1.289985   -0.760091
      5          1           0        1.089493    0.847816    0.934935
      6          1           0        2.443818    3.234733   -0.414662
      7          1           0        2.623082    2.792377    1.279383
      8          1           0        0.156344    3.144047    1.637438
      9          1           0       -0.023939    3.588916   -0.066232
     10          1           0        0.922547    4.618258    1.021853
     11          6           0        2.848377    0.492382   -0.259304
     12          6           0        2.532830   -0.963038   -0.605957
     13          6           0        3.783069   -1.773255   -0.949825
     14          1           0        3.367526    0.959769   -1.107495
     15          1           0        3.547791    0.517600    0.587531
     16          1           0        1.833936   -0.984792   -1.451942
     17          1           0        2.013201   -1.427147    0.242102
     18          1           0        4.480958   -1.781331   -0.106328
     19          1           0        4.300675   -1.336462   -1.809997
     20          1           0        3.534472   -2.810673   -1.194413
     21          6           0       -1.912669   -1.591435   -0.017763
     22          6           0       -0.948572   -1.991233    1.099673
     23          6           0       -0.324767   -3.369354    0.877308
     24          1           0       -2.706717   -2.346633   -0.095931
     25          1           0       -1.376088   -1.601670   -0.976602
     26          1           0       -1.486467   -1.978905    2.056300
     27          1           0       -0.156834   -1.234897    1.175318
     28          1           0        0.236118   -3.391210   -0.062656
     29          1           0       -1.101069   -4.139445    0.823332
     30          1           0        0.360992   -3.635141    1.687833
     31          6           0       -2.544350   -0.216151    0.190323
     32          6           0       -3.508447    0.183648   -0.927114
     33          6           0       -4.132253    1.561768   -0.704748
     34          1           0       -3.080930   -0.205915    1.149161
     35          1           0       -1.750302    0.539047    0.268490
     36          1           0       -4.300186   -0.572689   -1.002758
     37          1           0       -2.970553    0.171319   -1.883741
     38          1           0       -3.355950    2.331860   -0.650772
     39          1           0       -4.693136    1.583624    0.235215
     40          1           0       -4.818012    1.827555   -1.515274
 ---------------------------------------------------------------------

 SCF Done:  E(RHF) =  -470.732299347     A.U. after   11 cycles
 E2 =    -0.1585525627D+01 EUMP2 =    -0.47231782497419D+03

 The electronic state is 1-A.
 Alpha  occ. eigenvalues --  -11.21682 -11.21622 -11.21553 -11.21500 -11.21494
 Alpha  occ. eigenvalues --  -11.21427 -11.21323 -11.21258 -11.21148 -11.21105
 Alpha  occ. eigenvalues --  -11.21031 -11.21020  -1.08542  -1.08340  -1.03620
 Alpha  occ. eigenvalues --   -1.03456  -0.96055  -0.95921  -0.87063  -0.86942
 Alpha  occ. eigenvalues --   -0.79673  -0.79548  -0.78468  -0.78073  -0.65259
 Alpha  occ. eigenvalues --   -0.64914  -0.61120  -0.60805  -0.59394  -0.59289
 Alpha  occ. eigenvalues --   -0.57676  -0.57539  -0.55343  -0.55204  -0.52737
 Alpha  occ. eigenvalues --   -0.52631  -0.52463  -0.52351  -0.50029  -0.49827
 Alpha  occ. eigenvalues --   -0.48060  -0.47821  -0.46788  -0.46670  -0.46300
 Alpha  occ. eigenvalues --   -0.45787  -0.45635  -0.44969  -0.43851  -0.43718
 Alpha virt. eigenvalues --    0.20463   0.21933   0.23578   0.24146   0.25658
 Alpha virt. eigenvalues --    0.25997   0.26305   0.27886   0.28350   0.30029
 Alpha virt. eigenvalues --    0.31043   0.31411   0.31748   0.31942   0.32142

 Mulliken charges:
               1
     1  C   -0.305220
     2  C   -0.299163
     3  C   -0.476906
     4  H    0.150191
     5  H    0.154965
     6  H    0.152293
     7  H    0.152326
     8  H    0.156195
     9  H    0.154899
    10  H    0.160979
    11  C   -0.298238
    12  C   -0.307504
    13  C   -0.475666
    14  H    0.149705
    15  H    0.149712
    16  H    0.150988
    17  H    0.161990
    18  H    0.155317
    19  H    0.155134
    20  H    0.160638
    21  C   -0.297530
    22  C   -0.308743
    23  C   -0.478142
    24  H    0.149265
    25  H    0.149616
    26  H    0.151311
    27  H    0.160395
    28  H    0.157956
    29  H    0.155433
    30  H    0.158944
    31  C   -0.303291
    32  C   -0.299421
    33  C   -0.475891
    34  H    0.148809
    35  H    0.155239
    36  H    0.151760
    37  H    0.151149
    38  H    0.155370
    39  H    0.155209
    40  H    0.159926
 Sum of Mulliken charges =  -0.00000

 Dipole moment (field-independent basis, Debye):
    X=              0.0588    Y=              0.0284    Z=              0.0152  Tot=              0.0670
 Quadrupole moment (field-independent basis, Debye-Ang):
   XX=            -85.1886   YY=            -86.0176   ZZ=            -83.6582
   XY=              1.3907   XZ=             -0.0179   YZ=             -0.6198

 Normal termination of Gaussian 16 at Wed May  5 19:51:59 2021.
