 Gaussian 16, Revision A.03,
 Gaussian 16:  EM64L-G16RevA.03 25-Dec-2016

 -------------
 #p 6-31g* mp2
 -------------

 ------------------------------------------------------
 Input file generated by CHIRIPA (05-May-2021 14:51:11)
 ------------------------------------------------------
 Symbolic Z-matrix:
 Charge =  0 Multiplicity = 1

                         Standard orientation:
 ---------------------------------------------------------------------
 Center     Atomic      Atomic             Coordinates (Angstroms)
 Number     Number       Type             X           Y           Z
 ---------------------------------------------------------------------
      1          6           0        4.099611   -0.024258    0.268805
      2          6           0        4.490853    1.303766   -0.380247
      3          6           0        5.800851    1.867764    0.170758
      4          1           0        4.011462    0.117532    1.354655
      5          1           0        4.907611   -0.752498    0.113250
      6          1           0        3.681756    2.028876   -0.224709
      7          1           0        4.577894    1.158842   -1.464700
      8          1           0        6.623760    1.165678    0.001950
      9          1           0        5.722530    2.040656    1.248986
     10          1           0        6.061592    2.817285   -0.307033
     11          6           0        2.792178   -0.600714   -0.271606
     12          6           0        2.400935   -1.928738    0.377446
     13          6           0        1.090938   -2.492736   -0.173559
     14          1           0        1.984178    0.127526   -0.116052
     15          1           0        2.880327   -0.742504   -1.357456
     16          1           0        2.313894   -1.783814    1.461898
     17          1           0        3.210033   -2.653848    0.221907
     18          1           0        1.169259   -2.665628   -1.251787
     19          1           0        0.268028   -1.790650   -0.004751
     20          1           0        0.830197   -3.442257    0.304231
     21          6           0       -3.579164   -0.367094    0.323649
     22          6           0       -3.058756   -1.542984   -0.503661
     23          6           0       -3.332876   -2.895762    0.154096
     24          1           0       -3.114795   -0.393285    1.318948
     25          1           0       -4.660132   -0.487596    0.479803
     26          1           0       -1.979340   -1.419582   -0.659381
     27          1           0       -3.524273   -1.513880   -1.497170
     28          1           0       -4.408316   -3.044810    0.294866
     29          1           0       -2.854605   -2.949976    1.137416
     30          1           0       -2.952570   -3.722341   -0.454175
     31          6           0       -3.312625    0.992064   -0.320847
     32          6           0       -3.833032    2.167957    0.506462
     33          6           0       -3.558913    3.520735   -0.151294
     34          1           0       -2.231658    1.112568   -0.477001
     35          1           0       -3.776994    1.018256   -1.316146
     36          1           0       -3.367516    2.138852    1.499972
     37          1           0       -4.912448    2.044554    0.662183
     38          1           0       -4.037184    3.574949   -1.134614
     39          1           0       -2.483474    3.669782   -0.292065
     40          1           0       -3.939219    4.347313    0.456978
 ---------------------------------------------------------------------

 SCF Done:  E(RHF) =  -470.733261382     A.U. after   11 cycles
 E2 =    -0.1582590404D+01 EUMP2 =    -0.47231585178536D+03

 The electronic state is 1-A.
 Alpha  occ. eigenvalues --  -11.21640 -11.21627 -11.21603 -11.21521 -11.21443
 Alpha  occ. eigenvalues --  -11.21393 -11.21382 -11.21330 -11.21102 -11.21091
 Alpha  occ. eigenvalues --  -11.21075 -11.21009  -1.08467  -1.08410  -1.03571
 Alpha  occ. eigenvalues --   -1.03494  -0.96021  -0.95945  -0.87033  -0.86968
 Alpha  occ. eigenvalues --   -0.79661  -0.79535  -0.78291  -0.78211  -0.65138
 Alpha  occ. eigenvalues --   -0.65015  -0.61073  -0.60810  -0.59379  -0.59322
 Alpha  occ. eigenvalues --   -0.57644  -0.57542  -0.55366  -0.55183  -0.52708
 Alpha  occ. eigenvalues --   -0.52636  -0.52458  -0.52368  -0.50019  -0.49853
 Alpha  occ. eigenvalues --   -0.48050  -0.47807  -0.46771  -0.46483  -0.45889
 Alpha  occ. eigenvalues --   -0.45770  -0.45743  -0.45527  -0.43817  -0.43758
 Alpha virt. eigenvalues --    0.21281   0.23056   0.23767   0.24786   0.25861
 Alpha virt. eigenvalues --    0.26814   0.27193   0.27501   0.28054   0.28898
 Alpha virt. eigenvalues --    0.30723   0.31591   0.31628   0.31793   0.32159

 Mulliken charges:
               1
     1  C   -0.298311
     2  C   -0.299664
     3  C   -0.475732
     4  H    0.149642
     5  H    0.149704
     6  H    0.151819
     7  H    0.152062
     8  H    0.155251
     9  H    0.155190
    10  H    0.160367
    11  C   -0.298171
    12  C   -0.299621
    13  C   -0.480614
    14  H    0.148736
    15  H    0.149909
    16  H    0.151820
    17  H    0.152171
    18  H    0.155474
    19  H    0.159469
    20  H    0.161141
    21  C   -0.298222
    22  C   -0.306686
    23  C   -0.475078
    24  H    0.149031
    25  H    0.149552
    26  H    0.159093
    27  H    0.151832
    28  H    0.154678
    29  H    0.154982
    30  H    0.160706
    31  C   -0.298061
    32  C   -0.299615
    33  C   -0.475665
    34  H    0.148638
    35  H    0.149895
    36  H    0.151697
    37  H    0.152055
    38  H    0.155285
    39  H    0.155011
    40  H    0.160228
 Sum of Mulliken charges =  -0.00000

 Dipole moment (field-independent basis, Debye):
    X=              0.0225    Y=             -0.0175    Z=             -0.0104  Tot=              0.0304
 Quadrupole moment (field-independent basis, Debye-Ang):
   XX=            -84.6076   YY=            -85.8967   ZZ=            -84.2338
   XY=             -0.8633   XZ=             -0.1557   YZ=              0.6190

 Normal termination of Gaussian 16 at Wed May  5 19:51:59 2021.
