 Gaussian 16, Revision A.03,
 Gaussian 16:  EM64L-G16RevA.03 25-Dec-2016

 -------------
 #p 6-31g* mp2
 -------------

 ------------------------------------------------------
 Input file generated by CHIRIPA (05-May-2021 14:55:20)
 ------------------------------------------------------
 Symbolic Z-matrix:
 Charge =  0 Multiplicity = 1

                         Standard orientation:
 ---------------------------------------------------------------------
 Center     Atomic      Atomic             Coordinates (Angstroms)
 Number     Number       Type             X           Y           Z
 ---------------------------------------------------------------------
      1          6           0       -5.098574    2.118157    0.028998
      2          6           0       -5.547411    0.996478   -0.675915
      3          6           0       -4.769679   -0.163845   -0.733648
      4          6           0       -3.542721   -0.167761   -0.071945
      5          6           0       -3.068106    0.933693    0.638569
      6          6           0       -3.862534    2.083246    0.682837
      7          1           0       -5.709220    3.015341    0.068616
      8          1           0       -6.506916    1.020735   -1.184645
      9          1           0       -5.092951   -1.046420   -1.272140
     10          1           0       -2.107199    0.879430    1.135691
     11          1           0       -3.511425    2.952868    1.231040
     12          7           0       -2.710534   -1.390442   -0.125938
     13          8           0       -1.633319   -1.368496    0.465470
     14          8           0       -3.151239   -2.347574   -0.758642
     15          6           0        5.186373    0.553896    0.094994
     16          6           0        6.480372    0.316384   -0.684197
     17          6           0        7.422638    1.519918   -0.646288
     18          1           0        4.674810    1.434978   -0.316032
     19          1           0        5.433662    0.794420    1.138254
     20          1           0        6.230659    0.075022   -1.725351
     21          1           0        6.988818   -0.564348   -0.271391
     22          1           0        7.700636    1.759187    0.385248
     23          1           0        6.938170    2.402189   -1.076974
     24          1           0        8.341311    1.328441   -1.209525
     25          6           0        4.234109   -0.640300    0.066406
     26          6           0        2.940110   -0.402788    0.845597
     27          6           0        1.997845   -1.606322    0.807689
     28          1           0        3.986819   -0.880825   -0.976854
     29          1           0        4.745672   -1.521382    0.477433
     30          1           0        2.431664    0.477944    0.432790
     31          1           0        3.189823   -0.161426    1.886752
     32          1           0        2.482312   -2.488593    1.238374
     33          1           0        1.719847   -1.845590   -0.223849
     34          1           0        1.079172   -1.414846    1.370925
 ---------------------------------------------------------------------

 SCF Done:  E(RHF) =  -669.535690953     A.U. after   15 cycles
 E2 =    -0.2090686185D+01 EUMP2 =    -0.67162637713786D+03

 The electronic state is 1-A.
 Alpha  occ. eigenvalues --  -20.60857 -20.60852 -15.85904 -11.31255 -11.27825
 Alpha  occ. eigenvalues --  -11.27820 -11.27565 -11.26838 -11.26828 -11.21219
 Alpha  occ. eigenvalues --  -11.20914 -11.20782 -11.20771 -11.20699 -11.19666
 Alpha  occ. eigenvalues --   -1.59926  -1.39482  -1.19428  -1.08826  -1.07835
 Alpha  occ. eigenvalues --   -1.04829  -1.02844  -0.95667  -0.95250  -0.86265
 Alpha  occ. eigenvalues --   -0.86222  -0.82497  -0.78932  -0.77639  -0.77541
 Alpha  occ. eigenvalues --   -0.72132  -0.71246  -0.70537  -0.65084  -0.64832
 Alpha  occ. eigenvalues --   -0.64477  -0.62177  -0.60251  -0.58664  -0.56860
 Alpha  occ. eigenvalues --   -0.55331  -0.54551  -0.53159  -0.52922  -0.51885
 Alpha  occ. eigenvalues --   -0.51681  -0.49221  -0.48880  -0.48856  -0.47228
 Alpha  occ. eigenvalues --   -0.45999  -0.45169  -0.45105  -0.44876  -0.43066
 Alpha  occ. eigenvalues --   -0.37408  -0.36432
 Alpha virt. eigenvalues --    0.04987   0.11222   0.16479   0.21293   0.23401
 Alpha virt. eigenvalues --    0.24944   0.27146   0.27255   0.27852   0.28125
 Alpha virt. eigenvalues --    0.28970   0.30818   0.31992   0.32141   0.32332

 Mulliken charges:
               1
     1  C   -0.170745
     2  C   -0.218547
     3  C   -0.170820
     4  C    0.157696
     5  C   -0.170672
     6  C   -0.218528
     7  H    0.225843
     8  H    0.223676
     9  H    0.275804
    10  H    0.275361
    11  H    0.223739
    12  N    0.494364
    13  O   -0.465606
    14  O   -0.459603
    15  C   -0.297361
    16  C   -0.299177
    17  C   -0.475283
    18  H    0.147374
    19  H    0.147904
    20  H    0.151735
    21  H    0.151823
    22  H    0.154367
    23  H    0.153970
    24  H    0.159252
    25  C   -0.297450
    26  C   -0.300294
    27  C   -0.476123
    28  H    0.149530
    29  H    0.149031
    30  H    0.146826
    31  H    0.146996
    32  H    0.149189
    33  H    0.159101
    34  H    0.176627
 Sum of Mulliken charges =  -0.00000

 Dipole moment (field-independent basis, Debye):
    X=             -3.1985    Y=              4.2324    Z=              0.1832  Tot=              5.3082
 Quadrupole moment (field-independent basis, Debye-Ang):
   XX=            -73.3306   YY=            -96.1842   ZZ=            -93.1828
   XY=            -14.2084   XZ=              2.2094   YZ=              0.8924

 Normal termination of Gaussian 16 at Thu May  6 09:17:10 2021.
