 Gaussian 16, Revision A.03,
 Gaussian 16:  EM64L-G16RevA.03 25-Dec-2016

 -------------
 #p 6-31g* mp2
 -------------

 ------------------------------------------------------
 Input file generated by CHIRIPA (05-May-2021 14:53:13)
 ------------------------------------------------------
 Symbolic Z-matrix:
 Charge =  0 Multiplicity = 1

                         Standard orientation:
 ---------------------------------------------------------------------
 Center     Atomic      Atomic             Coordinates (Angstroms)
 Number     Number       Type             X           Y           Z
 ---------------------------------------------------------------------
      1          6           0        2.269257   -0.391129   -0.226686
      2          6           0        3.390210   -1.308864   -0.715780
      3          6           0        2.935219   -2.758569   -0.886459
      4          1           0        1.883935   -0.770983    0.729443
      5          1           0        1.433700   -0.432708   -0.939084
      6          1           0        4.223963   -1.264502   -0.003386
      7          1           0        3.773038   -0.926673   -1.670761
      8          1           0        2.118650   -2.823070   -1.612858
      9          1           0        2.572136   -3.162818    0.063991
     10          1           0        3.752146   -3.397139   -1.236770
     11          6           0        2.708659    1.061408   -0.051217
     12          6           0        1.587706    1.979143    0.437876
     13          6           0        2.042697    3.428848    0.608555
     14          1           0        3.544216    1.102987    0.661180
     15          1           0        3.093981    1.441262   -1.007346
     16          1           0        1.204878    1.596952    1.392857
     17          1           0        0.753953    1.934781   -0.274517
     18          1           0        2.405780    3.833098   -0.341894
     19          1           0        2.859266    3.493349    1.334954
     20          1           0        1.225770    4.067418    0.958866
     21          6           0       -1.329529   -2.397813    1.302417
     22          6           0       -1.036687   -1.160647    1.885671
     23          6           0       -1.372839    0.029258    1.233231
     24          6           0       -2.003951   -0.055329   -0.006862
     25          6           0       -2.308942   -1.272637   -0.613846
     26          6           0       -1.963604   -2.449768    0.056716
     27          1           0       -1.064830   -3.317198    1.816287
     28          1           0       -0.544314   -1.117262    2.853003
     29          1           0       -1.157800    1.000539    1.661937
     30          1           0       -2.800381   -1.283899   -1.579133
     31          1           0       -2.192253   -3.409152   -0.398639
     32          7           0       -2.364683    1.197608   -0.707163
     33          8           0       -2.920173    1.096082   -1.798841
     34          8           0       -2.085105    2.257462   -0.151121
 ---------------------------------------------------------------------

 SCF Done:  E(RHF) =  -669.534606215     A.U. after   15 cycles
 E2 =    -0.2095422099D+01 EUMP2 =    -0.67163002831488D+03

 The electronic state is 1-A.
 Alpha  occ. eigenvalues --  -20.60909 -20.60886 -15.85916 -11.31197 -11.27800
 Alpha  occ. eigenvalues --  -11.27744 -11.27530 -11.26775 -11.26759 -11.21719
 Alpha  occ. eigenvalues --  -11.21386 -11.21369 -11.21345 -11.21264 -11.20706
 Alpha  occ. eigenvalues --   -1.59959  -1.39515  -1.19387  -1.08796  -1.08404
 Alpha  occ. eigenvalues --   -1.04785  -1.03486  -0.95932  -0.95642  -0.86962
 Alpha  occ. eigenvalues --   -0.86185  -0.82482  -0.79596  -0.78285  -0.77476
 Alpha  occ. eigenvalues --   -0.72145  -0.71276  -0.70504  -0.65112  -0.64980
 Alpha  occ. eigenvalues --   -0.64795  -0.62155  -0.60887  -0.59303  -0.57534
 Alpha  occ. eigenvalues --   -0.55296  -0.55235  -0.53204  -0.52898  -0.52563
 Alpha  occ. eigenvalues --   -0.52343  -0.49902  -0.48930  -0.48899  -0.47883
 Alpha  occ. eigenvalues --   -0.46642  -0.45790  -0.45738  -0.44704  -0.43719
 Alpha  occ. eigenvalues --   -0.37341  -0.36283
 Alpha virt. eigenvalues --    0.04980   0.11207   0.16359   0.20880   0.22951
 Alpha virt. eigenvalues --    0.24123   0.25899   0.26860   0.27581   0.28115
 Alpha virt. eigenvalues --    0.28616   0.30659   0.31416   0.31723   0.32024

 Mulliken charges:
               1
     1  C   -0.299138
     2  C   -0.299576
     3  C   -0.474065
     4  H    0.146232
     5  H    0.150471
     6  H    0.150920
     7  H    0.153615
     8  H    0.154939
     9  H    0.149380
    10  H    0.160324
    11  C   -0.298375
    12  C   -0.301588
    13  C   -0.475800
    14  H    0.146830
    15  H    0.151497
    16  H    0.136982
    17  H    0.163934
    18  H    0.157006
    19  H    0.150540
    20  H    0.167048
    21  C   -0.169302
    22  C   -0.219658
    23  C   -0.164239
    24  C    0.156029
    25  C   -0.171500
    26  C   -0.218417
    27  H    0.225791
    28  H    0.222893
    29  H    0.278439
    30  H    0.275421
    31  H    0.223614
    32  N    0.487648
    33  O   -0.459411
    34  O   -0.458484
 Sum of Mulliken charges =  -0.00000

 Dipole moment (field-independent basis, Debye):
    X=              1.1248    Y=             -4.3158    Z=              2.3923  Tot=              5.0610
 Quadrupole moment (field-independent basis, Debye-Ang):
   XX=           -100.1655   YY=            -94.2567   ZZ=            -91.4001
   XY=              9.8509   XZ=             -3.3119   YZ=              1.6333

 Normal termination of Gaussian 16 at Thu May  6 08:55:06 2021.
