 Gaussian 16, Revision A.03,
 Gaussian 16:  EM64L-G16RevA.03 25-Dec-2016

 -------------
 #p 6-31g* mp2
 -------------

 ------------------------------------------------------
 Input file generated by CHIRIPA (05-May-2021 14:55:25)
 ------------------------------------------------------
 Symbolic Z-matrix:
 Charge =  0 Multiplicity = 1

                         Standard orientation:
 ---------------------------------------------------------------------
 Center     Atomic      Atomic             Coordinates (Angstroms)
 Number     Number       Type             X           Y           Z
 ---------------------------------------------------------------------
      1          6           0        3.331040    1.366501   -0.554689
      2          6           0        3.419002    0.161553   -1.259590
      3          6           0        2.637055   -0.936528   -0.889017
      4          6           0        1.773915   -0.793970    0.196320
      5          6           0        1.663733    0.393297    0.918503
      6          6           0        2.455230    1.478330    0.530195
      7          1           0        3.942184    2.214449   -0.849448
      8          1           0        4.098293    0.071826   -2.102536
      9          1           0        2.685260   -1.881051   -1.417193
     10          1           0        0.977371    0.452394    1.754465
     11          1           0        2.384833    2.412882    1.079467
     12          7           0        0.941048   -1.949553    0.598017
     13          8           0        0.188397   -1.798338    1.557855
     14          8           0        1.056667   -2.984633   -0.054577
     15          6           0       -1.893837    1.216879    0.117583
     16          6           0       -2.068986    2.696516   -0.225901
     17          6           0       -0.955919    3.572743    0.349515
     18          1           0       -1.862181    1.101786    1.209689
     19          1           0       -0.921703    0.872255   -0.261344
     20          1           0       -3.041099    3.037894    0.152349
     21          1           0       -2.100421    2.808077   -1.317314
     22          1           0        0.019402    3.259933   -0.037137
     23          1           0       -0.926621    3.491055    1.440876
     24          1           0       -1.100865    4.626551    0.091952
     25          6           0       -2.998789    0.328123   -0.450680
     26          6           0       -2.823640   -1.151515   -0.107196
     27          6           0       -3.936706   -2.027741   -0.682611
     28          1           0       -3.970923    0.672747   -0.071753
     29          1           0       -3.030444    0.443215   -1.542786
     30          1           0       -2.792205   -1.263075    0.984217
     31          1           0       -1.851526   -1.492892   -0.485446
     32          1           0       -3.966004   -1.946054   -1.773973
     33          1           0       -4.912027   -1.714931   -0.295960
     34          1           0       -3.791760   -3.081549   -0.425049
 ---------------------------------------------------------------------

 SCF Done:  E(RHF) =  -669.534432452     A.U. after   15 cycles
 E2 =    -0.2095810678D+01 EUMP2 =    -0.67163024312993D+03

 The electronic state is 1-A.
 Alpha  occ. eigenvalues --  -20.60893 -20.60864 -15.85890 -11.31243 -11.27842
 Alpha  occ. eigenvalues --  -11.27803 -11.27577 -11.26825 -11.26792 -11.21620
 Alpha  occ. eigenvalues --  -11.21392 -11.21129 -11.20863 -11.20583 -11.20207
 Alpha  occ. eigenvalues --   -1.59941  -1.39494  -1.19443  -1.08833  -1.08072
 Alpha  occ. eigenvalues --   -1.04837  -1.03136  -0.95678  -0.95650  -0.86708
 Alpha  occ. eigenvalues --   -0.86213  -0.82503  -0.79274  -0.77889  -0.77458
 Alpha  occ. eigenvalues --   -0.72126  -0.71261  -0.70537  -0.65085  -0.64840
 Alpha  occ. eigenvalues --   -0.64706  -0.62179  -0.60545  -0.59077  -0.57216
 Alpha  occ. eigenvalues --   -0.55335  -0.54987  -0.53215  -0.52947  -0.52340
 Alpha  occ. eigenvalues --   -0.52051  -0.49648  -0.48920  -0.48890  -0.47518
 Alpha  occ. eigenvalues --   -0.46300  -0.45648  -0.45194  -0.44527  -0.43381
 Alpha  occ. eigenvalues --   -0.37402  -0.36337
 Alpha virt. eigenvalues --    0.04951   0.11114   0.16331   0.20915   0.23180
 Alpha virt. eigenvalues --    0.24547   0.26155   0.26710   0.27333   0.28446
 Alpha virt. eigenvalues --    0.29407   0.30541   0.31631   0.31850   0.32441

 Mulliken charges:
               1
     1  C   -0.171896
     2  C   -0.218936
     3  C   -0.171079
     4  C    0.156730
     5  C   -0.169229
     6  C   -0.218777
     7  H    0.226301
     8  H    0.223685
     9  H    0.275827
    10  H    0.278321
    11  H    0.226400
    12  N    0.487419
    13  O   -0.456577
    14  O   -0.460441
    15  C   -0.303080
    16  C   -0.297217
    17  C   -0.481787
    18  H    0.150185
    19  H    0.149927
    20  H    0.153003
    21  H    0.151810
    22  H    0.153208
    23  H    0.150814
    24  H    0.160278
    25  C   -0.299211
    26  C   -0.296659
    27  C   -0.476647
    28  H    0.147369
    29  H    0.146253
    30  H    0.163727
    31  H    0.153195
    32  H    0.150541
    33  H    0.150837
    34  H    0.165706
 Sum of Mulliken charges =  -0.00000

 Dipole moment (field-independent basis, Debye):
    X=              3.0175    Y=              3.8779    Z=             -1.3099  Tot=              5.0852
 Quadrupole moment (field-independent basis, Debye-Ang):
   XX=            -84.5607   YY=           -101.1089   ZZ=            -92.3780
   XY=              3.4282   XZ=             -4.7105   YZ=              3.9067

 Normal termination of Gaussian 16 at Wed May  5 22:28:35 2021.
