 Gaussian 16, Revision A.03,
 Gaussian 16:  EM64L-G16RevA.03 25-Dec-2016

 -------------
 #p 6-31g* mp2
 -------------

 ------------------------------------------------------
 Input file generated by CHIRIPA (05-May-2021 14:51:10)
 ------------------------------------------------------
 Symbolic Z-matrix:
 Charge =  0 Multiplicity = 1

                         Standard orientation:
 ---------------------------------------------------------------------
 Center     Atomic      Atomic             Coordinates (Angstroms)
 Number     Number       Type             X           Y           Z
 ---------------------------------------------------------------------
      1          6           0       -3.376803    1.212344   -0.062171
      2          6           0       -1.942475    1.741778   -0.081911
      3          6           0       -1.863231    3.244485    0.188983
      4          1           0       -3.970903    1.753268   -0.811430
      5          1           0       -3.828698    1.434116    0.914560
      6          1           0       -1.492961    1.517846   -1.057825
      7          1           0       -1.351673    1.199397    0.667350
      8          1           0       -2.286546    3.481872    1.170336
      9          1           0       -2.428637    3.802130   -0.564641
     10          1           0       -0.828906    3.601807    0.170232
     11          6           0       -3.472390   -0.288366   -0.331357
     12          6           0       -4.906717   -0.817800   -0.311617
     13          6           0       -4.985961   -2.320508   -0.582511
     14          1           0       -3.020494   -0.510139   -1.308088
     15          1           0       -2.878289   -0.829291    0.417902
     16          1           0       -5.497519   -0.275419   -1.060878
     17          1           0       -5.356231   -0.593868    0.664297
     18          1           0       -4.420555   -2.878153    0.171113
     19          1           0       -4.562646   -2.557895   -1.563864
     20          1           0       -6.020287   -2.677829   -0.563760
     21          6           0        2.910505   -0.435810    0.761084
     22          6           0        1.575394   -1.085381    0.395677
     23          6           0        0.557278   -1.025100    1.534799
     24          1           0        3.322297   -0.933802    1.649554
     25          1           0        2.735689    0.611792    1.042797
     26          1           0        1.752854   -2.131061    0.113406
     27          1           0        1.166825   -0.585912   -0.492139
     28          1           0        0.351040    0.013602    1.812584
     29          1           0        0.940398   -1.540326    2.421570
     30          1           0       -0.389821   -1.495116    1.252047
     31          6           0        3.938687   -0.488167   -0.367556
     32          6           0        5.273798    0.161404   -0.002150
     33          6           0        6.291915    0.101122   -1.141272
     34          1           0        4.113503   -1.535770   -0.649269
     35          1           0        3.526895    0.009824   -1.256025
     36          1           0        5.682367   -0.338065    0.885667
     37          1           0        5.096337    1.207084    0.280122
     38          1           0        5.908794    0.616349   -2.028042
     39          1           0        6.498153   -0.937580   -1.419056
     40          1           0        7.239013    0.571139   -0.858519
 ---------------------------------------------------------------------

 SCF Done:  E(RHF) =  -470.732926491     A.U. after   11 cycles
 E2 =    -0.1583368620D+01 EUMP2 =    -0.47231629511091D+03

 The electronic state is 1-A.
 Alpha  occ. eigenvalues --  -11.21602 -11.21595 -11.21594 -11.21533 -11.21405
 Alpha  occ. eigenvalues --  -11.21390 -11.21345 -11.21330 -11.21083 -11.21072
 Alpha  occ. eigenvalues --  -11.21071 -11.21069  -1.08443  -1.08403  -1.03557
 Alpha  occ. eigenvalues --   -1.03495  -0.95992  -0.95971  -0.87023  -0.86976
 Alpha  occ. eigenvalues --   -0.79633  -0.79552  -0.78250  -0.78221  -0.65132
 Alpha  occ. eigenvalues --   -0.64991  -0.61081  -0.60795  -0.59371  -0.59324
 Alpha  occ. eigenvalues --   -0.57657  -0.57525  -0.55335  -0.55221  -0.52736
 Alpha  occ. eigenvalues --   -0.52626  -0.52454  -0.52353  -0.50066  -0.49827
 Alpha  occ. eigenvalues --   -0.48007  -0.47791  -0.46803  -0.46448  -0.45822
 Alpha  occ. eigenvalues --   -0.45762  -0.45708  -0.45555  -0.43786  -0.43748
 Alpha virt. eigenvalues --    0.21128   0.23068   0.23803   0.24227   0.26041
 Alpha virt. eigenvalues --    0.26394   0.26757   0.27653   0.27934   0.28980
 Alpha virt. eigenvalues --    0.30452   0.31189   0.31766   0.31991   0.32141

 Mulliken charges:
               1
     1  C   -0.297504
     2  C   -0.308534
     3  C   -0.475356
     4  H    0.149429
     5  H    0.149344
     6  H    0.150971
     7  H    0.162422
     8  H    0.155067
     9  H    0.155160
    10  H    0.159302
    11  C   -0.302357
    12  C   -0.299473
    13  C   -0.475699
    14  H    0.149304
    15  H    0.153416
    16  H    0.152006
    17  H    0.151981
    18  H    0.154929
    19  H    0.155176
    20  H    0.160307
    21  C   -0.298501
    22  C   -0.300320
    23  C   -0.481515
    24  H    0.149569
    25  H    0.149548
    26  H    0.151985
    27  H    0.153702
    28  H    0.156882
    29  H    0.155322
    30  H    0.163410
    31  C   -0.298290
    32  C   -0.299648
    33  C   -0.475706
    34  H    0.149533
    35  H    0.149678
    36  H    0.151934
    37  H    0.151914
    38  H    0.155172
    39  H    0.155185
    40  H    0.160256
 Sum of Mulliken charges =  -0.00000

 Dipole moment (field-independent basis, Debye):
    X=              0.0081    Y=             -0.0166    Z=              0.0100  Tot=              0.0211
 Quadrupole moment (field-independent basis, Debye-Ang):
   XX=            -85.4877   YY=            -85.1858   ZZ=            -84.2213
   XY=             -0.5699   XZ=              0.7355   YZ=             -0.6597

 Normal termination of Gaussian 16 at Thu May  6 00:36:15 2021.
