 Gaussian 16, Revision A.03,
 Gaussian 16:  EM64L-G16RevA.03 25-Dec-2016

 -------------
 #p 6-31g* mp2
 -------------

 ------------------------------------------------------
 Input file generated by CHIRIPA (05-May-2021 14:57:25)
 ------------------------------------------------------
 Symbolic Z-matrix:
 Charge =  0 Multiplicity = 1

                         Standard orientation:
 ---------------------------------------------------------------------
 Center     Atomic      Atomic             Coordinates (Angstroms)
 Number     Number       Type             X           Y           Z
 ---------------------------------------------------------------------
      1          6           0       -6.575892   -1.058093    0.585207
      2          6           0       -6.515772    0.261182    0.124317
      3          6           0       -5.292044    0.831248   -0.239085
      4          6           0       -4.142927    0.049836   -0.128560
      5          6           0       -4.170285   -1.267322    0.327111
      6          6           0       -5.405021   -1.816797    0.684957
      7          1           0       -7.530789   -1.492936    0.865349
      8          1           0       -7.423472    0.852760    0.045819
      9          1           0       -5.216789    1.850176   -0.599001
     10          1           0       -3.248438   -1.832188    0.394504
     11          1           0       -5.448701   -2.841616    1.042565
     12          7           0       -2.841594    0.642440   -0.510336
     13          8           0       -1.843579   -0.066963   -0.403797
     14          8           0       -2.844265    1.805105   -0.908883
     15          6           0        2.726028    1.945662    0.386239
     16          6           0        4.065056    2.103154    0.758690
     17          6           0        4.977760    1.058373    0.585621
     18          6           0        4.515118   -0.135643    0.034644
     19          6           0        3.187349   -0.323232   -0.346317
     20          6           0        2.292213    0.735105   -0.164105
     21          1           0        2.023841    2.762537    0.524235
     22          1           0        4.404777    3.042170    1.186340
     23          1           0        6.019986    1.153233    0.865243
     24          1           0        2.878347   -1.271072   -0.770032
     25          1           0        1.252892    0.609957   -0.454269
     26          7           0        5.472057   -1.248881   -0.153416
     27          8           0        5.039437   -2.290863   -0.641012
     28          8           0        6.636607   -1.058376    0.190341
 ---------------------------------------------------------------------

 SCF Done:  E(RHF) =  -868.340840114     A.U. after   16 cycles
 E2 =    -0.2598111976D+01 EUMP2 =    -0.87093895208994D+03

 The electronic state is 1-A.
 Alpha  occ. eigenvalues --  -20.61787 -20.61776 -20.60019 -20.60012 -15.86792
 Alpha  occ. eigenvalues --  -15.85059 -11.31847 -11.30220 -11.28376 -11.28370
 Alpha  occ. eigenvalues --  -11.28059 -11.27321 -11.27307 -11.26789 -11.26658
 Alpha  occ. eigenvalues --  -11.26366 -11.25785 -11.25450  -1.60836  -1.59098
 Alpha  occ. eigenvalues --   -1.40396  -1.38657  -1.19988  -1.18341  -1.09442
 Alpha  occ. eigenvalues --   -1.07765  -1.05343  -1.03688  -0.96329  -0.94646
 Alpha  occ. eigenvalues --   -0.86755  -0.85085  -0.83173  -0.81471  -0.78252
 Alpha  occ. eigenvalues --   -0.76554  -0.73030  -0.72127  -0.71284  -0.71090
 Alpha  occ. eigenvalues --   -0.70417  -0.69436  -0.65645  -0.65341  -0.63974
 Alpha  occ. eigenvalues --   -0.63631  -0.62692  -0.61016  -0.55854  -0.54174
 Alpha  occ. eigenvalues --   -0.53689  -0.53429  -0.52063  -0.51740  -0.49789
 Alpha  occ. eigenvalues --   -0.49755  -0.48052  -0.48015  -0.45865  -0.44109
 Alpha  occ. eigenvalues --   -0.37949  -0.36931  -0.36312  -0.35296
 Alpha virt. eigenvalues --    0.04262   0.05931   0.10729   0.12357   0.15822
 Alpha virt. eigenvalues --    0.17499   0.20900   0.22648   0.26839   0.27735
 Alpha virt. eigenvalues --    0.28654   0.29387   0.30503   0.31898   0.32319

 Mulliken charges:
               1
     1  C   -0.169649
     2  C   -0.218602
     3  C   -0.170357
     4  C    0.157378
     5  C   -0.170353
     6  C   -0.218537
     7  H    0.228042
     8  H    0.225345
     9  H    0.275907
    10  H    0.276059
    11  H    0.226012
    12  N    0.490589
    13  O   -0.468545
    14  O   -0.459558
    15  C   -0.173249
    16  C   -0.218831
    17  C   -0.173589
    18  C    0.158109
    19  C   -0.174202
    20  C   -0.228292
    21  H    0.228045
    22  H    0.219604
    23  H    0.271803
    24  H    0.274292
    25  H    0.250467
    26  N    0.488132
    27  O   -0.462448
    28  O   -0.463570
 Sum of Mulliken charges =  -0.00000

 Dipole moment (field-independent basis, Debye):
    X=             -8.6113    Y=              1.8360    Z=              1.9863  Tot=              9.0261
 Quadrupole moment (field-independent basis, Debye-Ang):
   XX=            -94.6983   YY=           -101.4280   ZZ=           -105.7479
   XY=             27.1080   XZ=             -0.2691   YZ=              0.3095

 Normal termination of Gaussian 16 at Thu May  6 22:52:26 2021.
