 Gaussian 16, Revision A.03,
 Gaussian 16:  EM64L-G16RevA.03 25-Dec-2016

 -------------
 #p 6-31g* mp2
 -------------

 ------------------------------------------------------
 Input file generated by CHIRIPA (05-May-2021 14:55:24)
 ------------------------------------------------------
 Symbolic Z-matrix:
 Charge =  0 Multiplicity = 1

                         Standard orientation:
 ---------------------------------------------------------------------
 Center     Atomic      Atomic             Coordinates (Angstroms)
 Number     Number       Type             X           Y           Z
 ---------------------------------------------------------------------
      1          6           0       -2.810431    2.704039    0.113518
      2          6           0       -1.951916    1.862923    0.829058
      3          6           0       -2.152744    0.479373    0.831601
      4          6           0       -3.226824   -0.031436    0.104473
      5          6           0       -4.099555    0.780510   -0.618282
      6          6           0       -3.879625    2.161105   -0.606599
      7          1           0       -2.647004    3.777666    0.117067
      8          1           0       -1.120751    2.281786    1.389203
      9          1           0       -1.503439   -0.194801    1.376862
     10          1           0       -4.919510    0.333604   -1.167249
     11          1           0       -4.547965    2.811915   -1.163207
     12          7           0       -3.449542   -1.494574    0.099635
     13          8           0       -4.403062   -1.919808   -0.548912
     14          8           0       -2.666373   -2.188443    0.744483
     15          6           0        3.348243   -0.144499   -0.301156
     16          6           0        2.456210   -1.360617   -0.049525
     17          6           0        0.988429   -1.097108   -0.387129
     18          1           0        2.979809    0.702015    0.294339
     19          1           0        3.261265    0.153486   -1.355213
     20          1           0        2.545908   -1.657067    1.003418
     21          1           0        2.826925   -2.204388   -0.645542
     22          1           0        0.878828   -0.823000   -1.441383
     23          1           0        0.596215   -0.272570    0.216945
     24          1           0        0.368717   -1.979569   -0.199835
     25          6           0        4.818457   -0.392350    0.031665
     26          6           0        5.710491    0.823768   -0.219967
     27          6           0        7.178271    0.560259    0.117637
     28          1           0        4.905435   -0.690336    1.085721
     29          1           0        5.186891   -1.238864   -0.563831
     30          1           0        5.339775    1.667539    0.376050
     31          1           0        5.620793    1.120218   -1.272910
     32          1           0        7.570484   -0.264280   -0.486437
     33          1           0        7.287872    0.286152    1.171892
     34          1           0        7.797984    1.442720   -0.069657
 ---------------------------------------------------------------------

 SCF Done:  E(RHF) =  -669.535101500     A.U. after   15 cycles
 E2 =    -0.2092115400D+01 EUMP2 =    -0.67162721690019D+03

 The electronic state is 1-A.
 Alpha  occ. eigenvalues --  -20.60794 -20.60788 -15.85832 -11.31151 -11.27747
 Alpha  occ. eigenvalues --  -11.27705 -11.27491 -11.26746 -11.26736 -11.21731
 Alpha  occ. eigenvalues --  -11.21580 -11.21503 -11.21444 -11.21175 -11.20962
 Alpha  occ. eigenvalues --   -1.59856  -1.39412  -1.19341  -1.08741  -1.08510
 Alpha  occ. eigenvalues --   -1.04750  -1.03578  -0.96039  -0.95576  -0.87061
 Alpha  occ. eigenvalues --   -0.86134  -0.82421  -0.79657  -0.78334  -0.77460
 Alpha  occ. eigenvalues --   -0.72056  -0.71169  -0.70466  -0.65162  -0.64998
 Alpha  occ. eigenvalues --   -0.64752  -0.62148  -0.60961  -0.59369  -0.57627
 Alpha  occ. eigenvalues --   -0.55433  -0.55180  -0.53143  -0.52891  -0.52624
 Alpha  occ. eigenvalues --   -0.52375  -0.49974  -0.48812  -0.48809  -0.47948
 Alpha  occ. eigenvalues --   -0.46692  -0.45872  -0.45800  -0.44837  -0.43788
 Alpha  occ. eigenvalues --   -0.37320  -0.36298
 Alpha virt. eigenvalues --    0.05033   0.11291   0.16455   0.20957   0.22841
 Alpha virt. eigenvalues --    0.24182   0.26236   0.26934   0.27458   0.27913
 Alpha virt. eigenvalues --    0.29201   0.30699   0.31601   0.31836   0.32302

 Mulliken charges:
               1
     1  C   -0.170240
     2  C   -0.219810
     3  C   -0.165915
     4  C    0.156217
     5  C   -0.170925
     6  C   -0.218882
     7  H    0.225538
     8  H    0.222943
     9  H    0.278016
    10  H    0.275450
    11  H    0.223269
    12  N    0.488655
    13  O   -0.460015
    14  O   -0.460935
    15  C   -0.297039
    16  C   -0.300363
    17  C   -0.482254
    18  H    0.144069
    19  H    0.149632
    20  H    0.151878
    21  H    0.154547
    22  H    0.155244
    23  H    0.141543
    24  H    0.178850
    25  C   -0.298262
    26  C   -0.299348
    27  C   -0.475712
    28  H    0.149601
    29  H    0.151137
    30  H    0.149919
    31  H    0.151866
    32  H    0.156051
    33  H    0.155325
    34  H    0.159950
 Sum of Mulliken charges =  -0.00000

 Dipole moment (field-independent basis, Debye):
    X=              0.7391    Y=              5.0464    Z=             -0.0206  Tot=              5.1003
 Quadrupole moment (field-independent basis, Debye-Ang):
   XX=            -98.1651   YY=            -95.3354   ZZ=            -92.7088
   XY=            -17.5684   XZ=              2.3698   YZ=              0.4681

 Normal termination of Gaussian 16 at Wed May  5 20:46:04 2021.
