 Gaussian 16, Revision A.03,
 Gaussian 16:  EM64L-G16RevA.03 25-Dec-2016

 -------------
 #p 6-31g* mp2
 -------------

 ------------------------------------------------------
 Input file generated by CHIRIPA (05-May-2021 14:55:21)
 ------------------------------------------------------
 Symbolic Z-matrix:
 Charge =  0 Multiplicity = 1

                         Standard orientation:
 ---------------------------------------------------------------------
 Center     Atomic      Atomic             Coordinates (Angstroms)
 Number     Number       Type             X           Y           Z
 ---------------------------------------------------------------------
      1          6           0       -0.614071   -1.220988    0.052486
      2          6           0       -0.889158   -0.162613   -0.819690
      3          6           0       -2.166716    0.403038   -0.869016
      4          6           0       -3.149871   -0.116697   -0.028438
      5          6           0       -2.906824   -1.170419    0.851271
      6          6           0       -1.622004   -1.720632    0.883718
      7          1           0        0.381188   -1.654403    0.084247
      8          1           0       -0.108332    0.227445   -1.466382
      9          1           0       -2.407059    1.223069   -1.534750
     10          1           0       -3.705728   -1.537879    1.483840
     11          1           0       -1.411238   -2.542509    1.562054
     12          7           0       -4.506208    0.473961   -0.071722
     13          8           0       -5.355029   -0.001969    0.679032
     14          8           0       -4.694801    1.401663   -0.855582
     15          6           0        3.921864    0.919290    0.396011
     16          6           0        3.153911    2.138715   -0.115102
     17          6           0        3.517196    3.422074    0.632432
     18          1           0        3.720657    0.790198    1.468296
     19          1           0        5.000253    1.107446    0.300773
     20          1           0        2.077273    1.947764   -0.020213
     21          1           0        3.356818    2.264807   -1.186337
     22          1           0        4.584989    3.639850    0.527584
     23          1           0        3.298173    3.321006    1.700335
     24          1           0        2.956671    4.281238    0.250977
     25          6           0        3.569540   -0.371335   -0.341473
     26          6           0        4.337494   -1.590760    0.169640
     27          6           0        3.974208   -2.874119   -0.577894
     28          1           0        2.491152   -0.559492   -0.246234
     29          1           0        3.770747   -0.242243   -1.413758
     30          1           0        4.134586   -1.716852    1.240876
     31          1           0        5.414132   -1.399809    0.074751
     32          1           0        4.193232   -2.773051   -1.645797
     33          1           0        2.906416   -3.091895   -0.473046
     34          1           0        4.534734   -3.733283   -0.196439
 ---------------------------------------------------------------------

 SCF Done:  E(RHF) =  -669.535492789     A.U. after   15 cycles
 E2 =    -0.2092017349D+01 EUMP2 =    -0.67162751013782D+03

 The electronic state is 1-A.
 Alpha  occ. eigenvalues --  -20.60755 -20.60750 -15.85808 -11.31179 -11.27749
 Alpha  occ. eigenvalues --  -11.27743 -11.27473 -11.26761 -11.26742 -11.22626
 Alpha  occ. eigenvalues --  -11.22542 -11.22403 -11.22247 -11.22142 -11.21662
 Alpha  occ. eigenvalues --   -1.59830  -1.39384  -1.19350  -1.09405  -1.08743
 Alpha  occ. eigenvalues --   -1.04752  -1.04425  -0.96876  -0.95581  -0.87885
 Alpha  occ. eigenvalues --   -0.86149  -0.82414  -0.80499  -0.79236  -0.77454
 Alpha  occ. eigenvalues --   -0.72026  -0.71153  -0.70492  -0.66050  -0.64999
 Alpha  occ. eigenvalues --   -0.64735  -0.62097  -0.61821  -0.60249  -0.58484
 Alpha  occ. eigenvalues --   -0.56185  -0.55269  -0.53531  -0.53295  -0.53080
 Alpha  occ. eigenvalues --   -0.52839  -0.50819  -0.48822  -0.48782  -0.48768
 Alpha  occ. eigenvalues --   -0.47536  -0.46747  -0.46666  -0.44788  -0.44695
 Alpha  occ. eigenvalues --   -0.37324  -0.36353
 Alpha virt. eigenvalues --    0.05066   0.11207   0.16525   0.18606   0.22647
 Alpha virt. eigenvalues --    0.22801   0.25020   0.25704   0.26512   0.27913
 Alpha virt. eigenvalues --    0.29247   0.30521   0.31016   0.31298   0.32043

 Mulliken charges:
               1
     1  C   -0.176630
     2  C   -0.222113
     3  C   -0.170931
     4  C    0.158324
     5  C   -0.170628
     6  C   -0.219331
     7  H    0.232480
     8  H    0.226437
     9  H    0.275731
    10  H    0.275560
    11  H    0.223637
    12  N    0.488043
    13  O   -0.460436
    14  O   -0.460394
    15  C   -0.297890
    16  C   -0.302640
    17  C   -0.476105
    18  H    0.151747
    19  H    0.153308
    20  H    0.150281
    21  H    0.151917
    22  H    0.156875
    23  H    0.157251
    24  H    0.162913
    25  C   -0.303550
    26  C   -0.300937
    27  C   -0.476614
    28  H    0.140628
    29  H    0.152199
    30  H    0.152848
    31  H    0.157112
    32  H    0.158673
    33  H    0.147111
    34  H    0.165124
 Sum of Mulliken charges =  -0.00000

 Dipole moment (field-independent basis, Debye):
    X=              5.0084    Y=             -2.0190    Z=              0.1800  Tot=              5.4030
 Quadrupole moment (field-independent basis, Debye-Ang):
   XX=           -123.3805   YY=            -93.2950   ZZ=            -92.4104
   XY=              7.1595   XZ=             -2.3645   YZ=             -3.1283

 Normal termination of Gaussian 16 at Thu May  6 20:44:23 2021.
