 Gaussian 16, Revision A.03,
 Gaussian 16:  EM64L-G16RevA.03 25-Dec-2016

 -------------
 #p 6-31g* mp2
 -------------

 ------------------------------------------------------
 Input file generated by CHIRIPA (05-May-2021 14:53:15)
 ------------------------------------------------------
 Symbolic Z-matrix:
 Charge =  0 Multiplicity = 1

                         Standard orientation:
 ---------------------------------------------------------------------
 Center     Atomic      Atomic             Coordinates (Angstroms)
 Number     Number       Type             X           Y           Z
 ---------------------------------------------------------------------
      1          6           0        3.472416   -0.183665    0.510489
      2          6           0        4.117116   -1.317469   -0.287530
      3          6           0        4.301648   -2.590983    0.538245
      4          1           0        4.092167    0.035047    1.390840
      5          1           0        2.497692   -0.520031    0.890181
      6          1           0        5.089720   -0.978593   -0.666768
      7          1           0        3.495859   -1.533378   -1.166187
      8          1           0        3.336601   -2.955803    0.904567
      9          1           0        4.939519   -2.397865    1.406824
     10          1           0        4.764084   -3.388489   -0.051667
     11          6           0        3.281349    1.096168   -0.301453
     12          6           0        2.636649    2.229972    0.496566
     13          6           0        2.452117    3.503486   -0.329209
     14          1           0        4.256073    1.432534   -0.681145
     15          1           0        2.661598    0.877455   -1.181804
     16          1           0        3.257906    2.445881    1.375223
     17          1           0        1.664045    1.891096    0.875804
     18          1           0        1.814246    3.310368   -1.197788
     19          1           0        3.417164    3.868305   -0.695531
     20          1           0        1.989681    4.300992    0.260703
     21          6           0       -0.638560   -1.831478   -0.519475
     22          6           0       -0.503642   -0.439776   -0.557993
     23          6           0       -1.604773    0.387252   -0.316989
     24          6           0       -2.831506   -0.213846   -0.039328
     25          6           0       -2.997827   -1.597161    0.006155
     26          6           0       -1.883028   -2.404718   -0.238020
     27          1           0        0.222134   -2.466371   -0.707924
     28          1           0        0.461611    0.008181   -0.776319
     29          1           0       -1.528471    1.467550   -0.340539
     30          1           0       -3.972865   -2.014503    0.226483
     31          1           0       -1.990758   -3.485229   -0.207448
     32          7           0       -4.004459    0.651386    0.217491
     33          8           0       -5.074384    0.097163    0.459840
     34          8           0       -3.831684    1.867395    0.171574
 ---------------------------------------------------------------------

 SCF Done:  E(RHF) =  -669.535333004     A.U. after   15 cycles
 E2 =    -0.2092811373D+01 EUMP2 =    -0.67162814437737D+03

 The electronic state is 1-A.
 Alpha  occ. eigenvalues --  -20.60767 -20.60762 -15.85820 -11.31198 -11.27770
 Alpha  occ. eigenvalues --  -11.27761 -11.27511 -11.26784 -11.26738 -11.22630
 Alpha  occ. eigenvalues --  -11.22493 -11.22438 -11.22370 -11.22005 -11.21768
 Alpha  occ. eigenvalues --   -1.59842  -1.39395  -1.19371  -1.09453  -1.08760
 Alpha  occ. eigenvalues --   -1.04775  -1.04453  -0.96894  -0.95596  -0.87900
 Alpha  occ. eigenvalues --   -0.86174  -0.82429  -0.80505  -0.79242  -0.77481
 Alpha  occ. eigenvalues --   -0.72039  -0.71165  -0.70481  -0.66345  -0.65023
 Alpha  occ. eigenvalues --   -0.64615  -0.62173  -0.61780  -0.60245  -0.58485
 Alpha  occ. eigenvalues --   -0.56227  -0.55251  -0.53542  -0.53301  -0.53101
 Alpha  occ. eigenvalues --   -0.52833  -0.50841  -0.48815  -0.48793  -0.48790
 Alpha  occ. eigenvalues --   -0.47570  -0.46772  -0.46721  -0.44798  -0.44719
 Alpha  occ. eigenvalues --   -0.37346  -0.36366
 Alpha virt. eigenvalues --    0.05043   0.11169   0.16468   0.17996   0.21936
 Alpha virt. eigenvalues --    0.23680   0.25310   0.26172   0.26872   0.27698
 Alpha virt. eigenvalues --    0.29899   0.30675   0.31002   0.31238   0.32621

 Mulliken charges:
               1
     1  C   -0.303362
     2  C   -0.300162
     3  C   -0.476126
     4  H    0.155798
     5  H    0.148232
     6  H    0.156849
     7  H    0.145190
     8  H    0.151502
     9  H    0.159717
    10  H    0.162730
    11  C   -0.304312
    12  C   -0.303666
    13  C   -0.476301
    14  H    0.156906
    15  H    0.141410
    16  H    0.157578
    17  H    0.150126
    18  H    0.152259
    19  H    0.158312
    20  H    0.166032
    21  C   -0.175440
    22  C   -0.226061
    23  C   -0.174790
    24  C    0.158983
    25  C   -0.170915
    26  C   -0.218380
    27  H    0.227153
    28  H    0.237620
    29  H    0.276443
    30  H    0.275702
    31  H    0.223603
    32  N    0.488079
    33  O   -0.460469
    34  O   -0.460238
 Sum of Mulliken charges =  -0.00000

 Dipole moment (field-independent basis, Debye):
    X=              4.3429    Y=             -2.9589    Z=             -0.8151  Tot=              5.3179
 Quadrupole moment (field-independent basis, Debye-Ang):
   XX=           -115.0473   YY=            -90.7287   ZZ=            -95.6116
   XY=             11.2253   XZ=              2.4578   YZ=              0.3129

 Normal termination of Gaussian 16 at Thu May  6 04:15:27 2021.
