 Gaussian 16, Revision A.03,
 Gaussian 16:  EM64L-G16RevA.03 25-Dec-2016

 -------------
 #p 6-31g* mp2
 -------------

 ------------------------------------------------------
 Input file generated by CHIRIPA (05-May-2021 14:55:23)
 ------------------------------------------------------
 Symbolic Z-matrix:
 Charge =  0 Multiplicity = 1

                         Standard orientation:
 ---------------------------------------------------------------------
 Center     Atomic      Atomic             Coordinates (Angstroms)
 Number     Number       Type             X           Y           Z
 ---------------------------------------------------------------------
      1          6           0        2.473437   -2.612954    0.788896
      2          6           0        1.281415   -1.946295    0.486949
      3          6           0        1.304569   -0.637216   -0.003280
      4          6           0        2.542988   -0.022172   -0.180279
      5          6           0        3.747775   -0.659916    0.111373
      6          6           0        3.700648   -1.968772    0.600476
      7          1           0        2.446139   -3.629791    1.169281
      8          1           0        0.326892   -2.444099    0.632286
      9          1           0        0.396876   -0.097760   -0.245142
     10          1           0        4.683973   -0.137592   -0.043962
     11          1           0        4.627974   -2.484061    0.834123
     12          7           0        2.580190    1.363574   -0.698666
     13          8           0        3.684170    1.883403   -0.845776
     14          8           0        1.504663    1.903653   -0.948053
     15          6           0       -2.630489    0.713351    0.342680
     16          6           0       -2.927841    2.178049    0.665521
     17          6           0       -1.684210    2.950399    1.106715
     18          1           0       -2.192300    0.231180    1.227240
     19          1           0       -1.869037    0.666719   -0.448149
     20          1           0       -3.689513    2.221913    1.454538
     21          1           0       -3.365551    2.656741   -0.219849
     22          1           0       -0.922829    2.936386    0.320138
     23          1           0       -1.248633    2.499087    2.004038
     24          1           0       -1.919559    3.995146    1.332493
     25          6           0       -3.863864   -0.071919   -0.099884
     26          6           0       -3.566512   -1.536618   -0.422725
     27          6           0       -4.810143   -2.308968   -0.863919
     28          1           0       -4.625316   -0.025287    0.690945
     29          1           0       -4.302054    0.410252   -0.984444
     30          1           0       -3.128803   -2.015309    0.462646
     31          1           0       -2.804840   -1.580481   -1.211742
     32          1           0       -5.245721   -1.857655   -1.761243
     33          1           0       -5.571523   -2.294954   -0.077342
     34          1           0       -4.574793   -3.353714   -1.089697
 ---------------------------------------------------------------------

 SCF Done:  E(RHF) =  -669.536136750     A.U. after   15 cycles
 E2 =    -0.2092580773D+01 EUMP2 =    -0.67162871752321D+03

 The electronic state is 1-A.
 Alpha  occ. eigenvalues --  -20.60838 -20.60827 -15.85872 -11.31145 -11.27728
 Alpha  occ. eigenvalues --  -11.27655 -11.27462 -11.26731 -11.26694 -11.22120
 Alpha  occ. eigenvalues --  -11.21690 -11.21630 -11.21460 -11.21419 -11.20413
 Alpha  occ. eigenvalues --   -1.59896  -1.39454  -1.19320  -1.08736  -1.08644
 Alpha  occ. eigenvalues --   -1.04709  -1.03600  -0.96018  -0.95583  -0.87039
 Alpha  occ. eigenvalues --   -0.86115  -0.82418  -0.79712  -0.78517  -0.77439
 Alpha  occ. eigenvalues --   -0.72101  -0.71208  -0.70438  -0.65282  -0.64975
 Alpha  occ. eigenvalues --   -0.64705  -0.62068  -0.60976  -0.59455  -0.57640
 Alpha  occ. eigenvalues --   -0.55301  -0.55205  -0.53051  -0.52862  -0.52694
 Alpha  occ. eigenvalues --   -0.52383  -0.49959  -0.48863  -0.48840  -0.47987
 Alpha  occ. eigenvalues --   -0.46748  -0.45971  -0.45871  -0.44838  -0.43893
 Alpha  occ. eigenvalues --   -0.37309  -0.36309
 Alpha virt. eigenvalues --    0.05027   0.11333   0.16505   0.20143   0.22957
 Alpha virt. eigenvalues --    0.23868   0.25123   0.25627   0.27963   0.28291
 Alpha virt. eigenvalues --    0.30295   0.30472   0.31518   0.31676   0.32439

 Mulliken charges:
               1
     1  C   -0.170332
     2  C   -0.224596
     3  C   -0.177938
     4  C    0.156465
     5  C   -0.169899
     6  C   -0.219269
     7  H    0.225474
     8  H    0.225566
     9  H    0.289998
    10  H    0.275339
    11  H    0.223203
    12  N    0.490053
    13  O   -0.459307
    14  O   -0.464779
    15  C   -0.308118
    16  C   -0.298086
    17  C   -0.487592
    18  H    0.144495
    19  H    0.153358
    20  H    0.150008
    21  H    0.154066
    22  H    0.181831
    23  H    0.149462
    24  H    0.159758
    25  C   -0.296506
    26  C   -0.301366
    27  C   -0.475372
    28  H    0.151257
    29  H    0.153438
    30  H    0.145507
    31  H    0.149801
    32  H    0.158172
    33  H    0.156698
    34  H    0.159212
 Sum of Mulliken charges =  -0.00000

 Dipole moment (field-independent basis, Debye):
    X=             -0.1567    Y=             -4.7413    Z=              1.7389  Tot=              5.0525
 Quadrupole moment (field-independent basis, Debye-Ang):
   XX=            -90.6938   YY=            -95.3277   ZZ=            -95.5844
   XY=            -13.1905   XZ=              4.8309   YZ=              0.1532

 Normal termination of Gaussian 16 at Wed May  5 19:06:56 2021.
