 Gaussian 16, Revision A.03,
 Gaussian 16:  EM64L-G16RevA.03 25-Dec-2016

 -------------
 #p 6-31g* mp2
 -------------

 ------------------------------------------------------
 Input file generated by CHIRIPA (05-May-2021 14:51:08)
 ------------------------------------------------------
 Symbolic Z-matrix:
 Charge =  0 Multiplicity = 1

                         Standard orientation:
 ---------------------------------------------------------------------
 Center     Atomic      Atomic             Coordinates (Angstroms)
 Number     Number       Type             X           Y           Z
 ---------------------------------------------------------------------
      1          6           0       -3.943800    0.318559   -0.168487
      2          6           0       -5.386735   -0.182597   -0.237529
      3          6           0       -6.292318    0.734468   -1.060149
      4          1           0       -3.933545    1.329029    0.262547
      5          1           0       -3.545489    0.409788   -1.188498
      6          1           0       -5.781749   -0.274173    0.782370
      7          1           0       -5.393537   -1.192068   -0.668272
      8          1           0       -5.924865    0.817524   -2.088099
      9          1           0       -6.315282    1.740634   -0.629215
     10          1           0       -7.319138    0.357386   -1.096341
     11          6           0       -3.026277   -0.587647    0.650457
     12          6           0       -1.583342   -0.086490    0.719498
     13          6           0       -0.677759   -1.003555    1.542118
     14          1           0       -3.424587   -0.678875    1.670467
     15          1           0       -3.036532   -1.598117    0.219423
     16          1           0       -1.576539    0.922980    1.150241
     17          1           0       -1.188328    0.005086   -0.300401
     18          1           0       -0.654795   -2.009721    1.111184
     19          1           0       -1.045212   -1.086611    2.570068
     20          1           0        0.349061   -0.626473    1.578310
     21          6           0        3.113360   -0.530989   -0.289492
     22          6           0        4.041162   -1.731014   -0.482134
     23          6           0        3.282823   -3.055264   -0.577415
     24          1           0        2.516322   -0.679578    0.620679
     25          1           0        2.402349   -0.488047   -1.126161
     26          1           0        4.751104   -1.770875    0.353935
     27          1           0        4.636198   -1.579463   -1.391849
     28          1           0        2.586584   -3.040572   -1.422186
     29          1           0        2.702143   -3.233072    0.333516
     30          1           0        3.965324   -3.899741   -0.714929
     31          6           0        3.856716    0.800077   -0.192477
     32          6           0        2.928914    2.000102    0.000164
     33          6           0        3.687254    3.324351    0.095447
     34          1           0        4.567728    0.757134    0.644191
     35          1           0        4.453754    0.948665   -1.102648
     36          1           0        2.333879    1.848550    0.909879
     37          1           0        2.218974    2.039963   -0.835904
     38          1           0        4.267934    3.502160   -0.815485
     39          1           0        4.383493    3.309659    0.940216
     40          1           0        3.004753    4.168829    0.232959
 ---------------------------------------------------------------------

 SCF Done:  E(RHF) =  -470.733261494     A.U. after   11 cycles
 E2 =    -0.1582860065D+01 EUMP2 =    -0.47231612155877D+03

 The electronic state is 1-A.
 Alpha  occ. eigenvalues --  -11.21611 -11.21595 -11.21590 -11.21567 -11.21399
 Alpha  occ. eigenvalues --  -11.21386 -11.21337 -11.21326 -11.21076 -11.21064
 Alpha  occ. eigenvalues --  -11.21056 -11.21019  -1.08438  -1.08403  -1.03528
 Alpha  occ. eigenvalues --   -1.03504  -0.95992  -0.95944  -0.87011  -0.86960
 Alpha  occ. eigenvalues --   -0.79612  -0.79548  -0.78250  -0.78220  -0.65075
 Alpha  occ. eigenvalues --   -0.65038  -0.60935  -0.60891  -0.59373  -0.59318
 Alpha  occ. eigenvalues --   -0.57679  -0.57484  -0.55267  -0.55242  -0.52753
 Alpha  occ. eigenvalues --   -0.52642  -0.52444  -0.52296  -0.49916  -0.49899
 Alpha  occ. eigenvalues --   -0.47943  -0.47863  -0.46635  -0.46593  -0.45787
 Alpha  occ. eigenvalues --   -0.45757  -0.45719  -0.45656  -0.43790  -0.43697
 Alpha virt. eigenvalues --    0.21232   0.23125   0.23977   0.24193   0.25696
 Alpha virt. eigenvalues --    0.26395   0.26879   0.27535   0.28049   0.29299
 Alpha virt. eigenvalues --    0.30940   0.31505   0.31668   0.31847   0.32166

 Mulliken charges:
               1
     1  C   -0.298194
     2  C   -0.299628
     3  C   -0.475684
     4  H    0.149607
     5  H    0.149392
     6  H    0.151905
     7  H    0.151934
     8  H    0.155123
     9  H    0.155153
    10  H    0.160217
    11  C   -0.298537
    12  C   -0.298909
    13  C   -0.481546
    14  H    0.149405
    15  H    0.149655
    16  H    0.151722
    17  H    0.152326
    18  H    0.155404
    19  H    0.154416
    20  H    0.165594
    21  C   -0.304674
    22  C   -0.299110
    23  C   -0.476053
    24  H    0.156414
    25  H    0.149284
    26  H    0.151822
    27  H    0.151833
    28  H    0.154807
    29  H    0.156114
    30  H    0.160127
    31  C   -0.297957
    32  C   -0.300390
    33  C   -0.475696
    34  H    0.149368
    35  H    0.149681
    36  H    0.152045
    37  H    0.152234
    38  H    0.155280
    39  H    0.155177
    40  H    0.160338
 Sum of Mulliken charges =  -0.00000

 Dipole moment (field-independent basis, Debye):
    X=              0.0142    Y=              0.0014    Z=             -0.0024  Tot=              0.0145
 Quadrupole moment (field-independent basis, Debye-Ang):
   XX=            -85.5752   YY=            -85.8851   ZZ=            -83.3692
   XY=             -0.1158   XZ=             -0.5675   YZ=              0.5715

 Normal termination of Gaussian 16 at Wed May  5 16:35:39 2021.
