 Gaussian 16, Revision A.03,
 Gaussian 16:  EM64L-G16RevA.03 25-Dec-2016

 -------------
 #p 6-31g* mp2
 -------------

 ------------------------------------------------------
 Input file generated by CHIRIPA (05-May-2021 14:51:10)
 ------------------------------------------------------
 Symbolic Z-matrix:
 Charge =  0 Multiplicity = 1

                         Standard orientation:
 ---------------------------------------------------------------------
 Center     Atomic      Atomic             Coordinates (Angstroms)
 Number     Number       Type             X           Y           Z
 ---------------------------------------------------------------------
      1          6           0        3.612970    0.700021    0.142355
      2          6           0        3.074067    2.117491   -0.053470
      3          6           0        4.039423    3.191574    0.448752
      4          1           0        3.821524    0.537941    1.208742
      5          1           0        4.573877    0.604860   -0.382047
      6          1           0        2.113790    2.209535    0.469993
      7          1           0        2.866591    2.276151   -1.119489
      8          1           0        4.995412    3.128483   -0.081064
      9          1           0        4.238334    3.061488    1.517449
     10          1           0        3.634284    4.197210    0.299020
     11          6           0        2.659177   -0.384785   -0.354839
     12          6           0        3.198081   -1.802255   -0.159014
     13          6           0        2.232724   -2.876338   -0.661236
     14          1           0        1.698271   -0.289624    0.169563
     15          1           0        2.450624   -0.222705   -1.421226
     16          1           0        3.405556   -1.960915    0.907005
     17          1           0        4.158357   -1.894299   -0.682477
     18          1           0        2.033813   -2.746252   -1.729933
     19          1           0        1.276735   -2.813247   -0.131420
     20          1           0        2.637863   -3.881974   -0.511504
     21          6           0       -3.353029    0.535847    0.341758
     22          6           0       -4.149827    1.311010   -0.708109
     23          6           0       -4.576747    2.696426   -0.222151
     24          1           0       -3.959039    0.435833    1.252634
     25          1           0       -2.463638    1.117864    0.620389
     26          1           0       -5.036724    0.727076   -0.985692
     27          1           0       -3.541924    1.409025   -1.616659
     28          1           0       -3.701192    3.300648    0.036542
     29          1           0       -5.204485    2.614823    0.671094
     30          1           0       -5.144978    3.233120   -0.988267
     31          6           0       -2.919118   -0.851084   -0.129274
     32          6           0       -2.122320   -1.626246    0.920593
     33          6           0       -1.695401   -3.011663    0.434635
     34          1           0       -3.808509   -1.433100   -0.407905
     35          1           0       -2.313109   -0.751069   -1.040150
     36          1           0       -2.730223   -1.724261    1.829143
     37          1           0       -1.235424   -1.042312    1.198176
     38          1           0       -1.067662   -2.930060   -0.458610
     39          1           0       -2.570955   -3.615883    0.175942
     40          1           0       -1.127169   -3.548357    1.200750
 ---------------------------------------------------------------------

 SCF Done:  E(RHF) =  -470.733043455     A.U. after   11 cycles
 E2 =    -0.1582955125D+01 EUMP2 =    -0.47231599858004D+03

 The electronic state is 1-A.
 Alpha  occ. eigenvalues --  -11.21639 -11.21634 -11.21603 -11.21593 -11.21434
 Alpha  occ. eigenvalues --  -11.21414 -11.21374 -11.21354 -11.21094 -11.21072
 Alpha  occ. eigenvalues --  -11.21055 -11.20989  -1.08456  -1.08434  -1.03570
 Alpha  occ. eigenvalues --   -1.03510  -0.96041  -0.95937  -0.87082  -0.86931
 Alpha  occ. eigenvalues --   -0.79662  -0.79547  -0.78266  -0.78253  -0.65152
 Alpha  occ. eigenvalues --   -0.65009  -0.61110  -0.60795  -0.59363  -0.59346
 Alpha  occ. eigenvalues --   -0.57632  -0.57579  -0.55503  -0.55077  -0.52729
 Alpha  occ. eigenvalues --   -0.52657  -0.52473  -0.52330  -0.50152  -0.49688
 Alpha  occ. eigenvalues --   -0.48001  -0.47826  -0.46707  -0.46520  -0.45878
 Alpha  occ. eigenvalues --   -0.45778  -0.45710  -0.45650  -0.43803  -0.43785
 Alpha virt. eigenvalues --    0.20552   0.23282   0.23540   0.25026   0.25724
 Alpha virt. eigenvalues --    0.26651   0.27009   0.27459   0.28531   0.29068
 Alpha virt. eigenvalues --    0.30936   0.31290   0.31618   0.31760   0.32162

 Mulliken charges:
               1
     1  C   -0.298232
     2  C   -0.299585
     3  C   -0.475717
     4  H    0.149798
     5  H    0.149802
     6  H    0.151434
     7  H    0.151877
     8  H    0.155304
     9  H    0.155297
    10  H    0.160285
    11  C   -0.299609
    12  C   -0.299187
    13  C   -0.483660
    14  H    0.149633
    15  H    0.149439
    16  H    0.151771
    17  H    0.151787
    18  H    0.153917
    19  H    0.165521
    20  H    0.160160
    21  C   -0.298250
    22  C   -0.299694
    23  C   -0.475729
    24  H    0.149583
    25  H    0.149333
    26  H    0.151936
    27  H    0.152154
    28  H    0.155225
    29  H    0.155129
    30  H    0.160288
    31  C   -0.298439
    32  C   -0.301805
    33  C   -0.480224
    34  H    0.149685
    35  H    0.150494
    36  H    0.152302
    37  H    0.152055
    38  H    0.159988
    39  H    0.155907
    40  H    0.160028
 Sum of Mulliken charges =  -0.00000

 Dipole moment (field-independent basis, Debye):
    X=             -0.0173    Y=             -0.0146    Z=             -0.0046  Tot=              0.0231
 Quadrupole moment (field-independent basis, Debye-Ang):
   XX=            -84.3469   YY=            -86.4387   ZZ=            -83.9472
   XY=              0.2883   XZ=             -0.7951   YZ=             -0.6866

 Normal termination of Gaussian 16 at Wed May  5 19:47:23 2021.
