 Gaussian 16, Revision A.03,
 Gaussian 16:  EM64L-G16RevA.03 25-Dec-2016

 -------------
 #p 6-31g* mp2
 -------------

 ------------------------------------------------------
 Input file generated by CHIRIPA (05-May-2021 14:53:17)
 ------------------------------------------------------
 Symbolic Z-matrix:
 Charge =  0 Multiplicity = 1

                         Standard orientation:
 ---------------------------------------------------------------------
 Center     Atomic      Atomic             Coordinates (Angstroms)
 Number     Number       Type             X           Y           Z
 ---------------------------------------------------------------------
      1          6           0        3.643046    0.945076    0.301900
      2          6           0        3.099451    2.160313   -0.450224
      3          6           0        3.284464    3.465893    0.323742
      4          1           0        3.140670    0.869871    1.276019
      5          1           0        4.710459    1.099858    0.511825
      6          1           0        2.033708    2.002677   -0.659884
      7          1           0        3.603043    2.232522   -1.422745
      8          1           0        4.345595    3.650105    0.520385
      9          1           0        2.767342    3.418953    1.287580
     10          1           0        2.888894    4.321664   -0.232172
     11          6           0        3.465400   -0.367601   -0.459052
     12          6           0        4.008995   -1.582838    0.293072
     13          6           0        3.823983   -2.888418   -0.480894
     14          1           0        2.397988   -0.522383   -0.668977
     15          1           0        3.967777   -0.292396   -1.433170
     16          1           0        3.505403   -1.655047    1.265593
     17          1           0        5.074739   -1.425202    0.502732
     18          1           0        4.341104   -2.841478   -1.444732
     19          1           0        2.762852   -3.072630   -0.677537
     20          1           0        4.219552   -3.744189    0.075020
     21          6           0       -5.109336    0.598240   -0.434832
     22          6           0       -4.203556    0.389462   -1.480057
     23          6           0       -2.908534   -0.066805   -1.216831
     24          6           0       -2.551230   -0.305220    0.109360
     25          6           0       -3.430913   -0.106760    1.172403
     26          6           0       -4.720808    0.349899    0.885734
     27          1           0       -6.113349    0.952831   -0.648418
     28          1           0       -4.502536    0.581493   -2.506594
     29          1           0       -2.187221   -0.236861   -2.006897
     30          1           0       -3.103839   -0.306970    2.185496
     31          1           0       -5.422143    0.511156    1.699473
     32          7           0       -1.182962   -0.788458    0.400435
     33          8           0       -0.892691   -0.991085    1.577432
     34          8           0       -0.426693   -0.955442   -0.553930
 ---------------------------------------------------------------------

 SCF Done:  E(RHF) =  -669.536702420     A.U. after   15 cycles
 E2 =    -0.2091306197D+01 EUMP2 =    -0.67162800861735D+03

 The electronic state is 1-A.
 Alpha  occ. eigenvalues --  -20.61117 -20.61100 -15.86127 -11.31387 -11.27940
 Alpha  occ. eigenvalues --  -11.27937 -11.27668 -11.26933 -11.26924 -11.20617
 Alpha  occ. eigenvalues --  -11.20323 -11.20154 -11.20130 -11.19710 -11.19704
 Alpha  occ. eigenvalues --   -1.60162  -1.39719  -1.19548  -1.08964  -1.07110
 Alpha  occ. eigenvalues --   -1.04934  -1.02332  -0.95816  -0.94783  -0.86337
 Alpha  occ. eigenvalues --   -0.85811  -0.82652  -0.78422  -0.77713  -0.76878
 Alpha  occ. eigenvalues --   -0.72348  -0.71469  -0.70656  -0.65205  -0.64937
 Alpha  occ. eigenvalues --   -0.63717  -0.62281  -0.59720  -0.58188  -0.56398
 Alpha  occ. eigenvalues --   -0.55441  -0.54057  -0.53269  -0.53025  -0.51552
 Alpha  occ. eigenvalues --   -0.51221  -0.49172  -0.49103  -0.48675  -0.46743
 Alpha  occ. eigenvalues --   -0.45445  -0.45185  -0.44453  -0.44158  -0.42541
 Alpha  occ. eigenvalues --   -0.37523  -0.36532
 Alpha virt. eigenvalues --    0.04798   0.11124   0.16299   0.21259   0.24162
 Alpha virt. eigenvalues --    0.25494   0.27191   0.27844   0.28236   0.28860
 Alpha virt. eigenvalues --    0.29177   0.30872   0.32380   0.32533   0.32768

 Mulliken charges:
               1
     1  C   -0.297372
     2  C   -0.299018
     3  C   -0.475028
     4  H    0.152768
     5  H    0.143626
     6  H    0.153644
     7  H    0.148364
     8  H    0.153339
     9  H    0.154495
    10  H    0.155412
    11  C   -0.311488
    12  C   -0.297477
    13  C   -0.477445
    14  H    0.179928
    15  H    0.140763
    16  H    0.156801
    17  H    0.144174
    18  H    0.149142
    19  H    0.165316
    20  H    0.154502
    21  C   -0.170345
    22  C   -0.218545
    23  C   -0.170700
    24  C    0.157528
    25  C   -0.170437
    26  C   -0.218599
    27  H    0.226382
    28  H    0.224237
    29  H    0.276086
    30  H    0.275994
    31  H    0.224160
    32  N    0.490042
    33  O   -0.458591
    34  O   -0.461658
 Sum of Mulliken charges =  -0.00000

 Dipole moment (field-independent basis, Debye):
    X=             -5.2701    Y=              1.5983    Z=             -0.9868  Tot=              5.5949
 Quadrupole moment (field-independent basis, Debye-Ang):
   XX=            -71.1785   YY=            -98.4591   ZZ=            -90.2344
   XY=             -3.0543   XZ=              0.6879   YZ=             -0.1535

 Normal termination of Gaussian 16 at Thu May  6 05:58:38 2021.
