 Gaussian 16, Revision A.03,
 Gaussian 16:  EM64L-G16RevA.03 25-Dec-2016

 -------------
 #p 6-31g* mp2
 -------------

 ------------------------------------------------------
 Input file generated by CHIRIPA (05-May-2021 14:57:23)
 ------------------------------------------------------
 Symbolic Z-matrix:
 Charge =  0 Multiplicity = 1

                         Standard orientation:
 ---------------------------------------------------------------------
 Center     Atomic      Atomic             Coordinates (Angstroms)
 Number     Number       Type             X           Y           Z
 ---------------------------------------------------------------------
      1          6           0       -3.392097   -2.104238   -0.023651
      2          6           0       -2.092318   -1.739515   -0.389810
      3          6           0       -1.712182   -0.394332   -0.412805
      4          6           0       -2.661578    0.564310   -0.062174
      5          6           0       -3.964221    0.232560    0.307086
      6          6           0       -4.322260   -1.118774    0.323017
      7          1           0       -3.678813   -3.151597   -0.008531
      8          1           0       -1.367846   -2.502693   -0.659521
      9          1           0       -0.712679   -0.084065   -0.692350
     10          1           0       -4.664335    1.015943    0.570843
     11          1           0       -5.332392   -1.399097    0.607792
     12          7           0       -2.270841    1.991650   -0.082779
     13          8           0       -3.125897    2.817127    0.230437
     14          8           0       -1.116924    2.257896   -0.411755
     15          6           0        3.766155    1.969615    0.055504
     16          6           0        3.480457    1.332289    1.267408
     17          6           0        2.904138    0.058628    1.281222
     18          6           0        2.625415   -0.551295    0.059095
     19          6           0        2.898304    0.057784   -1.164770
     20          6           0        3.474680    1.331453   -1.154585
     21          1           0        4.213876    2.959030    0.054095
     22          1           0        3.705739    1.825498    2.208704
     23          1           0        2.672585   -0.457627    2.204956
     24          1           0        2.662347   -0.459107   -2.087031
     25          1           0        3.695469    1.824014   -2.097283
     26          7           0        2.015262   -1.899668    0.061014
     27          8           0        1.779317   -2.415706   -1.029248
     28          8           0        1.784521   -2.414953    1.152746
 ---------------------------------------------------------------------

 SCF Done:  E(RHF) =  -868.340712596     A.U. after   16 cycles
 E2 =    -0.2599838393D+01 EUMP2 =    -0.87094055098901D+03

 The electronic state is 1-A.
 Alpha  occ. eigenvalues --  -20.61421 -20.61386 -20.60526 -20.60514 -15.86407
 Alpha  occ. eigenvalues --  -15.85561 -11.31318 -11.30680 -11.27838 -11.27805
 Alpha  occ. eigenvalues --  -11.27432 -11.27216 -11.27140 -11.26815 -11.26704
 Alpha  occ. eigenvalues --  -11.26694 -11.26207 -11.25941  -1.60485  -1.59602
 Alpha  occ. eigenvalues --   -1.40040  -1.39162  -1.19427  -1.18793  -1.08907
 Alpha  occ. eigenvalues --   -1.08228  -1.04752  -1.04136  -0.95818  -0.95120
 Alpha  occ. eigenvalues --   -0.86182  -0.85544  -0.82668  -0.81946  -0.77774
 Alpha  occ. eigenvalues --   -0.77038  -0.72625  -0.71855  -0.71754  -0.70919
 Alpha  occ. eigenvalues --   -0.70521  -0.69894  -0.65080  -0.64754  -0.64430
 Alpha  occ. eigenvalues --   -0.64096  -0.62120  -0.61470  -0.55259  -0.54640
 Alpha  occ. eigenvalues --   -0.53101  -0.52847  -0.52501  -0.52175  -0.49413
 Alpha  occ. eigenvalues --   -0.49351  -0.48558  -0.48518  -0.45530  -0.44624
 Alpha  occ. eigenvalues --   -0.37347  -0.36755  -0.36307  -0.35727
 Alpha virt. eigenvalues --    0.04673   0.05455   0.11291   0.11925   0.16286
 Alpha virt. eigenvalues --    0.17032   0.21466   0.22099   0.27295   0.27576
 Alpha virt. eigenvalues --    0.28464   0.28765   0.31205   0.31809   0.32426

 Mulliken charges:
               1
     1  C   -0.171399
     2  C   -0.221272
     3  C   -0.175956
     4  C    0.158000
     5  C   -0.173016
     6  C   -0.218328
     7  H    0.226707
     8  H    0.244774
     9  H    0.270027
    10  H    0.272659
    11  H    0.221311
    12  N    0.487948
    13  O   -0.462445
    14  O   -0.464786
    15  C   -0.165228
    16  C   -0.215606
    17  C   -0.169358
    18  C    0.153809
    19  C   -0.172669
    20  C   -0.213332
    21  H    0.228741
    22  H    0.225313
    23  H    0.274922
    24  H    0.273783
    25  H    0.225820
    26  N    0.486476
    27  O   -0.468859
    28  O   -0.458036
 Sum of Mulliken charges =  -0.00000

 Dipole moment (field-independent basis, Debye):
    X=              1.0893    Y=             -0.2407    Z=              0.1192  Tot=              1.1219
 Quadrupole moment (field-independent basis, Debye-Ang):
   XX=            -82.4730   YY=           -116.2982   ZZ=           -100.0865
   XY=             24.0909   XZ=             -1.4032   YZ=              1.0328

 Normal termination of Gaussian 16 at Thu May  6 08:11:39 2021.
