 Gaussian 16, Revision A.03,
 Gaussian 16:  EM64L-G16RevA.03 25-Dec-2016

 -------------
 #p 6-31g* mp2
 -------------

 ------------------------------------------------------
 Input file generated by CHIRIPA (05-May-2021 14:57:27)
 ------------------------------------------------------
 Symbolic Z-matrix:
 Charge =  0 Multiplicity = 1

                         Standard orientation:
 ---------------------------------------------------------------------
 Center     Atomic      Atomic             Coordinates (Angstroms)
 Number     Number       Type             X           Y           Z
 ---------------------------------------------------------------------
      1          6           0        6.703261    0.447688    0.013646
      2          6           0        6.237857   -0.588025    0.830481
      3          6           0        4.886434   -0.945990    0.822433
      4          6           0        4.024284   -0.243935   -0.018463
      5          6           0        4.457570    0.792559   -0.843832
      6          6           0        5.813201    1.133465   -0.819435
      7          1           0        7.754713    0.719138    0.026248
      8          1           0        6.926811   -1.122347    1.478468
      9          1           0        4.499304   -1.743756    1.444620
     10          1           0        3.746775    1.306878   -1.479178
     11          1           0        6.171827    1.938238   -1.454867
     12          7           0        2.591366   -0.613866   -0.035637
     13          8           0        1.852083    0.020112   -0.785416
     14          8           0        2.234659   -1.530793    0.701007
     15          6           0       -1.979293    1.248665    0.178559
     16          6           0       -3.087646    1.875309    0.757687
     17          6           0       -4.356311    1.293960    0.673599
     18          6           0       -4.480981    0.079938   -0.000119
     19          6           0       -3.395943   -0.568941   -0.587436
     20          6           0       -2.136701    0.030688   -0.490974
     21          1           0       -0.997424    1.707371    0.248686
     22          1           0       -2.968376    2.821256    1.278270
     23          1           0       -5.231341    1.757438    1.112838
     24          1           0       -3.546180   -1.511397   -1.099902
     25          1           0       -1.277719   -0.458242   -0.941687
     26          7           0       -5.819071   -0.545186   -0.095688
     27          8           0       -5.902443   -1.615171   -0.694703
     28          8           0       -6.759157    0.046664    0.430227
 ---------------------------------------------------------------------

 SCF Done:  E(RHF) =  -868.340983400     A.U. after   16 cycles
 E2 =    -0.2598331920D+01 EUMP2 =    -0.87093931531974D+03

 The electronic state is 1-A.
 Alpha  occ. eigenvalues --  -20.62000 -20.61967 -20.59879 -20.59869 -15.86985
 Alpha  occ. eigenvalues --  -15.84918 -11.32026 -11.30056 -11.28566 -11.28534
 Alpha  occ. eigenvalues --  -11.28226 -11.27493 -11.27473 -11.26638 -11.26500
 Alpha  occ. eigenvalues --  -11.26152 -11.25616 -11.25277  -1.61034  -1.58956
 Alpha  occ. eigenvalues --   -1.40595  -1.38516  -1.20165  -1.18174  -1.09620
 Alpha  occ. eigenvalues --   -1.07586  -1.05516  -1.03529  -0.96510  -0.94473
 Alpha  occ. eigenvalues --   -0.86929  -0.84913  -0.83353  -0.81313  -0.78436
 Alpha  occ. eigenvalues --   -0.76409  -0.73221  -0.72325  -0.71264  -0.71142
 Alpha  occ. eigenvalues --   -0.70276  -0.69234  -0.65820  -0.65513  -0.63803
 Alpha  occ. eigenvalues --   -0.63472  -0.62865  -0.60866  -0.56024  -0.53967
 Alpha  occ. eigenvalues --   -0.53861  -0.53601  -0.51892  -0.51591  -0.49984
 Alpha  occ. eigenvalues --   -0.49938  -0.47912  -0.47871  -0.46067  -0.43974
 Alpha  occ. eigenvalues --   -0.38122  -0.37104  -0.36120  -0.35139
 Alpha virt. eigenvalues --    0.04063   0.06089   0.10556   0.12525   0.15624
 Alpha virt. eigenvalues --    0.17669   0.20732   0.22796   0.26674   0.27582
 Alpha virt. eigenvalues --    0.28731   0.29526   0.30383   0.31821   0.32434

 Mulliken charges:
               1
     1  C   -0.169552
     2  C   -0.218543
     3  C   -0.170167
     4  C    0.157284
     5  C   -0.170945
     6  C   -0.218497
     7  H    0.228472
     8  H    0.226270
     9  H    0.277227
    10  H    0.274540
    11  H    0.225624
    12  N    0.489828
    13  O   -0.472109
    14  O   -0.455271
    15  C   -0.172837
    16  C   -0.219364
    17  C   -0.173479
    18  C    0.157951
    19  C   -0.173511
    20  C   -0.222325
    21  H    0.230792
    22  H    0.217982
    23  H    0.271082
    24  H    0.273159
    25  H    0.244872
    26  N    0.488189
    27  O   -0.462481
    28  O   -0.464192
 Sum of Mulliken charges =  -0.00000

 Dipole moment (field-independent basis, Debye):
    X=             10.5187    Y=              3.3910    Z=              0.3887  Tot=             11.0586
 Quadrupole moment (field-independent basis, Debye-Ang):
   XX=           -106.9247   YY=           -100.5049   ZZ=           -102.2926
   XY=             -7.6460   XZ=             -1.4604   YZ=             -0.7559

 Normal termination of Gaussian 16 at Thu May  6 05:14:27 2021.
