 Gaussian 16, Revision A.03,
 Gaussian 16:  EM64L-G16RevA.03 25-Dec-2016

 -------------
 #p 6-31g* mp2
 -------------

 ------------------------------------------------------
 Input file generated by CHIRIPA (05-May-2021 14:53:13)
 ------------------------------------------------------
 Symbolic Z-matrix:
 Charge =  0 Multiplicity = 1

                         Standard orientation:
 ---------------------------------------------------------------------
 Center     Atomic      Atomic             Coordinates (Angstroms)
 Number     Number       Type             X           Y           Z
 ---------------------------------------------------------------------
      1          6           0        3.203441   -0.337128   -0.127451
      2          6           0        2.611544   -1.479513    0.698744
      3          6           0        3.526279   -2.703354    0.755908
      4          1           0        3.403088   -0.695376   -1.146639
      5          1           0        4.174722   -0.050488    0.298983
      6          1           0        1.641030   -1.762983    0.271704
      7          1           0        2.413105   -1.118449    1.716030
      8          1           0        4.491451   -2.442411    1.201948
      9          1           0        3.714989   -3.090607   -0.250584
     10          1           0        3.083717   -3.507882    1.351504
     11          6           0        2.300614    0.893404   -0.193966
     12          6           0        2.892510    2.035790   -1.020161
     13          6           0        1.977776    3.259631   -1.077326
     14          1           0        1.329333    0.606764   -0.620400
     15          1           0        2.100967    1.251653    0.825221
     16          1           0        3.090950    1.674726   -2.037447
     17          1           0        3.863025    2.319260   -0.593122
     18          1           0        1.789065    3.646883   -0.070834
     19          1           0        1.012604    2.998687   -1.523366
     20          1           0        2.420337    4.064158   -1.672922
     21          6           0       -2.309586   -1.566936   -2.000225
     22          6           0       -3.115767   -0.437207   -1.826140
     23          6           0       -3.035782    0.318093   -0.652396
     24          6           0       -2.134595   -0.086818    0.331066
     25          6           0       -1.318026   -1.207448    0.187219
     26          6           0       -1.414866   -1.947778   -0.994762
     27          1           0       -2.378266   -2.147856   -2.915217
     28          1           0       -3.811522   -0.139083   -2.605303
     29          1           0       -3.648121    1.197056   -0.491510
     30          1           0       -0.633971   -1.479813    0.981765
     31          1           0       -0.787539   -2.824684   -1.127221
     32          7           0       -2.040997    0.704861    1.578016
     33          8           0       -1.239024    0.327182    2.429388
     34          8           0       -2.771380    1.688068    1.680393
 ---------------------------------------------------------------------

 SCF Done:  E(RHF) =  -669.535347635     A.U. after   15 cycles
 E2 =    -0.2093128994D+01 EUMP2 =    -0.67162847662910D+03

 The electronic state is 1-A.
 Alpha  occ. eigenvalues --  -20.60776 -20.60770 -15.85827 -11.31202 -11.27789
 Alpha  occ. eigenvalues --  -11.27747 -11.27538 -11.26805 -11.26795 -11.21870
 Alpha  occ. eigenvalues --  -11.21492 -11.21473 -11.21350 -11.21228 -11.20884
 Alpha  occ. eigenvalues --   -1.59846  -1.39399  -1.19391  -1.08779  -1.08464
 Alpha  occ. eigenvalues --   -1.04800  -1.03588  -0.96013  -0.95612  -0.87033
 Alpha  occ. eigenvalues --   -0.86189  -0.82449  -0.79689  -0.78279  -0.77461
 Alpha  occ. eigenvalues --   -0.72047  -0.71165  -0.70498  -0.65150  -0.65006
 Alpha  occ. eigenvalues --   -0.64789  -0.62176  -0.60964  -0.59397  -0.57627
 Alpha  occ. eigenvalues --   -0.55312  -0.55280  -0.53147  -0.52912  -0.52703
 Alpha  occ. eigenvalues --   -0.52423  -0.49954  -0.48807  -0.48800  -0.47972
 Alpha  occ. eigenvalues --   -0.46714  -0.45803  -0.45687  -0.44784  -0.43819
 Alpha  occ. eigenvalues --   -0.37367  -0.36354
 Alpha virt. eigenvalues --    0.05011   0.11225   0.16420   0.20683   0.22991
 Alpha virt. eigenvalues --    0.24136   0.25915   0.26686   0.27843   0.27993
 Alpha virt. eigenvalues --    0.28937   0.30308   0.31555   0.31632   0.32093

 Mulliken charges:
               1
     1  C   -0.297214
     2  C   -0.305030
     3  C   -0.475651
     4  H    0.146803
     5  H    0.151590
     6  H    0.140486
     7  H    0.162489
     8  H    0.158798
     9  H    0.152847
    10  H    0.158951
    11  C   -0.303965
    12  C   -0.299430
    13  C   -0.476157
    14  H    0.148465
    15  H    0.159487
    16  H    0.149028
    17  H    0.152320
    18  H    0.160498
    19  H    0.153495
    20  H    0.159203
    21  C   -0.170740
    22  C   -0.218882
    23  C   -0.170989
    24  C    0.157621
    25  C   -0.170672
    26  C   -0.221054
    27  H    0.225754
    28  H    0.223603
    29  H    0.275807
    30  H    0.280806
    31  H    0.224119
    32  N    0.488533
    33  O   -0.460491
    34  O   -0.460428
 Sum of Mulliken charges =  -0.00000

 Dipole moment (field-independent basis, Debye):
    X=             -0.3236    Y=             -2.6941    Z=             -4.2774  Tot=              5.0655
 Quadrupole moment (field-independent basis, Debye-Ang):
   XX=            -91.2091   YY=            -93.6612   ZZ=            -96.9726
   XY=              4.3542   XZ=             11.4777   YZ=             -1.1765

 Normal termination of Gaussian 16 at Wed May  5 18:33:15 2021.
