 Gaussian 16, Revision A.03,
 Gaussian 16:  EM64L-G16RevA.03 25-Dec-2016

 -------------
 #p 6-31g* mp2
 -------------

 ------------------------------------------------------
 Input file generated by CHIRIPA (05-May-2021 14:53:14)
 ------------------------------------------------------
 Symbolic Z-matrix:
 Charge =  0 Multiplicity = 1

                         Standard orientation:
 ---------------------------------------------------------------------
 Center     Atomic      Atomic             Coordinates (Angstroms)
 Number     Number       Type             X           Y           Z
 ---------------------------------------------------------------------
      1          6           0       -3.609388   -0.676623   -0.192367
      2          6           0       -4.893967   -1.505975   -0.188068
      3          6           0       -4.637692   -2.994050   -0.428381
      4          1           0       -3.096854   -0.811147   -1.154737
      5          1           0       -2.929779   -1.062053    0.580271
      6          1           0       -5.571513   -1.118217   -0.959554
      7          1           0       -5.403600   -1.369309    0.774332
      8          1           0       -3.981698   -3.402171    0.347318
      9          1           0       -4.150565   -3.149653   -1.396418
     10          1           0       -5.569464   -3.568166   -0.421287
     11          6           0       -3.849243    0.813041    0.046586
     12          6           0       -2.564665    1.642393    0.042287
     13          6           0       -2.820940    3.130468    0.282601
     14          1           0       -4.528853    1.198471   -0.726052
     15          1           0       -4.361778    0.947566    1.008957
     16          1           0       -2.055031    1.505728   -0.920112
     17          1           0       -1.887118    1.254636    0.813773
     18          1           0       -3.308066    3.286071    1.250638
     19          1           0       -3.476934    3.538590   -0.493099
     20          1           0       -1.889168    3.704585    0.275506
     21          6           0        5.299916   -0.778019   -0.324944
     22          6           0        4.602076   -1.231321    0.799359
     23          6           0        3.279460   -0.836243    1.021050
     24          6           0        2.682820    0.016776    0.093865
     25          6           0        3.351695    0.485467   -1.035837
     26          6           0        4.673602    0.077420   -1.237346
     27          1           0        6.327081   -1.089962   -0.489320
     28          1           0        5.085949   -1.895733    1.509619
     29          1           0        2.715920   -1.172126    1.883037
     30          1           0        2.842669    1.147080   -1.726185
     31          1           0        5.213111    0.431038   -2.111376
     32          7           0        1.283001    0.441892    0.317876
     33          8           0        0.779883    1.193998   -0.513897
     34          8           0        0.715445    0.014942    1.320987
 ---------------------------------------------------------------------

 SCF Done:  E(RHF) =  -669.536125815     A.U. after   15 cycles
 E2 =    -0.2092436811D+01 EUMP2 =    -0.67162856262597D+03

 The electronic state is 1-A.
 Alpha  occ. eigenvalues --  -20.61107 -20.61082 -15.86101 -11.31384 -11.27936
 Alpha  occ. eigenvalues --  -11.27933 -11.27664 -11.26931 -11.26922 -11.20563
 Alpha  occ. eigenvalues --  -11.20254 -11.19993 -11.19752 -11.19356 -11.19225
 Alpha  occ. eigenvalues --   -1.60134  -1.39693  -1.19543  -1.08956  -1.06931
 Alpha  occ. eigenvalues --   -1.04931  -1.02023  -0.95805  -0.94577  -0.86334
 Alpha  occ. eigenvalues --   -0.85611  -0.82643  -0.78136  -0.77701  -0.76596
 Alpha  occ. eigenvalues --   -0.72311  -0.71437  -0.70651  -0.65199  -0.64933
 Alpha  occ. eigenvalues --   -0.63581  -0.62278  -0.59433  -0.57990  -0.56137
 Alpha  occ. eigenvalues --   -0.55426  -0.53908  -0.53265  -0.53021  -0.51319
 Alpha  occ. eigenvalues --   -0.50983  -0.49202  -0.49088  -0.48564  -0.46351
 Alpha  occ. eigenvalues --   -0.45187  -0.45109  -0.44080  -0.43935  -0.42283
 Alpha  occ. eigenvalues --   -0.37518  -0.36529
 Alpha virt. eigenvalues --    0.04825   0.11127   0.16332   0.21265   0.24215
 Alpha virt. eigenvalues --    0.25753   0.27188   0.28099   0.28128   0.29100
 Alpha virt. eigenvalues --    0.29341   0.30850   0.32339   0.32773   0.33129

 Mulliken charges:
               1
     1  C   -0.297546
     2  C   -0.298264
     3  C   -0.474604
     4  H    0.147036
     5  H    0.155401
     6  H    0.148844
     7  H    0.149796
     8  H    0.154253
     9  H    0.152913
    10  H    0.156310
    11  C   -0.298614
    12  C   -0.301672
    13  C   -0.476313
    14  H    0.141594
    15  H    0.143570
    16  H    0.158454
    17  H    0.174409
    18  H    0.147775
    19  H    0.146091
    20  H    0.161159
    21  C   -0.170403
    22  C   -0.218569
    23  C   -0.170477
    24  C    0.159237
    25  C   -0.170789
    26  C   -0.218567
    27  H    0.226325
    28  H    0.224133
    29  H    0.275897
    30  H    0.275865
    31  H    0.224135
    32  N    0.489195
    33  O   -0.456967
    34  O   -0.459606
 Sum of Mulliken charges =  -0.00000

 Dipole moment (field-independent basis, Debye):
    X=              5.4941    Y=             -1.5282    Z=             -0.7517  Tot=              5.7520
 Quadrupole moment (field-independent basis, Debye-Ang):
   XX=            -70.8277   YY=            -96.0545   ZZ=            -90.6556
   XY=             -3.7884   XZ=             -1.9504   YZ=             -3.3042

 Normal termination of Gaussian 16 at Wed May  5 21:52:18 2021.
