 Gaussian 16, Revision A.03,
 Gaussian 16:  EM64L-G16RevA.03 25-Dec-2016

 -------------
 #p 6-31g* mp2
 -------------

 ------------------------------------------------------
 Input file generated by CHIRIPA (05-May-2021 14:57:23)
 ------------------------------------------------------
 Symbolic Z-matrix:
 Charge =  0 Multiplicity = 1

                         Standard orientation:
 ---------------------------------------------------------------------
 Center     Atomic      Atomic             Coordinates (Angstroms)
 Number     Number       Type             X           Y           Z
 ---------------------------------------------------------------------
      1          6           0       -2.903665    2.375579    0.419417
      2          6           0       -2.118186    1.258404    0.116989
      3          6           0       -2.714357    0.021559   -0.146340
      4          6           0       -4.105006   -0.062641   -0.098416
      5          6           0       -4.914738    1.032177    0.199910
      6          6           0       -4.296977    2.259106    0.459841
      7          1           0       -2.432159    3.332539    0.622658
      8          1           0       -1.035894    1.345913    0.084888
      9          1           0       -2.130214   -0.859427   -0.383109
     10          1           0       -5.991227    0.913906    0.224456
     11          1           0       -4.909501    3.125031    0.694435
     12          7           0       -4.747573   -1.366784   -0.375392
     13          8           0       -5.974758   -1.414761   -0.326877
     14          8           0       -4.011866   -2.316302   -0.635756
     15          6           0        1.617928   -0.609004    0.750873
     16          6           0        2.677760   -1.027685    1.562034
     17          6           0        4.001090   -0.780036    1.185181
     18          6           0        4.229306   -0.108146   -0.014723
     19          6           0        3.194774    0.321552   -0.844419
     20          6           0        1.879357    0.063095   -0.447652
     21          1           0        0.593008   -0.805582    1.051356
     22          1           0        2.477714   -1.549855    2.493359
     23          1           0        4.840463   -1.093088    1.794170
     24          1           0        3.425621    0.839871   -1.767172
     25          1           0        1.058257    0.389409   -1.079600
     26          7           0        5.626068    0.159751   -0.424222
     27          8           0        5.800590    0.753550   -1.486099
     28          8           0        6.519878   -0.229143    0.324444
 ---------------------------------------------------------------------

 SCF Done:  E(RHF) =  -868.336767732     A.U. after   16 cycles
 E2 =    -0.2600368653D+01 EUMP2 =    -0.87093713638498D+03

 The electronic state is 1-A.
 Alpha  occ. eigenvalues --  -20.61481 -20.61468 -20.61207 -20.61200 -15.86538
 Alpha  occ. eigenvalues --  -15.86266 -11.32035 -11.31765 -11.28722 -11.28569
 Alpha  occ. eigenvalues --  -11.28392 -11.28350 -11.28324 -11.28197 -11.27744
 Alpha  occ. eigenvalues --  -11.27574 -11.27513 -11.27355  -1.60551  -1.60279
 Alpha  occ. eigenvalues --   -1.40101  -1.39828  -1.20221  -1.19968  -1.09575
 Alpha  occ. eigenvalues --   -1.09355  -1.05670  -1.05389  -0.96392  -0.96159
 Alpha  occ. eigenvalues --   -0.87055  -0.86791  -0.83245  -0.82982  -0.78295
 Alpha  occ. eigenvalues --   -0.77984  -0.72751  -0.72483  -0.71877  -0.71603
 Alpha  occ. eigenvalues --   -0.71327  -0.71087  -0.65892  -0.65826  -0.65607
 Alpha  occ. eigenvalues --   -0.65316  -0.63064  -0.62656  -0.56113  -0.55929
 Alpha  occ. eigenvalues --   -0.53952  -0.53870  -0.53650  -0.53432  -0.49520
 Alpha  occ. eigenvalues --   -0.49500  -0.49252  -0.49226  -0.45479  -0.45203
 Alpha  occ. eigenvalues --   -0.38170  -0.37975  -0.37272  -0.36984
 Alpha virt. eigenvalues --    0.04265   0.04544   0.10383   0.10521   0.15662
 Alpha virt. eigenvalues --    0.16003   0.17801   0.22059   0.24803   0.26298
 Alpha virt. eigenvalues --    0.27661   0.29295   0.30083   0.30893   0.32453

 Mulliken charges:
               1
     1  C   -0.170489
     2  C   -0.224785
     3  C   -0.175224
     4  C    0.159823
     5  C   -0.169454
     6  C   -0.217982
     7  H    0.229432
     8  H    0.220937
     9  H    0.271090
    10  H    0.278560
    11  H    0.226994
    12  N    0.488128
    13  O   -0.457324
    14  O   -0.460626
    15  C   -0.173263
    16  C   -0.218081
    17  C   -0.169583
    18  C    0.158952
    19  C   -0.169526
    20  C   -0.223867
    21  H    0.224428
    22  H    0.227172
    23  H    0.278148
    24  H    0.277473
    25  H    0.218672
    26  N    0.487973
    27  O   -0.459205
    28  O   -0.458371
 Sum of Mulliken charges =  -0.00000

 Dipole moment (field-independent basis, Debye):
    X=             -2.6866    Y=              3.6865    Z=              2.4929  Tot=              5.1983
 Quadrupole moment (field-independent basis, Debye-Ang):
   XX=           -158.7612   YY=           -104.1276   ZZ=           -102.4570
   XY=            -26.1310   XZ=              2.8469   YZ=             -2.5265

 Normal termination of Gaussian 16 at Thu May  6 14:34:33 2021.
