 Gaussian 16, Revision A.03,
 Gaussian 16:  EM64L-G16RevA.03 25-Dec-2016

 -------------
 #p 6-31g* mp2
 -------------

 ------------------------------------------------------
 Input file generated by CHIRIPA (05-May-2021 14:53:16)
 ------------------------------------------------------
 Symbolic Z-matrix:
 Charge =  0 Multiplicity = 1

                         Standard orientation:
 ---------------------------------------------------------------------
 Center     Atomic      Atomic             Coordinates (Angstroms)
 Number     Number       Type             X           Y           Z
 ---------------------------------------------------------------------
      1          6           0       -4.388651    0.603992    0.196470
      2          6           0       -5.864314    0.909228   -0.062822
      3          6           0       -6.292422    2.269455    0.488813
      4          1           0       -4.198013    0.639203    1.277841
      5          1           0       -3.773086    1.394151   -0.255330
      6          1           0       -6.476853    0.117999    0.388142
      7          1           0       -6.051502    0.873098   -1.143688
      8          1           0       -5.706354    3.072730    0.030691
      9          1           0       -6.134121    2.313341    1.571225
     10          1           0       -7.350802    2.467263    0.292434
     11          6           0       -3.945618   -0.752392   -0.349125
     12          6           0       -2.469954   -1.057628   -0.089834
     13          6           0       -2.041847   -2.417855   -0.641468
     14          1           0       -4.561183   -1.542551    0.102675
     15          1           0       -4.136256   -0.787603   -1.430496
     16          1           0       -2.282766   -1.021497    0.991032
     17          1           0       -1.857416   -0.266399   -0.540798
     18          1           0       -2.200148   -2.461740   -1.723880
     19          1           0       -2.627915   -3.221129   -0.183346
     20          1           0       -0.983467   -2.615662   -0.445089
     21          6           0        4.585624    2.141479   -0.446209
     22          6           0        4.503199    1.665077    0.866333
     23          6           0        3.769077    0.511642    1.158228
     24          6           0        3.126990   -0.143457    0.108533
     25          6           0        3.190234    0.306338   -1.209410
     26          6           0        3.930034    1.461788   -1.478072
     27          1           0        5.158114    3.038277   -0.663936
     28          1           0        5.011313    2.190891    1.669692
     29          1           0        3.688609    0.120896    2.165333
     30          1           0        2.672909   -0.239351   -1.989164
     31          1           0        3.992301    1.829468   -2.498356
     32          7           0        2.346802   -1.365613    0.405252
     33          8           0        1.790248   -1.924579   -0.537321
     34          8           0        2.306617   -1.741433    1.574774
 ---------------------------------------------------------------------

 SCF Done:  E(RHF) =  -669.536418809     A.U. after   15 cycles
 E2 =    -0.2090916143D+01 EUMP2 =    -0.67162733495226D+03

 The electronic state is 1-A.
 Alpha  occ. eigenvalues --  -20.60989 -20.60971 -15.86003 -11.31306 -11.27865
 Alpha  occ. eigenvalues --  -11.27862 -11.27601 -11.26869 -11.26859 -11.21202
 Alpha  occ. eigenvalues --  -11.20865 -11.20774 -11.20670 -11.20601 -11.19608
 Alpha  occ. eigenvalues --   -1.60035  -1.39592  -1.19471  -1.08880  -1.07777
 Alpha  occ. eigenvalues --   -1.04864  -1.02781  -0.95726  -0.95208  -0.86268
 Alpha  occ. eigenvalues --   -0.86224  -0.82558  -0.78886  -0.77614  -0.77565
 Alpha  occ. eigenvalues --   -0.72226  -0.71344  -0.70580  -0.65127  -0.64868
 Alpha  occ. eigenvalues --   -0.64422  -0.62212  -0.60196  -0.58617  -0.56788
 Alpha  occ. eigenvalues --   -0.55370  -0.54526  -0.53198  -0.52957  -0.51849
 Alpha  occ. eigenvalues --   -0.51642  -0.49194  -0.48982  -0.48964  -0.47167
 Alpha  occ. eigenvalues --   -0.45957  -0.45106  -0.45037  -0.44983  -0.42990
 Alpha  occ. eigenvalues --   -0.37448  -0.36464
 Alpha virt. eigenvalues --    0.04892   0.11191   0.16381   0.21323   0.23454
 Alpha virt. eigenvalues --    0.25141   0.27220   0.27263   0.28049   0.28220
 Alpha virt. eigenvalues --    0.28887   0.30887   0.32073   0.32335   0.32439

 Mulliken charges:
               1
     1  C   -0.297345
     2  C   -0.299020
     3  C   -0.475215
     4  H    0.149131
     5  H    0.146729
     6  H    0.151876
     7  H    0.150881
     8  H    0.153591
     9  H    0.154748
    10  H    0.158938
    11  C   -0.297207
    12  C   -0.298041
    13  C   -0.486990
    14  H    0.148788
    15  H    0.147245
    16  H    0.152327
    17  H    0.146692
    18  H    0.147958
    19  H    0.149635
    20  H    0.190235
    21  C   -0.170506
    22  C   -0.218585
    23  C   -0.170561
    24  C    0.158214
    25  C   -0.170771
    26  C   -0.218581
    27  H    0.226052
    28  H    0.223880
    29  H    0.275903
    30  H    0.275982
    31  H    0.223867
    32  N    0.489071
    33  O   -0.460199
    34  O   -0.458722
 Sum of Mulliken charges =  -0.00000

 Dipole moment (field-independent basis, Debye):
    X=              3.0739    Y=              4.2428    Z=             -1.0022  Tot=              5.3343
 Quadrupole moment (field-independent basis, Debye-Ang):
   XX=            -79.0399   YY=            -97.3505   ZZ=            -89.6841
   XY=             14.1252   XZ=             -1.8651   YZ=              0.2331

 Normal termination of Gaussian 16 at Thu May  6 20:29:27 2021.
