 Gaussian 16, Revision A.03,
 Gaussian 16:  EM64L-G16RevA.03 25-Dec-2016

 -------------
 #p 6-31g* mp2
 -------------

 ------------------------------------------------------
 Input file generated by CHIRIPA (05-May-2021 14:55:24)
 ------------------------------------------------------
 Symbolic Z-matrix:
 Charge =  0 Multiplicity = 1

                         Standard orientation:
 ---------------------------------------------------------------------
 Center     Atomic      Atomic             Coordinates (Angstroms)
 Number     Number       Type             X           Y           Z
 ---------------------------------------------------------------------
      1          6           0       -1.477728    1.752318   -1.485242
      2          6           0       -0.741518    0.579160   -1.289752
      3          6           0       -1.304371   -0.508133   -0.614816
      4          6           0       -2.611824   -0.387321   -0.146563
      5          6           0       -3.370878    0.768127   -0.325637
      6          6           0       -2.787749    1.842897   -1.003410
      7          1           0       -1.032616    2.592090   -2.010651
      8          1           0        0.276069    0.505988   -1.662857
      9          1           0       -0.756966   -1.428175   -0.449623
     10          1           0       -4.383069    0.811280    0.057801
     11          1           0       -3.361863    2.752748   -1.153778
     12          7           0       -3.218423   -1.531761    0.569463
     13          8           0       -4.372140   -1.400177    0.972279
     14          8           0       -2.528673   -2.538688    0.714311
     15          6           0        3.876051   -0.128512    0.347945
     16          6           0        3.937095   -1.257867   -0.681043
     17          6           0        5.265391   -2.014489   -0.650257
     18          1           0        4.702691    0.571394    0.164248
     19          1           0        4.037692   -0.546755    1.351111
     20          1           0        3.774011   -0.837817   -1.681831
     21          1           0        3.110100   -1.955064   -0.494994
     22          1           0        5.432035   -2.460304    0.335684
     23          1           0        6.099718   -1.336710   -0.857897
     24          1           0        5.287410   -2.817365   -1.393738
     25          6           0        2.554281    0.637194    0.329362
     26          6           0        2.493238    1.766548    1.358350
     27          6           0        1.164942    2.523169    1.327563
     28          1           0        2.392642    1.055436   -0.673804
     29          1           0        1.727641   -0.062713    0.513059
     30          1           0        3.320233    2.463745    1.172301
     31          1           0        2.656322    1.346498    2.359138
     32          1           0        0.330615    1.845391    1.535204
     33          1           0        0.998297    2.968985    0.341623
     34          1           0        1.142922    3.326046    2.071045
 ---------------------------------------------------------------------

 SCF Done:  E(RHF) =  -669.534114739     A.U. after   15 cycles
 E2 =    -0.2094064271D+01 EUMP2 =    -0.67162817900906D+03

 The electronic state is 1-A.
 Alpha  occ. eigenvalues --  -20.60749 -20.60744 -15.85801 -11.31155 -11.27692
 Alpha  occ. eigenvalues --  -11.27675 -11.27407 -11.26726 -11.26625 -11.22212
 Alpha  occ. eigenvalues --  -11.22207 -11.22147 -11.21957 -11.21536 -11.21496
 Alpha  occ. eigenvalues --   -1.59825  -1.39379  -1.19309  -1.09085  -1.08700
 Alpha  occ. eigenvalues --   -1.04710  -1.04076  -0.96532  -0.95547  -0.87547
 Alpha  occ. eigenvalues --   -0.86108  -0.82388  -0.80164  -0.78983  -0.77394
 Alpha  occ. eigenvalues --   -0.72019  -0.71149  -0.70418  -0.65724  -0.64951
 Alpha  occ. eigenvalues --   -0.64696  -0.62073  -0.61468  -0.59899  -0.58165
 Alpha  occ. eigenvalues --   -0.55824  -0.55203  -0.53252  -0.53199  -0.52954
 Alpha  occ. eigenvalues --   -0.52614  -0.50465  -0.48782  -0.48776  -0.48438
 Alpha  occ. eigenvalues --   -0.47192  -0.46402  -0.46386  -0.44787  -0.44368
 Alpha  occ. eigenvalues --   -0.37244  -0.36237
 Alpha virt. eigenvalues --    0.05047   0.11285   0.16458   0.20100   0.22783
 Alpha virt. eigenvalues --    0.23738   0.24706   0.25261   0.27005   0.28677
 Alpha virt. eigenvalues --    0.29795   0.30536   0.31223   0.31546   0.31692

 Mulliken charges:
               1
     1  C   -0.171134
     2  C   -0.213131
     3  C   -0.176422
     4  C    0.158461
     5  C   -0.171909
     6  C   -0.218355
     7  H    0.224593
     8  H    0.229565
     9  H    0.274848
    10  H    0.275287
    11  H    0.223269
    12  N    0.488099
    13  O   -0.460416
    14  O   -0.460872
    15  C   -0.297816
    16  C   -0.300984
    17  C   -0.475852
    18  H    0.151073
    19  H    0.153911
    20  H    0.147866
    21  H    0.151524
    22  H    0.158033
    23  H    0.155941
    24  H    0.162109
    25  C   -0.302235
    26  C   -0.299717
    27  C   -0.475379
    28  H    0.139803
    29  H    0.151140
    30  H    0.152457
    31  H    0.156263
    32  H    0.162689
    33  H    0.146006
    34  H    0.161285
 Sum of Mulliken charges =  -0.00000

 Dipole moment (field-independent basis, Debye):
    X=              2.2495    Y=              4.0140    Z=             -2.4223  Tot=              5.2000
 Quadrupole moment (field-independent basis, Debye-Ang):
   XX=           -102.8087   YY=            -97.0714   ZZ=            -94.1552
   XY=            -13.4628   XZ=              5.8388   YZ=              0.2476

 Normal termination of Gaussian 16 at Thu May  6 07:57:37 2021.
