 Gaussian 16, Revision A.03,
 Gaussian 16:  EM64L-G16RevA.03 25-Dec-2016

 -------------
 #p 6-31g* mp2
 -------------

 ------------------------------------------------------
 Input file generated by CHIRIPA (05-May-2021 14:51:11)
 ------------------------------------------------------
 Symbolic Z-matrix:
 Charge =  0 Multiplicity = 1

                         Standard orientation:
 ---------------------------------------------------------------------
 Center     Atomic      Atomic             Coordinates (Angstroms)
 Number     Number       Type             X           Y           Z
 ---------------------------------------------------------------------
      1          6           0        3.850680   -0.553601   -0.553873
      2          6           0        3.337183   -1.810419    0.149485
      3          6           0        3.652697   -3.091219   -0.623688
      4          1           0        3.407961   -0.496110   -1.557686
      5          1           0        4.936930   -0.639177   -0.695764
      6          1           0        2.252433   -1.721888    0.291247
      7          1           0        3.781027   -1.864823    1.151812
      8          1           0        4.733683   -3.206738   -0.753020
      9          1           0        3.196404   -3.062990   -1.618475
     10          1           0        3.276693   -3.977425   -0.102997
     11          6           0        3.542890    0.734917    0.206860
     12          6           0        4.056388    1.991736   -0.496498
     13          6           0        3.740873    3.272535    0.276675
     14          1           0        2.456641    0.820493    0.348751
     15          1           0        3.985609    0.677427    1.210673
     16          1           0        3.612544    2.046140   -1.498824
     17          1           0        5.141138    1.903204   -0.638260
     18          1           0        4.197166    3.244307    1.271462
     19          1           0        2.659888    3.388054    0.406008
     20          1           0        4.116878    4.158742   -0.244015
     21          6           0       -3.208373   -0.423254    0.657516
     22          6           0       -1.741452   -0.171331    0.307283
     23          6           0       -0.776524   -0.843131    1.284726
     24          1           0       -3.403320   -0.059602    1.675699
     25          1           0       -3.394016   -1.506184    0.671490
     26          1           0       -1.558963    0.910842    0.292618
     27          1           0       -1.550021   -0.535451   -0.710256
     28          1           0       -0.929702   -1.927133    1.293516
     29          1           0       -0.938695   -0.472623    2.302087
     30          1           0        0.266630   -0.650078    1.015614
     31          6           0       -4.185198    0.241938   -0.310503
     32          6           0       -5.652119   -0.009986    0.039729
     33          6           0       -6.617046    0.661816   -0.937713
     34          1           0       -3.999555    1.324867   -0.324477
     35          1           0       -3.990250   -0.121714   -1.328687
     36          1           0       -5.843550    0.354135    1.057269
     37          1           0       -5.834607   -1.092159    0.054396
     38          1           0       -6.454875    0.291306   -1.955074
     39          1           0       -6.463869    1.745818   -0.946503
     40          1           0       -7.660199    0.468761   -0.668602
 ---------------------------------------------------------------------

 SCF Done:  E(RHF) =  -470.733151480     A.U. after   11 cycles
 E2 =    -0.1582857536D+01 EUMP2 =    -0.47231600901661D+03

 The electronic state is 1-A.
 Alpha  occ. eigenvalues --  -11.21649 -11.21620 -11.21605 -11.21553 -11.21433
 Alpha  occ. eigenvalues --  -11.21406 -11.21373 -11.21344 -11.21092 -11.21086
 Alpha  occ. eigenvalues --  -11.21072 -11.21049  -1.08462  -1.08425  -1.03565
 Alpha  occ. eigenvalues --   -1.03514  -0.96011  -0.95970  -0.87036  -0.86980
 Alpha  occ. eigenvalues --   -0.79654  -0.79557  -0.78275  -0.78240  -0.65094
 Alpha  occ. eigenvalues --   -0.65073  -0.60985  -0.60906  -0.59448  -0.59275
 Alpha  occ. eigenvalues --   -0.57631  -0.57575  -0.55305  -0.55246  -0.52797
 Alpha  occ. eigenvalues --   -0.52616  -0.52434  -0.52392  -0.49967  -0.49893
 Alpha  occ. eigenvalues --   -0.47995  -0.47866  -0.46676  -0.46592  -0.45820
 Alpha  occ. eigenvalues --   -0.45772  -0.45740  -0.45688  -0.43798  -0.43712
 Alpha virt. eigenvalues --    0.21080   0.23087   0.23913   0.24372   0.25971
 Alpha virt. eigenvalues --    0.26625   0.27047   0.27482   0.27895   0.29048
 Alpha virt. eigenvalues --    0.30897   0.31393   0.31695   0.31884   0.32042

 Mulliken charges:
               1
     1  C   -0.297867
     2  C   -0.307284
     3  C   -0.475169
     4  H    0.149315
     5  H    0.149586
     6  H    0.159623
     7  H    0.151864
     8  H    0.155037
     9  H    0.154855
    10  H    0.160276
    11  C   -0.302494
    12  C   -0.299507
    13  C   -0.475706
    14  H    0.152655
    15  H    0.149882
    16  H    0.152014
    17  H    0.152114
    18  H    0.155227
    19  H    0.155131
    20  H    0.160259
    21  C   -0.298474
    22  C   -0.299199
    23  C   -0.485947
    24  H    0.149871
    25  H    0.149694
    26  H    0.151572
    27  H    0.151676
    28  H    0.155348
    29  H    0.155847
    30  H    0.169601
    31  C   -0.298270
    32  C   -0.299677
    33  C   -0.475723
    34  H    0.149529
    35  H    0.149616
    36  H    0.152016
    37  H    0.151986
    38  H    0.155183
    39  H    0.155208
    40  H    0.160333
 Sum of Mulliken charges =  -0.00000

 Dipole moment (field-independent basis, Debye):
    X=             -0.0103    Y=              0.0003    Z=              0.0112  Tot=              0.0152
 Quadrupole moment (field-independent basis, Debye-Ang):
   XX=            -84.7073   YY=            -85.2837   ZZ=            -84.7641
   XY=              0.4516   XZ=              0.0230   YZ=              0.2678

 Normal termination of Gaussian 16 at Wed May  5 16:46:12 2021.
