 Gaussian 16, Revision A.03,
 Gaussian 16:  EM64L-G16RevA.03 25-Dec-2016

 -------------
 #p 6-31g* mp2
 -------------

 ------------------------------------------------------
 Input file generated by CHIRIPA (05-May-2021 14:51:11)
 ------------------------------------------------------
 Symbolic Z-matrix:
 Charge =  0 Multiplicity = 1

                         Standard orientation:
 ---------------------------------------------------------------------
 Center     Atomic      Atomic             Coordinates (Angstroms)
 Number     Number       Type             X           Y           Z
 ---------------------------------------------------------------------
      1          6           0        2.516304   -1.270277   -0.302246
      2          6           0        1.593224   -2.174257    0.515512
      3          6           0        1.331154   -3.519581   -0.162144
      4          1           0        2.071776   -1.103026   -1.292885
      5          1           0        3.470249   -1.788769   -0.471210
      6          1           0        0.641810   -1.653663    0.684064
      7          1           0        2.039908   -2.339220    1.504388
      8          1           0        2.269245   -4.062635   -0.316030
      9          1           0        0.863202   -3.373183   -1.141015
     10          1           0        0.669005   -4.149953    0.439562
     11          6           0        2.787740    0.078287    0.362153
     12          6           0        3.710820    0.982267   -0.455605
     13          6           0        3.972890    2.327591    0.222051
     14          1           0        1.833795    0.596779    0.531117
     15          1           0        3.232268   -0.088964    1.352793
     16          1           0        3.264136    1.147230   -1.444481
     17          1           0        4.662234    0.461673   -0.624156
     18          1           0        4.440842    2.181193    1.200922
     19          1           0        3.034799    2.870645    0.375937
     20          1           0        4.635039    2.957963   -0.379655
     21          6           0       -3.133229    0.032571    0.155585
     22          6           0       -2.648988   -1.348693   -0.286688
     23          6           0       -3.622370   -2.465474    0.091624
     24          1           0       -3.285318    0.029751    1.243614
     25          1           0       -4.114683    0.231523   -0.296699
     26          1           0       -1.668110   -1.544405    0.165189
     27          1           0       -2.497851   -1.342529   -1.373765
     28          1           0       -4.600179   -2.297448   -0.371258
     29          1           0       -3.765724   -2.500471    1.176440
     30          1           0       -3.256567   -3.444258   -0.233997
     31          6           0       -2.170815    1.159419   -0.215492
     32          6           0       -2.655056    2.540683    0.226781
     33          6           0       -1.681674    3.657464   -0.151531
     34          1           0       -1.189361    0.960468    0.236791
     35          1           0       -2.018726    1.162238   -1.303521
     36          1           0       -2.806193    2.534518    1.313857
     37          1           0       -3.635934    2.736394   -0.225096
     38          1           0       -1.538320    3.692460   -1.236347
     39          1           0       -0.703865    3.489437    0.311350
     40          1           0       -2.047477    4.636247    0.174089
 ---------------------------------------------------------------------

 SCF Done:  E(RHF) =  -470.733404308     A.U. after   11 cycles
 E2 =    -0.1583594323D+01 EUMP2 =    -0.47231699863051D+03

 The electronic state is 1-A.
 Alpha  occ. eigenvalues --  -11.21653 -11.21615 -11.21603 -11.21601 -11.21466
 Alpha  occ. eigenvalues --  -11.21413 -11.21398 -11.21351 -11.21125 -11.21083
 Alpha  occ. eigenvalues --  -11.21072 -11.21071  -1.08487  -1.08427  -1.03582
 Alpha  occ. eigenvalues --   -1.03519  -0.96022  -0.95976  -0.87036  -0.86994
 Alpha  occ. eigenvalues --   -0.79678  -0.79559  -0.78357  -0.78193  -0.65243
 Alpha  occ. eigenvalues --   -0.64945  -0.61118  -0.60802  -0.59414  -0.59313
 Alpha  occ. eigenvalues --   -0.57658  -0.57563  -0.55347  -0.55222  -0.52714
 Alpha  occ. eigenvalues --   -0.52669  -0.52457  -0.52391  -0.50007  -0.49879
 Alpha  occ. eigenvalues --   -0.48080  -0.47827  -0.46888  -0.46442  -0.46163
 Alpha  occ. eigenvalues --   -0.45807  -0.45761  -0.45262  -0.43827  -0.43783
 Alpha virt. eigenvalues --    0.19703   0.22363   0.23606   0.24616   0.25464
 Alpha virt. eigenvalues --    0.26586   0.26816   0.27388   0.28410   0.29629
 Alpha virt. eigenvalues --    0.30903   0.31377   0.31584   0.31917   0.32285

 Mulliken charges:
               1
     1  C   -0.297602
     2  C   -0.307118
     3  C   -0.475737
     4  H    0.150295
     5  H    0.149581
     6  H    0.157505
     7  H    0.151964
     8  H    0.155272
     9  H    0.156012
    10  H    0.160095
    11  C   -0.300692
    12  C   -0.299591
    13  C   -0.475788
    14  H    0.150836
    15  H    0.149591
    16  H    0.152409
    17  H    0.151974
    18  H    0.155059
    19  H    0.155122
    20  H    0.160444
    21  C   -0.297685
    22  C   -0.308881
    23  C   -0.475254
    24  H    0.149725
    25  H    0.149858
    26  H    0.161103
    27  H    0.151530
    28  H    0.155170
    29  H    0.155092
    30  H    0.160731
    31  C   -0.301548
    32  C   -0.299635
    33  C   -0.475771
    34  H    0.151051
    35  H    0.149672
    36  H    0.152291
    37  H    0.152373
    38  H    0.155265
    39  H    0.154561
    40  H    0.160723
 Sum of Mulliken charges =  -0.00000

 Dipole moment (field-independent basis, Debye):
    X=             -0.0106    Y=             -0.0039    Z=             -0.0099  Tot=              0.0151
 Quadrupole moment (field-independent basis, Debye-Ang):
   XX=            -84.2808   YY=            -86.4444   ZZ=            -83.9128
   XY=             -1.2445   XZ=              0.8148   YZ=             -0.4756

 Normal termination of Gaussian 16 at Wed May  5 15:14:00 2021.
