 Gaussian 16, Revision A.03,
 Gaussian 16:  EM64L-G16RevA.03 25-Dec-2016

 -------------
 #p 6-31g* mp2
 -------------

 ------------------------------------------------------
 Input file generated by CHIRIPA (05-May-2021 14:55:19)
 ------------------------------------------------------
 Symbolic Z-matrix:
 Charge =  0 Multiplicity = 1

                         Standard orientation:
 ---------------------------------------------------------------------
 Center     Atomic      Atomic             Coordinates (Angstroms)
 Number     Number       Type             X           Y           Z
 ---------------------------------------------------------------------
      1          6           0       -1.897665    1.733897   -0.235830
      2          6           0       -1.620896    0.441786   -0.694490
      3          6           0       -2.581446   -0.568874   -0.592230
      4          6           0       -3.813775   -0.250965   -0.023381
      5          6           0       -4.119558    1.026737    0.442736
      6          6           0       -3.143916    2.021741    0.330321
      7          1           0       -1.145625    2.512922   -0.319213
      8          1           0       -0.653906    0.215364   -1.134613
      9          1           0       -2.393679   -1.577707   -0.939241
     10          1           0       -5.092605    1.222114    0.876815
     11          1           0       -3.361636    3.024318    0.687368
     12          7           0       -4.838655   -1.312618    0.090252
     13          8           0       -5.916653   -1.006932    0.595340
     14          8           0       -4.544552   -2.430326   -0.327921
     15          6           0        4.190171    0.556590   -0.328970
     16          6           0        2.960785    0.968514    0.481533
     17          6           0        2.019526    1.887346   -0.297935
     18          1           0        4.733076    1.458379   -0.643575
     19          1           0        3.862351    0.052341   -1.248569
     20          1           0        3.290854    1.470608    1.399995
     21          1           0        2.420849    0.065633    0.794407
     22          1           0        1.662006    1.391612   -1.206245
     23          1           0        2.536955    2.804569   -0.597217
     24          1           0        1.147489    2.169515    0.300223
     25          6           0        5.140678   -0.362052    0.436770
     26          6           0        6.370063   -0.773976   -0.373732
     27          6           0        7.311323   -1.692809    0.405735
     28          1           0        5.468497    0.142197    1.356370
     29          1           0        4.597773   -1.263841    0.751376
     30          1           0        6.910000    0.128905   -0.686607
     31          1           0        6.039994   -1.276070   -1.292194
     32          1           0        6.793894   -2.610032    0.705018
     33          1           0        7.668843   -1.197075    1.314046
     34          1           0        8.183360   -1.974977   -0.192423
 ---------------------------------------------------------------------

 SCF Done:  E(RHF) =  -669.535111888     A.U. after   15 cycles
 E2 =    -0.2091572003D+01 EUMP2 =    -0.67162668389101D+03

 The electronic state is 1-A.
 Alpha  occ. eigenvalues --  -20.60722 -20.60717 -15.85774 -11.31127 -11.27693
 Alpha  occ. eigenvalues --  -11.27685 -11.27381 -11.26699 -11.26665 -11.22562
 Alpha  occ. eigenvalues --  -11.22409 -11.22144 -11.22072 -11.21946 -11.21443
 Alpha  occ. eigenvalues --   -1.59797  -1.39351  -1.19293  -1.09148  -1.08686
 Alpha  occ. eigenvalues --   -1.04696  -1.04292  -0.96779  -0.95523  -0.87807
 Alpha  occ. eigenvalues --   -0.86084  -0.82362  -0.80369  -0.78902  -0.77413
 Alpha  occ. eigenvalues --   -0.71992  -0.71121  -0.70418  -0.65792  -0.64943
 Alpha  occ. eigenvalues --   -0.64711  -0.62105  -0.61626  -0.60192  -0.58352
 Alpha  occ. eigenvalues --   -0.56059  -0.55241  -0.53446  -0.53208  -0.52972
 Alpha  occ. eigenvalues --   -0.52772  -0.50695  -0.48760  -0.48748  -0.48657
 Alpha  occ. eigenvalues --   -0.47376  -0.46457  -0.46350  -0.44760  -0.44527
 Alpha  occ. eigenvalues --   -0.37258  -0.36300
 Alpha virt. eigenvalues --    0.05100   0.11317   0.16544   0.19896   0.22483
 Alpha virt. eigenvalues --    0.23834   0.25473   0.26303   0.26482   0.27143
 Alpha virt. eigenvalues --    0.28977   0.29649   0.31129   0.31488   0.32380

 Mulliken charges:
               1
     1  C   -0.174842
     2  C   -0.221084
     3  C   -0.171735
     4  C    0.158674
     5  C   -0.171132
     6  C   -0.218932
     7  H    0.230008
     8  H    0.227614
     9  H    0.275273
    10  H    0.275289
    11  H    0.223199
    12  N    0.488052
    13  O   -0.460600
    14  O   -0.460685
    15  C   -0.299099
    16  C   -0.299972
    17  C   -0.483619
    18  H    0.151227
    19  H    0.148977
    20  H    0.156035
    21  H    0.153860
    22  H    0.150262
    23  H    0.160787
    24  H    0.157275
    25  C   -0.298989
    26  C   -0.300154
    27  C   -0.476144
    28  H    0.150923
    29  H    0.150922
    30  H    0.152499
    31  H    0.152367
    32  H    0.156170
    33  H    0.155867
    34  H    0.161708
 Sum of Mulliken charges =  -0.00000

 Dipole moment (field-independent basis, Debye):
    X=              3.8650    Y=              3.7389    Z=             -0.3565  Tot=              5.3893
 Quadrupole moment (field-independent basis, Debye-Ang):
   XX=           -120.2706   YY=            -94.6179   ZZ=            -94.6682
   XY=            -16.7296   XZ=             -0.1274   YZ=              2.2410

 Normal termination of Gaussian 16 at Wed May  5 17:19:38 2021.
