 Gaussian 16, Revision A.03,
 Gaussian 16:  EM64L-G16RevA.03 25-Dec-2016

 -------------
 #p 6-31g* mp2
 -------------

 ------------------------------------------------------
 Input file generated by CHIRIPA (05-May-2021 14:53:11)
 ------------------------------------------------------
 Symbolic Z-matrix:
 Charge =  0 Multiplicity = 1

                         Standard orientation:
 ---------------------------------------------------------------------
 Center     Atomic      Atomic             Coordinates (Angstroms)
 Number     Number       Type             X           Y           Z
 ---------------------------------------------------------------------
      1          6           0        4.408475    0.090452   -0.195611
      2          6           0        5.887693   -0.245523   -0.003207
      3          6           0        6.809739    0.648557   -0.832812
      4          1           0        4.152964   -0.004111   -1.259903
      5          1           0        4.240503    1.142376    0.073899
      6          1           0        6.052566   -1.296882   -0.271680
      7          1           0        6.139666   -0.150336    1.060779
      8          1           0        6.674477    1.700126   -0.559851
      9          1           0        6.586882    0.547066   -1.899881
     10          1           0        7.862484    0.391124   -0.680114
     11          6           0        3.474154   -0.794826    0.627223
     12          6           0        1.994936   -0.458851    0.434819
     13          6           0        1.072890   -1.352931    1.264424
     14          1           0        3.642126   -1.846751    0.357713
     15          1           0        3.729665   -0.700264    1.691515
     16          1           0        1.742963   -0.554038   -0.629167
     17          1           0        1.830063    0.592508    0.703292
     18          1           0        1.295747   -1.251440    2.331493
     19          1           0        1.208151   -2.404500    0.991464
     20          1           0        0.020145   -1.095498    1.111726
     21          6           0       -1.798558    2.433266    0.093165
     22          6           0       -3.146809    2.370391    0.460296
     23          6           0       -3.866207    1.179919    0.319614
     24          6           0       -3.202955    0.066507   -0.193905
     25          6           0       -1.860597    0.097557   -0.568609
     26          6           0       -1.160879    1.298649   -0.419212
     27          1           0       -1.247356    3.362178    0.205835
     28          1           0       -3.644621    3.249973    0.858495
     29          1           0       -4.910808    1.103364    0.595961
     30          1           0       -1.391561   -0.795858   -0.962606
     31          1           0       -0.113896    1.344557   -0.705156
     32          7           0       -3.954133   -1.199414   -0.347452
     33          8           0       -3.346837   -2.166314   -0.802351
     34          8           0       -5.135978   -1.200773   -0.009994
 ---------------------------------------------------------------------

 SCF Done:  E(RHF) =  -669.534158393     A.U. after   15 cycles
 E2 =    -0.2093469737D+01 EUMP2 =    -0.67162762813048D+03

 The electronic state is 1-A.
 Alpha  occ. eigenvalues --  -20.60754 -20.60749 -15.85807 -11.31180 -11.27736
 Alpha  occ. eigenvalues --  -11.27708 -11.27463 -11.26760 -11.26672 -11.22431
 Alpha  occ. eigenvalues --  -11.22033 -11.21973 -11.21908 -11.21453 -11.21449
 Alpha  occ. eigenvalues --   -1.59829  -1.39383  -1.19351  -1.09011  -1.08735
 Alpha  occ. eigenvalues --   -1.04778  -1.04057  -0.96477  -0.95574  -0.87490
 Alpha  occ. eigenvalues --   -0.86143  -0.82413  -0.80183  -0.78849  -0.77443
 Alpha  occ. eigenvalues --   -0.72025  -0.71154  -0.70463  -0.65639  -0.64999
 Alpha  occ. eigenvalues --   -0.64741  -0.62211  -0.61461  -0.59811  -0.58102
 Alpha  occ. eigenvalues --   -0.55736  -0.55233  -0.53470  -0.53051  -0.52864
 Alpha  occ. eigenvalues --   -0.52567  -0.50399  -0.48803  -0.48779  -0.48421
 Alpha  occ. eigenvalues --   -0.47214  -0.46348  -0.46282  -0.44789  -0.44317
 Alpha  occ. eigenvalues --   -0.37327  -0.36278
 Alpha virt. eigenvalues --    0.05045   0.11206   0.16481   0.20474   0.22561
 Alpha virt. eigenvalues --    0.23987   0.25739   0.25908   0.27148   0.28302
 Alpha virt. eigenvalues --    0.29072   0.30456   0.30831   0.31678   0.32037

 Mulliken charges:
               1
     1  C   -0.298801
     2  C   -0.300109
     3  C   -0.476015
     4  H    0.149146
     5  H    0.146948
     6  H    0.153894
     7  H    0.152965
     8  H    0.154535
     9  H    0.155564
    10  H    0.162018
    11  C   -0.297497
    12  C   -0.305098
    13  C   -0.482338
    14  H    0.153457
    15  H    0.152324
    16  H    0.145223
    17  H    0.146853
    18  H    0.158001
    19  H    0.160480
    20  H    0.165850
    21  C   -0.172272
    22  C   -0.218105
    23  C   -0.171453
    24  C    0.158499
    25  C   -0.176566
    26  C   -0.218421
    27  H    0.225453
    28  H    0.223323
    29  H    0.275535
    30  H    0.277880
    31  H    0.231246
    32  N    0.488413
    33  O   -0.460507
    34  O   -0.460425
 Sum of Mulliken charges =  -0.00000

 Dipole moment (field-independent basis, Debye):
    X=              2.7482    Y=              4.3970    Z=              0.5952  Tot=              5.2192
 Quadrupole moment (field-independent basis, Debye-Ang):
   XX=           -108.7225   YY=            -93.4412   ZZ=            -94.7004
   XY=            -16.9400   XZ=             -3.4214   YZ=              0.8661

 Normal termination of Gaussian 16 at Wed May  5 21:41:40 2021.
