 Gaussian 16, Revision A.03,
 Gaussian 16:  EM64L-G16RevA.03 25-Dec-2016

 -------------
 #p 6-31g* mp2
 -------------

 ------------------------------------------------------
 Input file generated by CHIRIPA (05-May-2021 14:51:09)
 ------------------------------------------------------
 Symbolic Z-matrix:
 Charge =  0 Multiplicity = 1

                         Standard orientation:
 ---------------------------------------------------------------------
 Center     Atomic      Atomic             Coordinates (Angstroms)
 Number     Number       Type             X           Y           Z
 ---------------------------------------------------------------------
      1          6           0       -3.160919    0.032807    0.269071
      2          6           0       -3.188153    1.327489   -0.543975
      3          6           0       -4.118861    2.382309    0.055134
      4          1           0       -4.180155   -0.371531    0.336998
      5          1           0       -2.845657    0.260044    1.296868
      6          1           0       -3.501936    1.097674   -1.570299
      7          1           0       -2.168704    1.728690   -0.610137
      8          1           0       -3.804830    2.640429    1.071677
      9          1           0       -5.145637    2.005828    0.106059
     10          1           0       -4.123070    3.299606   -0.541866
     11          6           0       -2.234965   -1.031406   -0.317264
     12          6           0       -2.207732   -2.326087    0.495782
     13          6           0       -1.277024   -3.380907   -0.103327
     14          1           0       -2.550227   -1.258642   -1.345062
     15          1           0       -1.215730   -0.627067   -0.385192
     16          1           0       -3.227181   -2.727288    0.561944
     17          1           0       -1.893949   -2.096273    1.522106
     18          1           0       -0.250247   -3.004427   -0.154252
     19          1           0       -1.591055   -3.639028   -1.119870
     20          1           0       -1.272814   -4.298204    0.493672
     21          6           0        2.639265   -0.196859    0.332890
     22          6           0        3.260864   -1.296656   -0.528531
     23          6           0        3.135556   -2.683669    0.102568
     24          1           0        3.121064   -0.196912    1.320217
     25          1           0        1.578753   -0.429050    0.502589
     26          1           0        4.319549   -1.061746   -0.697709
     27          1           0        2.777662   -1.293859   -1.513987
     28          1           0        2.083148   -2.943373    0.256162
     29          1           0        3.633795   -2.709941    1.077078
     30          1           0        3.586457   -3.454736   -0.529891
     31          6           0        2.756620    1.195457   -0.284696
     32          6           0        2.135020    2.295254    0.576725
     33          6           0        2.260329    3.682267   -0.054375
     34          1           0        3.817131    1.427649   -0.454396
     35          1           0        2.274821    1.195511   -1.272024
     36          1           0        2.618222    2.292457    1.562181
     37          1           0        1.076336    2.060345    0.745903
     38          1           0        1.762090    3.708539   -1.028885
     39          1           0        3.312737    3.941970   -0.207968
     40          1           0        1.809428    4.453335    0.578084
 ---------------------------------------------------------------------

 SCF Done:  E(RHF) =  -470.733362386     A.U. after   11 cycles
 E2 =    -0.1583413517D+01 EUMP2 =    -0.47231677590305D+03

 The electronic state is 1-A.
 Alpha  occ. eigenvalues --  -11.21655 -11.21650 -11.21649 -11.21625 -11.21465
 Alpha  occ. eigenvalues --  -11.21456 -11.21402 -11.21395 -11.21113 -11.21105
 Alpha  occ. eigenvalues --  -11.21100 -11.21061  -1.08493  -1.08465  -1.03591
 Alpha  occ. eigenvalues --   -1.03550  -0.96050  -0.95989  -0.87076  -0.86995
 Alpha  occ. eigenvalues --   -0.79677  -0.79589  -0.78333  -0.78252  -0.65250
 Alpha  occ. eigenvalues --   -0.64979  -0.61143  -0.60815  -0.59400  -0.59368
 Alpha  occ. eigenvalues --   -0.57687  -0.57583  -0.55533  -0.55108  -0.52722
 Alpha  occ. eigenvalues --   -0.52696  -0.52532  -0.52353  -0.50173  -0.49737
 Alpha  occ. eigenvalues --   -0.48060  -0.47854  -0.46831  -0.46493  -0.46064
 Alpha  occ. eigenvalues --   -0.45798  -0.45795  -0.45469  -0.43833  -0.43819
 Alpha virt. eigenvalues --    0.19045   0.22275   0.23721   0.25019   0.25454
 Alpha virt. eigenvalues --    0.26540   0.27045   0.27288   0.28653   0.29637
 Alpha virt. eigenvalues --    0.30607   0.31626   0.31677   0.31749   0.31977

 Mulliken charges:
               1
     1  C   -0.298230
     2  C   -0.300150
     3  C   -0.475718
     4  H    0.150002
     5  H    0.149757
     6  H    0.152069
     7  H    0.151803
     8  H    0.155369
     9  H    0.155303
    10  H    0.160470
    11  C   -0.301554
    12  C   -0.299187
    13  C   -0.483261
    14  H    0.149872
    15  H    0.151235
    16  H    0.152358
    17  H    0.152227
    18  H    0.161335
    19  H    0.155657
    20  H    0.160919
    21  C   -0.301896
    22  C   -0.299443
    23  C   -0.482684
    24  H    0.150047
    25  H    0.151100
    26  H    0.152231
    27  H    0.152238
    28  H    0.161660
    29  H    0.155272
    30  H    0.160763
    31  C   -0.298233
    32  C   -0.300144
    33  C   -0.475756
    34  H    0.149935
    35  H    0.149960
    36  H    0.152184
    37  H    0.151304
    38  H    0.155370
    39  H    0.155403
    40  H    0.160414
 Sum of Mulliken charges =  -0.00000

 Dipole moment (field-independent basis, Debye):
    X=             -0.0056    Y=             -0.0055    Z=             -0.0024  Tot=              0.0082
 Quadrupole moment (field-independent basis, Debye-Ang):
   XX=            -83.6419   YY=            -86.4407   ZZ=            -84.4378
   XY=              0.9723   XZ=              1.0696   YZ=              0.3542

 Normal termination of Gaussian 16 at Thu May  6 00:32:25 2021.
