 Gaussian 16, Revision A.03,
 Gaussian 16:  EM64L-G16RevA.03 25-Dec-2016

 -------------
 #p 6-31g* mp2
 -------------

 ------------------------------------------------------
 Input file generated by CHIRIPA (05-May-2021 14:53:15)
 ------------------------------------------------------
 Symbolic Z-matrix:
 Charge =  0 Multiplicity = 1

                         Standard orientation:
 ---------------------------------------------------------------------
 Center     Atomic      Atomic             Coordinates (Angstroms)
 Number     Number       Type             X           Y           Z
 ---------------------------------------------------------------------
      1          6           0        3.438393   -0.587155    0.232033
      2          6           0        4.533875   -1.652903    0.186345
      3          6           0        4.014039   -3.049965    0.526612
      4          1           0        2.986214   -0.577900    1.233229
      5          1           0        2.638859   -0.862821   -0.469500
      6          1           0        5.331752   -1.374598    0.886741
      7          1           0        4.983629   -1.659490   -0.814801
      8          1           0        3.232971   -3.352640   -0.178315
      9          1           0        3.583073   -3.066130    1.532896
     10          1           0        4.813652   -3.796280    0.487973
     11          6           0        3.942584    0.814757   -0.105845
     12          6           0        2.847102    1.880505   -0.060157
     13          6           0        3.366938    3.277567   -0.400424
     14          1           0        4.742118    1.090423    0.595689
     15          1           0        4.394763    0.805502   -1.107041
     16          1           0        2.397348    1.887092    0.940990
     17          1           0        2.049225    1.602200   -0.760553
     18          1           0        3.797905    3.293732   -1.406707
     19          1           0        4.148006    3.580242    0.304503
     20          1           0        2.567325    4.023882   -0.361785
     21          6           0       -5.384858   -0.054251    0.276901
     22          6           0       -4.784285   -1.108148   -0.419614
     23          6           0       -3.399076   -1.137699   -0.606359
     24          6           0       -2.641342   -0.092257   -0.080827
     25          6           0       -3.210252    0.971562    0.617685
     26          6           0       -4.597314    0.980416    0.792420
     27          1           0       -6.461640   -0.039334    0.417303
     28          1           0       -5.393412   -1.913032   -0.821074
     29          1           0       -2.908142   -1.941418   -1.141557
     30          1           0       -2.576812    1.759704    1.006276
     31          1           0       -5.061002    1.800162    1.333764
     32          7           0       -1.173904   -0.112585   -0.272168
     33          8           0       -0.528486    0.820442    0.200624
     34          8           0       -0.696930   -1.061163   -0.891309
 ---------------------------------------------------------------------

 SCF Done:  E(RHF) =  -669.536166235     A.U. after   15 cycles
 E2 =    -0.2091805592D+01 EUMP2 =    -0.67162797182744D+03

 The electronic state is 1-A.
 Alpha  occ. eigenvalues --  -20.61040 -20.61031 -15.86048 -11.31350 -11.27908
 Alpha  occ. eigenvalues --  -11.27905 -11.27640 -11.26909 -11.26899 -11.20329
 Alpha  occ. eigenvalues --  -11.19957 -11.19845 -11.19747 -11.19665 -11.19654
 Alpha  occ. eigenvalues --   -1.60085  -1.39643  -1.19514  -1.08923  -1.06870
 Alpha  occ. eigenvalues --   -1.04906  -1.02086  -0.95768  -0.94590  -0.86307
 Alpha  occ. eigenvalues --   -0.85612  -0.82605  -0.78120  -0.77656  -0.76610
 Alpha  occ. eigenvalues --   -0.72254  -0.71395  -0.70622  -0.65169  -0.64908
 Alpha  occ. eigenvalues --   -0.63517  -0.62253  -0.59500  -0.57954  -0.56171
 Alpha  occ. eigenvalues --   -0.55412  -0.53900  -0.53239  -0.52997  -0.51339
 Alpha  occ. eigenvalues --   -0.51005  -0.49101  -0.49035  -0.48537  -0.46404
 Alpha  occ. eigenvalues --   -0.45194  -0.45004  -0.44176  -0.43957  -0.42314
 Alpha  occ. eigenvalues --   -0.37491  -0.36505
 Alpha virt. eigenvalues --    0.04859   0.11150   0.16360   0.21287   0.24328
 Alpha virt. eigenvalues --    0.25615   0.27210   0.28123   0.28192   0.29088
 Alpha virt. eigenvalues --    0.29423   0.30894   0.32374   0.32714   0.33114

 Mulliken charges:
               1
     1  C   -0.300635
     2  C   -0.298542
     3  C   -0.474728
     4  H    0.147687
     5  H    0.167907
     6  H    0.146644
     7  H    0.148423
     8  H    0.158412
     9  H    0.152666
    10  H    0.154390
    11  C   -0.298763
    12  C   -0.297660
    13  C   -0.475625
    14  H    0.141604
    15  H    0.143923
    16  H    0.152980
    17  H    0.170514
    18  H    0.150134
    19  H    0.148784
    20  H    0.155893
    21  C   -0.170484
    22  C   -0.218585
    23  C   -0.170545
    24  C    0.157873
    25  C   -0.170813
    26  C   -0.218558
    27  H    0.226197
    28  H    0.224004
    29  H    0.275881
    30  H    0.275923
    31  H    0.224024
    32  N    0.489682
    33  O   -0.458392
    34  O   -0.460214
 Sum of Mulliken charges =  -0.00000

 Dipole moment (field-independent basis, Debye):
    X=             -5.6814    Y=              0.0097    Z=              0.6249  Tot=              5.7157
 Quadrupole moment (field-independent basis, Debye-Ang):
   XX=            -70.0656   YY=            -93.3520   ZZ=            -93.4572
   XY=              0.2331   XZ=             -1.1428   YZ=              3.0902

 Normal termination of Gaussian 16 at Thu May  6 04:17:37 2021.
