 Gaussian 16, Revision A.03,
 Gaussian 16:  EM64L-G16RevA.03 25-Dec-2016

 -------------
 #p 6-31g* mp2
 -------------

 ------------------------------------------------------
 Input file generated by CHIRIPA (05-May-2021 14:53:15)
 ------------------------------------------------------
 Symbolic Z-matrix:
 Charge =  0 Multiplicity = 1

                         Standard orientation:
 ---------------------------------------------------------------------
 Center     Atomic      Atomic             Coordinates (Angstroms)
 Number     Number       Type             X           Y           Z
 ---------------------------------------------------------------------
      1          6           0        5.414739    0.057868   -0.106311
      2          6           0        5.955082   -1.369513   -0.199019
      3          6           0        7.471634   -1.416405   -0.387875
      4          1           0        5.689374    0.606998   -1.017341
      5          1           0        5.905474    0.574661    0.730050
      6          1           0        5.462464   -1.883897   -1.034095
      7          1           0        5.678963   -1.915366    0.712254
      8          1           0        7.979466   -0.927678    0.449891
      9          1           0        7.761736   -0.896031   -1.306381
     10          1           0        7.836602   -2.446253   -0.451679
     11          6           0        3.900133    0.121198    0.082600
     12          6           0        3.359790    1.548580    0.175309
     13          6           0        1.843238    1.595471    0.364165
     14          1           0        3.409398   -0.395595   -0.753761
     15          1           0        3.625498   -0.427932    0.993631
     16          1           0        3.635908    2.094432   -0.735965
     17          1           0        3.852408    2.062964    1.010385
     18          1           0        1.553135    1.075097    1.282670
     19          1           0        1.335405    1.106744   -0.473602
     20          1           0        1.478270    2.625319    0.427968
     21          6           0       -2.286818    2.059943    0.055285
     22          6           0       -3.523183    2.029538   -0.598166
     23          6           0       -4.280732    0.854952   -0.630016
     24          6           0       -3.769310   -0.275858    0.004812
     25          6           0       -2.541019   -0.277177    0.664047
     26          6           0       -1.800539    0.908518    0.683199
     27          1           0       -1.704966    2.976703    0.075095
     28          1           0       -3.903324    2.922234   -1.086664
     29          1           0       -5.240999    0.803520   -1.128673
     30          1           0       -2.188321   -1.183027    1.142020
     31          1           0       -0.840688    0.929207    1.191436
     32          7           0       -4.562257   -1.525219   -0.022185
     33          8           0       -4.089533   -2.507984    0.544688
     34          8           0       -5.641478   -1.498048   -0.609705
 ---------------------------------------------------------------------

 SCF Done:  E(RHF) =  -669.535247480     A.U. after   15 cycles
 E2 =    -0.2091415915D+01 EUMP2 =    -0.67162666339446D+03

 The electronic state is 1-A.
 Alpha  occ. eigenvalues --  -20.60690 -20.60685 -15.85741 -11.31082 -11.27648
 Alpha  occ. eigenvalues --  -11.27620 -11.27364 -11.26665 -11.26555 -11.22452
 Alpha  occ. eigenvalues --  -11.22306 -11.22027 -11.21974 -11.21856 -11.21371
 Alpha  occ. eigenvalues --   -1.59766  -1.39320  -1.19245  -1.09043  -1.08642
 Alpha  occ. eigenvalues --   -1.04645  -1.04191  -0.96683  -0.95483  -0.87733
 Alpha  occ. eigenvalues --   -0.86026  -0.82317  -0.80288  -0.78807  -0.77363
 Alpha  occ. eigenvalues --   -0.71959  -0.71088  -0.70352  -0.65667  -0.64892
 Alpha  occ. eigenvalues --   -0.64654  -0.62017  -0.61576  -0.60076  -0.58253
 Alpha  occ. eigenvalues --   -0.55971  -0.55141  -0.53487  -0.53214  -0.52957
 Alpha  occ. eigenvalues --   -0.52526  -0.50609  -0.48746  -0.48717  -0.48525
 Alpha  occ. eigenvalues --   -0.47275  -0.46357  -0.46248  -0.44731  -0.44432
 Alpha  occ. eigenvalues --   -0.37219  -0.36237
 Alpha virt. eigenvalues --    0.05158   0.11351   0.16658   0.20499   0.22365
 Alpha virt. eigenvalues --    0.23831   0.25534   0.26209   0.26620   0.27603
 Alpha virt. eigenvalues --    0.28811   0.29624   0.31007   0.31674   0.32366

 Mulliken charges:
               1
     1  C   -0.298884
     2  C   -0.300255
     3  C   -0.476086
     4  H    0.150582
     5  H    0.150204
     6  H    0.153180
     7  H    0.152689
     8  H    0.155473
     9  H    0.155618
    10  H    0.161886
    11  C   -0.299444
    12  C   -0.299606
    13  C   -0.483781
    14  H    0.151567
    15  H    0.149912
    16  H    0.154884
    17  H    0.154225
    18  H    0.150278
    19  H    0.161892
    20  H    0.156501
    21  C   -0.174178
    22  C   -0.218559
    23  C   -0.171588
    24  C    0.158802
    25  C   -0.173721
    26  C   -0.221872
    27  H    0.225712
    28  H    0.222795
    29  H    0.275071
    30  H    0.275243
    31  H    0.234969
    32  N    0.488033
    33  O   -0.460713
    34  O   -0.460829
 Sum of Mulliken charges =  -0.00000

 Dipole moment (field-independent basis, Debye):
    X=              3.0514    Y=              4.3882    Z=              0.0537  Tot=              5.3452
 Quadrupole moment (field-independent basis, Debye-Ang):
   XX=           -114.2257   YY=            -96.7508   ZZ=            -93.0078
   XY=            -19.2420   XZ=              2.0161   YZ=             -1.5326

 Normal termination of Gaussian 16 at Thu May  6 18:49:45 2021.
