 Gaussian 16, Revision A.03,
 Gaussian 16:  EM64L-G16RevA.03 25-Dec-2016

 -------------
 #p 6-31g* mp2
 -------------

 ------------------------------------------------------
 Input file generated by CHIRIPA (05-May-2021 14:55:22)
 ------------------------------------------------------
 Symbolic Z-matrix:
 Charge =  0 Multiplicity = 1

                         Standard orientation:
 ---------------------------------------------------------------------
 Center     Atomic      Atomic             Coordinates (Angstroms)
 Number     Number       Type             X           Y           Z
 ---------------------------------------------------------------------
      1          6           0       -0.826153   -1.687893    0.190618
      2          6           0       -0.960091   -0.456311    0.840070
      3          6           0       -2.166301    0.248313    0.784290
      4          6           0       -3.222816   -0.310582    0.066861
      5          6           0       -3.120409   -1.535484   -0.590723
      6          6           0       -1.904838   -2.222606   -0.521451
      7          1           0        0.114495   -2.228463    0.239190
      8          1           0       -0.124054   -0.038627    1.393810
      9          1           0       -2.297380    1.203662    1.277792
     10          1           0       -3.971555   -1.926370   -1.134945
     11          1           0       -1.803691   -3.178869   -1.026797
     12          7           0       -4.504731    0.426107    0.000667
     13          8           0       -5.420542   -0.087794   -0.637951
     14          8           0       -4.569412    1.503476    0.588655
     15          6           0        3.626813    1.178405   -0.474088
     16          6           0        2.449892    1.890066    0.194029
     17          6           0        2.005317    3.139448   -0.567015
     18          1           0        4.469985    1.877635   -0.558249
     19          1           0        3.345374    0.903206   -1.499979
     20          1           0        2.732989    2.162613    1.218817
     21          1           0        1.609489    1.189002    0.276783
     22          1           0        1.696615    2.880908   -1.585082
     23          1           0        2.826498    3.860050   -0.637695
     24          1           0        1.162915    3.632551   -0.071971
     25          6           0        4.082730   -0.072491    0.274994
     26          6           0        5.259651   -0.784152   -0.393123
     27          6           0        5.704227   -2.033534    0.367921
     28          1           0        4.364170    0.202709    1.300886
     29          1           0        3.239559   -0.771722    0.359155
     30          1           0        6.100055   -0.083089   -0.475877
     31          1           0        4.976555   -1.056699   -1.417911
     32          1           0        4.883045   -2.754136    0.438601
     33          1           0        6.012930   -1.774994    1.385988
     34          1           0        6.546629   -2.526637   -0.127123
 ---------------------------------------------------------------------

 SCF Done:  E(RHF) =  -669.535477040     A.U. after   15 cycles
 E2 =    -0.2091582657D+01 EUMP2 =    -0.67162705969664D+03

 The electronic state is 1-A.
 Alpha  occ. eigenvalues --  -20.60774 -20.60769 -15.85828 -11.31206 -11.27782
 Alpha  occ. eigenvalues --  -11.27773 -11.27530 -11.26795 -11.26759 -11.22389
 Alpha  occ. eigenvalues --  -11.22313 -11.22233 -11.22097 -11.21748 -11.21625
 Alpha  occ. eigenvalues --   -1.59849  -1.39402  -1.19382  -1.09192  -1.08775
 Alpha  occ. eigenvalues --   -1.04787  -1.04234  -0.96664  -0.95607  -0.87677
 Alpha  occ. eigenvalues --   -0.86186  -0.82439  -0.80316  -0.79033  -0.77479
 Alpha  occ. eigenvalues --   -0.72046  -0.71172  -0.70490  -0.65853  -0.65033
 Alpha  occ. eigenvalues --   -0.64782  -0.62176  -0.61589  -0.60034  -0.58287
 Alpha  occ. eigenvalues --   -0.55950  -0.55286  -0.53344  -0.53123  -0.53089
 Alpha  occ. eigenvalues --   -0.52878  -0.50596  -0.48823  -0.48800  -0.48598
 Alpha  occ. eigenvalues --   -0.47339  -0.46558  -0.46474  -0.44805  -0.44500
 Alpha  occ. eigenvalues --   -0.37358  -0.36373
 Alpha virt. eigenvalues --    0.05051   0.11133   0.16494   0.19633   0.22612
 Alpha virt. eigenvalues --    0.23562   0.25113   0.26255   0.26878   0.27789
 Alpha virt. eigenvalues --    0.29732   0.29898   0.30946   0.31356   0.31958

 Mulliken charges:
               1
     1  C   -0.172811
     2  C   -0.219376
     3  C   -0.171991
     4  C    0.158535
     5  C   -0.170650
     6  C   -0.218537
     7  H    0.225978
     8  H    0.227940
     9  H    0.275876
    10  H    0.275733
    11  H    0.223494
    12  N    0.488100
    13  O   -0.460403
    14  O   -0.460268
    15  C   -0.298175
    16  C   -0.306116
    17  C   -0.475390
    18  H    0.153191
    19  H    0.151434
    20  H    0.152045
    21  H    0.147227
    22  H    0.158206
    23  H    0.157788
    24  H    0.161480
    25  C   -0.296767
    26  C   -0.300299
    27  C   -0.475516
    28  H    0.151135
    29  H    0.139176
    30  H    0.155016
    31  H    0.152707
    32  H    0.151766
    33  H    0.156571
    34  H    0.162899
 Sum of Mulliken charges =  -0.00000

 Dipole moment (field-independent basis, Debye):
    X=              4.6420    Y=             -2.5215    Z=              0.1725  Tot=              5.2855
 Quadrupole moment (field-independent basis, Debye-Ang):
   XX=           -122.7203   YY=            -91.0886   ZZ=            -93.6154
   XY=              9.6110   XZ=              0.8325   YZ=              2.8052

 Normal termination of Gaussian 16 at Wed May  5 17:29:46 2021.
