 Gaussian 16, Revision A.03,
 Gaussian 16:  EM64L-G16RevA.03 25-Dec-2016

 -------------
 #p 6-31g* mp2
 -------------

 ------------------------------------------------------
 Input file generated by CHIRIPA (05-May-2021 14:51:13)
 ------------------------------------------------------
 Symbolic Z-matrix:
 Charge =  0 Multiplicity = 1

                         Standard orientation:
 ---------------------------------------------------------------------
 Center     Atomic      Atomic             Coordinates (Angstroms)
 Number     Number       Type             X           Y           Z
 ---------------------------------------------------------------------
      1          6           0        2.905528    0.582884    0.049156
      2          6           0        2.714035   -0.919054    0.262455
      3          6           0        4.038949   -1.673189    0.379414
      4          1           0        3.502544    0.744658   -0.858779
      5          1           0        3.489582    0.993271    0.884536
      6          1           0        2.129334   -1.326235   -0.572377
      7          1           0        2.117244   -1.077266    1.169882
      8          1           0        4.624556   -1.294518    1.223377
      9          1           0        4.636714   -1.544901   -0.528782
     10          1           0        3.878684   -2.745127    0.531482
     11          6           0        1.590075    1.350474   -0.069660
     12          6           0        1.781568    2.852412   -0.282958
     13          6           0        0.456654    3.606547   -0.399918
     14          1           0        1.006021    0.940087   -0.905040
     15          1           0        0.993059    1.188700    0.838275
     16          1           0        2.378359    3.010624   -1.190386
     17          1           0        2.366270    3.259593    0.551874
     18          1           0       -0.141111    3.478259    0.508278
     19          1           0       -0.128953    3.227876   -1.243881
     20          1           0        0.616919    4.678484   -0.551985
     21          6           0       -2.081851   -1.598589   -0.385453
     22          6           0       -0.948085   -2.419300    0.230174
     23          6           0       -0.627697   -3.680394   -0.572812
     24          1           0       -2.980896   -2.225515   -0.460464
     25          1           0       -1.808019   -1.320636   -1.412659
     26          1           0       -1.223384   -2.694447    1.256390
     27          1           0       -0.051689   -1.790288    0.303905
     28          1           0       -0.327831   -3.421429   -1.593409
     29          1           0       -1.506184   -4.330725   -0.635513
     30          1           0        0.185607   -4.252040   -0.114972
     31          6           0       -2.413753   -0.334769    0.405956
     32          6           0       -3.547518    0.485942   -0.209670
     33          6           0       -3.867906    1.747036    0.593316
     34          1           0       -2.687584   -0.612722    1.433163
     35          1           0       -1.514707    0.292157    0.480968
     36          1           0       -4.443914   -0.143070   -0.283401
     37          1           0       -3.272219    0.761089   -1.235886
     38          1           0       -2.989419    2.397366    0.656016
     39          1           0       -4.167772    1.488071    1.613913
     40          1           0       -4.681210    2.318682    0.135476
 ---------------------------------------------------------------------

 SCF Done:  E(RHF) =  -470.732336868     A.U. after   11 cycles
 E2 =    -0.1585274252D+01 EUMP2 =    -0.47231761111997D+03

 The electronic state is 1-A.
 Alpha  occ. eigenvalues --  -11.21714 -11.21673 -11.21527 -11.21512 -11.21459
 Alpha  occ. eigenvalues --  -11.21369 -11.21275 -11.21214 -11.21186 -11.21130
 Alpha  occ. eigenvalues --  -11.20995 -11.20990  -1.08564  -1.08300  -1.03649
 Alpha  occ. eigenvalues --   -1.03407  -0.96086  -0.95876  -0.87106  -0.86890
 Alpha  occ. eigenvalues --   -0.79814  -0.79407  -0.78543  -0.77973  -0.65180
 Alpha  occ. eigenvalues --   -0.64946  -0.61034  -0.60864  -0.59491  -0.59189
 Alpha  occ. eigenvalues --   -0.57770  -0.57424  -0.55366  -0.55173  -0.52780
 Alpha  occ. eigenvalues --   -0.52579  -0.52546  -0.52254  -0.50040  -0.49803
 Alpha  occ. eigenvalues --   -0.48321  -0.47618  -0.46742  -0.46635  -0.46319
 Alpha  occ. eigenvalues --   -0.45813  -0.45641  -0.44888  -0.43881  -0.43660
 Alpha virt. eigenvalues --    0.20522   0.22031   0.23567   0.24698   0.25194
 Alpha virt. eigenvalues --    0.26023   0.26628   0.27929   0.28697   0.29640
 Alpha virt. eigenvalues --    0.30886   0.31437   0.31633   0.31728   0.31901

 Mulliken charges:
               1
     1  C   -0.297570
     2  C   -0.305583
     3  C   -0.474716
     4  H    0.149878
     5  H    0.149885
     6  H    0.155224
     7  H    0.154916
     8  H    0.155290
     9  H    0.155273
    10  H    0.160718
    11  C   -0.303186
    12  C   -0.299512
    13  C   -0.478245
    14  H    0.150121
    15  H    0.152960
    16  H    0.152441
    17  H    0.152493
    18  H    0.156663
    19  H    0.155545
    20  H    0.161274
    21  C   -0.296700
    22  C   -0.311383
    23  C   -0.475173
    24  H    0.148879
    25  H    0.147766
    26  H    0.150152
    27  H    0.166127
    28  H    0.153721
    29  H    0.154940
    30  H    0.159537
    31  C   -0.305108
    32  C   -0.298731
    33  C   -0.477855
    34  H    0.148453
    35  H    0.156880
    36  H    0.151560
    37  H    0.151193
    38  H    0.157313
    39  H    0.154592
    40  H    0.159966
 Sum of Mulliken charges =  -0.00000

 Dipole moment (field-independent basis, Debye):
    X=              0.1233    Y=              0.0599    Z=              0.0147  Tot=              0.1379
 Quadrupole moment (field-independent basis, Debye-Ang):
   XX=            -85.3044   YY=            -85.9152   ZZ=            -83.6902
   XY=              1.2303   XZ=             -0.2911   YZ=             -0.5533

 Normal termination of Gaussian 16 at Thu May  6 05:35:04 2021.
