 Gaussian 16, Revision A.03,
 Gaussian 16:  EM64L-G16RevA.03 25-Dec-2016

 -------------
 #p 6-31g* mp2
 -------------

 ------------------------------------------------------
 Input file generated by CHIRIPA (05-May-2021 14:55:19)
 ------------------------------------------------------
 Symbolic Z-matrix:
 Charge =  0 Multiplicity = 1

                         Standard orientation:
 ---------------------------------------------------------------------
 Center     Atomic      Atomic             Coordinates (Angstroms)
 Number     Number       Type             X           Y           Z
 ---------------------------------------------------------------------
      1          6           0        1.136458   -0.745732    1.932893
      2          6           0        0.723894   -0.618082    0.602473
      3          6           0        1.656208   -0.369733   -0.409289
      4          6           0        2.999078   -0.254252   -0.053405
      5          6           0        3.441267   -0.376429    1.262965
      6          6           0        2.491439   -0.624712    2.258319
      7          1           0        0.405411   -0.938630    2.712481
      8          1           0       -0.327742   -0.711596    0.346815
      9          1           0        1.364294   -0.266495   -1.447338
     10          1           0        4.496539   -0.278244    1.486970
     11          1           0        2.814721   -0.723384    3.290694
     12          7           0        3.995348    0.008628   -1.115827
     13          8           0        5.172552    0.106176   -0.776249
     14          8           0        3.580156    0.112149   -2.268015
     15          6           0       -3.604518   -0.362850   -0.328063
     16          6           0       -4.977307   -1.035784   -0.303615
     17          6           0       -4.912642   -2.523523   -0.650379
     18          1           0       -3.158783   -0.489600   -1.324156
     19          1           0       -2.939365   -0.876688    0.379705
     20          1           0       -5.640082   -0.519958   -1.010205
     21          1           0       -5.419909   -0.907252    0.692477
     22          1           0       -4.273471   -3.057314    0.060345
     23          1           0       -4.494896   -2.667819   -1.652011
     24          1           0       -5.904923   -2.984704   -0.626968
     25          6           0       -3.652777    1.124651    0.016525
     26          6           0       -2.279988    1.797583   -0.007924
     27          6           0       -2.344654    3.285322    0.338841
     28          1           0       -4.317931    1.638488   -0.691243
     29          1           0       -4.098512    1.251400    1.012617
     30          1           0       -1.837387    1.669052   -1.004016
     31          1           0       -1.617214    1.281758    0.698667
     32          1           0       -2.762400    3.429619    1.340473
     33          1           0       -2.983824    3.819113   -0.371884
     34          1           0       -1.352372    3.746505    0.315430
 ---------------------------------------------------------------------

 SCF Done:  E(RHF) =  -669.535041852     A.U. after   15 cycles
 E2 =    -0.2092351178D+01 EUMP2 =    -0.67162739302997D+03

 The electronic state is 1-A.
 Alpha  occ. eigenvalues --  -20.60731 -20.60726 -15.85782 -11.31143 -11.27704
 Alpha  occ. eigenvalues --  -11.27683 -11.27445 -11.26730 -11.26642 -11.22397
 Alpha  occ. eigenvalues --  -11.22378 -11.22324 -11.22156 -11.21715 -11.21632
 Alpha  occ. eigenvalues --   -1.59806  -1.39360  -1.19308  -1.09263  -1.08707
 Alpha  occ. eigenvalues --   -1.04707  -1.04248  -0.96691  -0.95545  -0.87704
 Alpha  occ. eigenvalues --   -0.86114  -0.82378  -0.80337  -0.79136  -0.77405
 Alpha  occ. eigenvalues --   -0.72002  -0.71128  -0.70422  -0.65936  -0.64957
 Alpha  occ. eigenvalues --   -0.64686  -0.62076  -0.61626  -0.60051  -0.58314
 Alpha  occ. eigenvalues --   -0.55979  -0.55219  -0.53375  -0.53136  -0.53018
 Alpha  occ. eigenvalues --   -0.52797  -0.50632  -0.48776  -0.48757  -0.48626
 Alpha  occ. eigenvalues --   -0.47371  -0.46581  -0.46539  -0.44766  -0.44534
 Alpha  occ. eigenvalues --   -0.37286  -0.36279
 Alpha virt. eigenvalues --    0.05103   0.11234   0.16580   0.19858   0.22625
 Alpha virt. eigenvalues --    0.23691   0.24817   0.25603   0.27215   0.28266
 Alpha virt. eigenvalues --    0.29553   0.30722   0.31114   0.31358   0.31865

 Mulliken charges:
               1
     1  C   -0.174378
     2  C   -0.221746
     3  C   -0.174231
     4  C    0.158863
     5  C   -0.171390
     6  C   -0.218102
     7  H    0.224790
     8  H    0.235157
     9  H    0.275731
    10  H    0.275355
    11  H    0.223110
    12  N    0.488052
    13  O   -0.460616
    14  O   -0.460498
    15  C   -0.302184
    16  C   -0.299651
    17  C   -0.476391
    18  H    0.150883
    19  H    0.140872
    20  H    0.155681
    21  H    0.153165
    22  H    0.153497
    23  H    0.156907
    24  H    0.163322
    25  C   -0.298121
    26  C   -0.304474
    27  C   -0.475861
    28  H    0.153858
    29  H    0.150673
    30  H    0.151957
    31  H    0.148263
    32  H    0.155294
    33  H    0.157918
    34  H    0.164296
 Sum of Mulliken charges =  -0.00000

 Dipole moment (field-independent basis, Debye):
    X=             -3.7001    Y=             -0.8496    Z=              3.6912  Tot=              5.2951
 Quadrupole moment (field-independent basis, Debye-Ang):
   XX=           -112.6798   YY=            -95.9175   ZZ=            -92.2304
   XY=             -2.1360   XZ=             14.6700   YZ=             -1.3965

 Normal termination of Gaussian 16 at Thu May  6 20:35:57 2021.
