 Gaussian 16, Revision A.03,
 Gaussian 16:  EM64L-G16RevA.03 25-Dec-2016

 -------------
 #p 6-31g* mp2
 -------------

 ------------------------------------------------------
 Input file generated by CHIRIPA (05-May-2021 14:55:21)
 ------------------------------------------------------
 Symbolic Z-matrix:
 Charge =  0 Multiplicity = 1

                         Standard orientation:
 ---------------------------------------------------------------------
 Center     Atomic      Atomic             Coordinates (Angstroms)
 Number     Number       Type             X           Y           Z
 ---------------------------------------------------------------------
      1          6           0        1.567531   -2.070047   -0.489535
      2          6           0        0.981264   -0.822474   -0.252103
      3          6           0        1.776598    0.299454   -0.000567
      4          6           0        3.161105    0.137017    0.006122
      5          6           0        3.775029   -1.092659   -0.226867
      6          6           0        2.960087   -2.200927   -0.476182
      7          1           0        0.942080   -2.936282   -0.684071
      8          1           0       -0.099942   -0.717868   -0.261861
      9          1           0        1.349036    1.277029    0.186395
     10          1           0        4.855686   -1.165713   -0.210694
     11          1           0        3.418147   -3.168578   -0.660244
     12          7           0        4.013469    1.317522    0.271236
     13          8           0        5.230809    1.148055    0.271687
     14          8           0        3.448071    2.389915    0.473562
     15          6           0       -4.268554    0.710112    0.177046
     16          6           0       -3.702066    1.939760   -0.533616
     17          6           0       -4.517443    3.205186   -0.265940
     18          1           0       -5.307036    0.553978   -0.145638
     19          1           0       -4.302891    0.903447    1.258173
     20          1           0       -3.667517    1.743644   -1.612950
     21          1           0       -2.664750    2.092872   -0.209348
     22          1           0       -4.541732    3.428341    0.805606
     23          1           0       -5.550197    3.077129   -0.605970
     24          1           0       -4.094876    4.072030   -0.783510
     25          6           0       -3.464246   -0.562799   -0.080861
     26          6           0       -4.030736   -1.792447    0.629801
     27          6           0       -3.215358   -3.057873    0.362125
     28          1           0       -3.429911   -0.756133   -1.161988
     29          1           0       -2.425765   -0.406664    0.241823
     30          1           0       -5.068051   -1.945560    0.305533
     31          1           0       -4.065284   -1.596331    1.709134
     32          1           0       -2.182604   -2.929816    0.702155
     33          1           0       -3.191069   -3.281029   -0.709422
     34          1           0       -3.637925   -3.924717    0.879696
 ---------------------------------------------------------------------

 SCF Done:  E(RHF) =  -669.535692990     A.U. after   15 cycles
 E2 =    -0.2091383009D+01 EUMP2 =    -0.67162707599969D+03

 The electronic state is 1-A.
 Alpha  occ. eigenvalues --  -20.60725 -20.60720 -15.85777 -11.31132 -11.27700
 Alpha  occ. eigenvalues --  -11.27692 -11.27427 -11.26712 -11.26664 -11.22504
 Alpha  occ. eigenvalues --  -11.22417 -11.22234 -11.22104 -11.22100 -11.21501
 Alpha  occ. eigenvalues --   -1.59800  -1.39354  -1.19300  -1.09264  -1.08695
 Alpha  occ. eigenvalues --   -1.04702  -1.04293  -0.96759  -0.95533  -0.87771
 Alpha  occ. eigenvalues --   -0.86101  -0.82368  -0.80376  -0.79093  -0.77414
 Alpha  occ. eigenvalues --   -0.71996  -0.71123  -0.70405  -0.65920  -0.64950
 Alpha  occ. eigenvalues --   -0.64693  -0.62067  -0.61667  -0.60128  -0.58366
 Alpha  occ. eigenvalues --   -0.56063  -0.55194  -0.53415  -0.53209  -0.53032
 Alpha  occ. eigenvalues --   -0.52787  -0.50696  -0.48774  -0.48752  -0.48665
 Alpha  occ. eigenvalues --   -0.47404  -0.46605  -0.46512  -0.44762  -0.44566
 Alpha  occ. eigenvalues --   -0.37279  -0.36305
 Alpha virt. eigenvalues --    0.05115   0.11321   0.16607   0.19097   0.22635
 Alpha virt. eigenvalues --    0.23539   0.24641   0.26268   0.26333   0.28412
 Alpha virt. eigenvalues --    0.29555   0.30265   0.30987   0.31172   0.31569

 Mulliken charges:
               1
     1  C   -0.174285
     2  C   -0.227794
     3  C   -0.173835
     4  C    0.158826
     5  C   -0.171274
     6  C   -0.218458
     7  H    0.227281
     8  H    0.236915
     9  H    0.275278
    10  H    0.275363
    11  H    0.223221
    12  N    0.488106
    13  O   -0.460664
    14  O   -0.460625
    15  C   -0.298090
    16  C   -0.299745
    17  C   -0.476333
    18  H    0.152901
    19  H    0.152226
    20  H    0.152869
    21  H    0.148348
    22  H    0.156981
    23  H    0.156326
    24  H    0.163430
    25  C   -0.305585
    26  C   -0.299296
    27  C   -0.477996
    28  H    0.150680
    29  H    0.144566
    30  H    0.156256
    31  H    0.155465
    32  H    0.148596
    33  H    0.155005
    34  H    0.165344
 Sum of Mulliken charges =  -0.00000

 Dipole moment (field-independent basis, Debye):
    X=             -3.2762    Y=             -4.1304    Z=             -0.9223  Tot=              5.3520
 Quadrupole moment (field-independent basis, Debye-Ang):
   XX=           -109.3452   YY=            -95.3152   ZZ=            -94.9212
   XY=            -15.8261   XZ=             -3.0187   YZ=              0.1943

 Normal termination of Gaussian 16 at Thu May  6 06:10:54 2021.
