 Gaussian 16, Revision A.03,
 Gaussian 16:  EM64L-G16RevA.03 25-Dec-2016

 -------------
 #p 6-31g* mp2
 -------------

 ------------------------------------------------------
 Input file generated by CHIRIPA (05-May-2021 14:57:24)
 ------------------------------------------------------
 Symbolic Z-matrix:
 Charge =  0 Multiplicity = 1

                         Standard orientation:
 ---------------------------------------------------------------------
 Center     Atomic      Atomic             Coordinates (Angstroms)
 Number     Number       Type             X           Y           Z
 ---------------------------------------------------------------------
      1          6           0        2.322001    1.669139    0.035237
      2          6           0        3.586262    2.262087   -0.045863
      3          6           0        4.739708    1.472860   -0.080952
      4          6           0        4.591430    0.087580   -0.032962
      5          6           0        3.345756   -0.532928    0.048006
      6          6           0        2.205987    0.275980    0.081831
      7          1           0        1.431289    2.289873    0.062004
      8          1           0        3.679383    3.343777   -0.082193
      9          1           0        5.730757    1.905660   -0.143590
     10          1           0        3.284787   -1.613898    0.082694
     11          1           0        1.225435   -0.187262    0.144829
     12          7           0        5.805292   -0.758357   -0.069440
     13          8           0        5.647762   -1.976521   -0.025870
     14          8           0        6.891263   -0.187221   -0.140910
     15          6           0       -6.490493    1.156486   -0.186537
     16          6           0       -6.548815   -0.232469   -0.341205
     17          6           0       -5.392073   -1.008998   -0.225034
     18          6           0       -4.188436   -0.360751    0.047589
     19          6           0       -4.097973    1.021166    0.207000
     20          6           0       -5.267414    1.777776    0.086591
     21          1           0       -7.394010    1.751976   -0.278427
     22          1           0       -7.497292   -0.717675   -0.553365
     23          1           0       -5.408676   -2.085987   -0.340087
     24          1           0       -3.137917    1.476346    0.418004
     25          1           0       -5.219127    2.856278    0.207200
     26          7           0       -2.957123   -1.172283    0.172817
     27          8           0       -1.909015   -0.577117    0.413410
     28          8           0       -3.063441   -2.388163    0.028006
 ---------------------------------------------------------------------

 SCF Done:  E(RHF) =  -868.339828632     A.U. after   16 cycles
 E2 =    -0.2598334954D+01 EUMP2 =    -0.87093816358644D+03

 The electronic state is 1-A.
 Alpha  occ. eigenvalues --  -20.61756 -20.61705 -20.60114 -20.60100 -15.86770
 Alpha  occ. eigenvalues --  -15.85154 -11.31918 -11.30398 -11.28496 -11.28428
 Alpha  occ. eigenvalues --  -11.28144 -11.27436 -11.27394 -11.26984 -11.26836
 Alpha  occ. eigenvalues --  -11.26642 -11.26022 -11.25696  -1.60787  -1.59187
 Alpha  occ. eigenvalues --   -1.40351  -1.38743  -1.20064  -1.18537  -1.09495
 Alpha  occ. eigenvalues --   -1.07960  -1.05438  -1.03896  -0.96369  -0.94823
 Alpha  occ. eigenvalues --   -0.86845  -0.85298  -0.83216  -0.81640  -0.78289
 Alpha  occ. eigenvalues --   -0.76700  -0.73005  -0.72088  -0.71376  -0.71170
 Alpha  occ. eigenvalues --   -0.70508  -0.69666  -0.65724  -0.65437  -0.64179
 Alpha  occ. eigenvalues --   -0.63849  -0.62793  -0.61217  -0.55936  -0.54430
 Alpha  occ. eigenvalues --   -0.53773  -0.53528  -0.52268  -0.51948  -0.49767
 Alpha  occ. eigenvalues --   -0.49713  -0.48139  -0.48119  -0.45801  -0.44176
 Alpha  occ. eigenvalues --   -0.38022  -0.37030  -0.36536  -0.35499
 Alpha virt. eigenvalues --    0.04239   0.05788   0.10629   0.12148   0.15776
 Alpha virt. eigenvalues --    0.17322   0.20738   0.22330   0.26677   0.27474
 Alpha virt. eigenvalues --    0.28456   0.29038   0.30442   0.31833   0.31907

 Mulliken charges:
               1
     1  C   -0.172576
     2  C   -0.218602
     3  C   -0.173193
     4  C    0.158488
     5  C   -0.173189
     6  C   -0.227831
     7  H    0.221937
     8  H    0.218948
     9  H    0.272476
    10  H    0.277183
    11  H    0.249633
    12  N    0.488008
    13  O   -0.460482
    14  O   -0.463357
    15  C   -0.169894
    16  C   -0.218342
    17  C   -0.169994
    18  C    0.158254
    19  C   -0.170072
    20  C   -0.218164
    21  H    0.227972
    22  H    0.226012
    23  H    0.277371
    24  H    0.270865
    25  H    0.224317
    26  N    0.492801
    27  O   -0.473887
    28  O   -0.454682
 Sum of Mulliken charges =  -0.00000

 Dipole moment (field-independent basis, Debye):
    X=             -9.1902    Y=              5.6750    Z=             -0.3237  Tot=             10.8060
 Quadrupole moment (field-independent basis, Debye-Ang):
   XX=           -105.3560   YY=            -99.9567   ZZ=           -106.4992
   XY=              7.7103   XZ=              2.9467   YZ=              0.8279

 Normal termination of Gaussian 16 at Thu May  6 06:39:51 2021.
