 Gaussian 16, Revision A.03,
 Gaussian 16:  EM64L-G16RevA.03 25-Dec-2016

 -------------
 #p 6-31g* mp2
 -------------

 ------------------------------------------------------
 Input file generated by CHIRIPA (05-May-2021 14:53:17)
 ------------------------------------------------------
 Symbolic Z-matrix:
 Charge =  0 Multiplicity = 1

                         Standard orientation:
 ---------------------------------------------------------------------
 Center     Atomic      Atomic             Coordinates (Angstroms)
 Number     Number       Type             X           Y           Z
 ---------------------------------------------------------------------
      1          6           0        4.056462   -0.081559   -0.563966
      2          6           0        5.437751   -0.112450    0.091069
      3          6           0        6.341747   -1.201859   -0.486663
      4          1           0        3.576770   -1.062079   -0.439782
      5          1           0        4.174524    0.073944   -1.645296
      6          1           0        5.317056   -0.266466    1.171035
      7          1           0        5.914133    0.868317   -0.034522
      8          1           0        6.491699   -1.048746   -1.560288
      9          1           0        5.891230   -2.189976   -0.347882
     10          1           0        7.324083   -1.206075   -0.004109
     11          6           0        3.141238    1.002274    0.002956
     12          6           0        1.759949    1.033165   -0.652078
     13          6           0        0.855953    2.122574   -0.074346
     14          1           0        3.023176    0.846771    1.084287
     15          1           0        3.620931    1.982794   -0.121227
     16          1           0        1.283567    0.052398   -0.526487
     17          1           0        1.880644    1.187181   -1.732044
     18          1           0        1.306470    3.110691   -0.213128
     19          1           0        0.706001    1.969461    0.999279
     20          1           0       -0.126383    2.126790   -0.556900
     21          6           0       -4.790302    0.169717   -1.254096
     22          6           0       -4.404187    1.065810   -0.251872
     23          6           0       -3.309433    0.782828    0.570310
     24          6           0       -2.620308   -0.410832    0.361572
     25          6           0       -2.980496   -1.323764   -0.628433
     26          6           0       -4.078478   -1.020113   -1.438852
     27          1           0       -5.641986    0.397572   -1.888218
     28          1           0       -4.955141    1.990606   -0.106107
     29          1           0       -2.988894    1.458790    1.353731
     30          1           0       -2.411708   -2.237652   -0.749704
     31          1           0       -4.376073   -1.717893   -2.216404
     32          7           0       -1.459633   -0.721353    1.225753
     33          8           0       -0.869035   -1.779719    1.021563
     34          8           0       -1.162470    0.099506    2.090923
 ---------------------------------------------------------------------

 SCF Done:  E(RHF) =  -669.536495754     A.U. after   15 cycles
 E2 =    -0.2092280576D+01 EUMP2 =    -0.67162877633027D+03

 The electronic state is 1-A.
 Alpha  occ. eigenvalues --  -20.60970 -20.60961 -15.85983 -11.31283 -11.27839
 Alpha  occ. eigenvalues --  -11.27835 -11.27575 -11.26844 -11.26833 -11.20940
 Alpha  occ. eigenvalues --  -11.20754 -11.20620 -11.20514 -11.20510 -11.20190
 Alpha  occ. eigenvalues --   -1.60018  -1.39576  -1.19446  -1.08856  -1.07646
 Alpha  occ. eigenvalues --   -1.04838  -1.02787  -0.95704  -0.95241  -0.86268
 Alpha  occ. eigenvalues --   -0.86233  -0.82539  -0.78859  -0.77595  -0.77456
 Alpha  occ. eigenvalues --   -0.72215  -0.71342  -0.70554  -0.65103  -0.64841
 Alpha  occ. eigenvalues --   -0.64249  -0.62185  -0.60150  -0.58636  -0.56871
 Alpha  occ. eigenvalues --   -0.55346  -0.54498  -0.53177  -0.52930  -0.51971
 Alpha  occ. eigenvalues --   -0.51667  -0.49194  -0.48974  -0.48959  -0.47176
 Alpha  occ. eigenvalues --   -0.45989  -0.45083  -0.45001  -0.44613  -0.43046
 Alpha  occ. eigenvalues --   -0.37416  -0.36433
 Alpha virt. eigenvalues --    0.04899   0.11184   0.16357   0.21324   0.23637
 Alpha virt. eigenvalues --    0.24868   0.27227   0.27405   0.28145   0.28268
 Alpha virt. eigenvalues --    0.28739   0.30938   0.32046   0.32271   0.32403

 Mulliken charges:
               1
     1  C   -0.299060
     2  C   -0.299442
     3  C   -0.475463
     4  H    0.154567
     5  H    0.145569
     6  H    0.153915
     7  H    0.149633
     8  H    0.153083
     9  H    0.156015
    10  H    0.158458
    11  C   -0.298255
    12  C   -0.301917
    13  C   -0.484931
    14  H    0.157061
    15  H    0.145480
    16  H    0.159138
    17  H    0.145536
    18  H    0.149379
    19  H    0.175991
    20  H    0.148872
    21  C   -0.170497
    22  C   -0.218898
    23  C   -0.170323
    24  C    0.158740
    25  C   -0.170800
    26  C   -0.218572
    27  H    0.225999
    28  H    0.223984
    29  H    0.276543
    30  H    0.275770
    31  H    0.223823
    32  N    0.489361
    33  O   -0.460330
    34  O   -0.458427
 Sum of Mulliken charges =  -0.00000

 Dipole moment (field-independent basis, Debye):
    X=             -4.2665    Y=              0.9776    Z=             -2.8609  Tot=              5.2291
 Quadrupole moment (field-independent basis, Debye-Ang):
   XX=            -74.7702   YY=            -92.5752   ZZ=            -95.9863
   XY=             -1.3077   XZ=              6.7153   YZ=              3.6935

 Normal termination of Gaussian 16 at Thu May  6 04:20:53 2021.
