 Gaussian 16, Revision A.03,
 Gaussian 16:  EM64L-G16RevA.03 25-Dec-2016

 -------------
 #p 6-31g* mp2
 -------------

 ------------------------------------------------------
 Input file generated by CHIRIPA (05-May-2021 14:57:27)
 ------------------------------------------------------
 Symbolic Z-matrix:
 Charge =  0 Multiplicity = 1

                         Standard orientation:
 ---------------------------------------------------------------------
 Center     Atomic      Atomic             Coordinates (Angstroms)
 Number     Number       Type             X           Y           Z
 ---------------------------------------------------------------------
      1          6           0       -3.093006    2.359518   -0.672963
      2          6           0       -4.394305    1.849034   -0.723437
      3          6           0       -4.643842    0.508959   -0.412828
      4          6           0       -3.563717   -0.295998   -0.054128
      5          6           0       -2.255977    0.183137    0.005330
      6          6           0       -2.029869    1.526409   -0.309382
      7          1           0       -2.908259    3.401762   -0.915845
      8          1           0       -5.221883    2.493717   -1.005471
      9          1           0       -5.641360    0.087753   -0.443812
     10          1           0       -1.451370   -0.483967    0.289931
     11          1           0       -1.018225    1.920132   -0.269335
     12          7           0       -3.815489   -1.716367    0.276871
     13          8           0       -2.846705   -2.404890    0.589969
     14          8           0       -4.976844   -2.114235    0.216943
     15          6           0        2.139715    1.971483    1.007625
     16          6           0        1.634606    0.667426    1.036251
     17          6           0        2.391827   -0.398316    0.540914
     18          6           0        3.655878   -0.122708    0.021774
     19          6           0        4.186778    1.165560   -0.020651
     20          6           0        3.411945    2.215958    0.480196
     21          1           0        1.544647    2.793418    1.394555
     22          1           0        0.646899    0.474601    1.445272
     23          1           0        2.025185   -1.417578    0.550805
     24          1           0        5.174789    1.326559   -0.434574
     25          1           0        3.806776    3.227689    0.456679
     26          7           0        4.466836   -1.242839   -0.505533
     27          8           0        5.577583   -0.973671   -0.957669
     28          8           0        3.976362   -2.368757   -0.456715
 ---------------------------------------------------------------------

 SCF Done:  E(RHF) =  -868.336717170     A.U. after   16 cycles
 E2 =    -0.2600967782D+01 EUMP2 =    -0.87093768495236D+03

 The electronic state is 1-A.
 Alpha  occ. eigenvalues --  -20.61257 -20.61246 -20.61108 -20.61093 -15.86312
 Alpha  occ. eigenvalues --  -15.86165 -11.31798 -11.31747 -11.28448 -11.28351
 Alpha  occ. eigenvalues --  -11.28343 -11.28327 -11.28219 -11.28114 -11.27491
 Alpha  occ. eigenvalues --  -11.27437 -11.27401 -11.27361  -1.60325  -1.60176
 Alpha  occ. eigenvalues --   -1.39877  -1.39721  -1.19982  -1.19956  -1.09350
 Alpha  occ. eigenvalues --   -1.09324  -1.05459  -1.05347  -0.96161  -0.96120
 Alpha  occ. eigenvalues --   -0.86816  -0.86775  -0.83027  -0.82920  -0.78104
 Alpha  occ. eigenvalues --   -0.77875  -0.72526  -0.72379  -0.71649  -0.71503
 Alpha  occ. eigenvalues --   -0.71111  -0.71066  -0.65680  -0.65647  -0.65429
 Alpha  occ. eigenvalues --   -0.65357  -0.62993  -0.62462  -0.55938  -0.55877
 Alpha  occ. eigenvalues --   -0.53757  -0.53721  -0.53505  -0.53411  -0.49293
 Alpha  occ. eigenvalues --   -0.49277  -0.49158  -0.49118  -0.45256  -0.45078
 Alpha  occ. eigenvalues --   -0.37985  -0.37939  -0.37013  -0.36991
 Alpha virt. eigenvalues --    0.04492   0.04574   0.10468   0.10639   0.15909
 Alpha virt. eigenvalues --    0.15929   0.18979   0.22025   0.24773   0.25985
 Alpha virt. eigenvalues --    0.27992   0.29470   0.30053   0.30858   0.32575

 Mulliken charges:
               1
     1  C   -0.170842
     2  C   -0.217744
     3  C   -0.169978
     4  C    0.161017
     5  C   -0.175786
     6  C   -0.221915
     7  H    0.226185
     8  H    0.225698
     9  H    0.277883
    10  H    0.270244
    11  H    0.221754
    12  N    0.488307
    13  O   -0.460686
    14  O   -0.457598
    15  C   -0.175503
    16  C   -0.227571
    17  C   -0.170839
    18  C    0.159114
    19  C   -0.169321
    20  C   -0.218252
    21  H    0.224127
    22  H    0.224040
    23  H    0.282242
    24  H    0.278061
    25  H    0.224974
    26  N    0.487829
    27  O   -0.459283
    28  O   -0.456153
 Sum of Mulliken charges =  -0.00000

 Dipole moment (field-independent basis, Debye):
    X=             -1.9076    Y=              8.8440    Z=              0.6122  Tot=              9.0681
 Quadrupole moment (field-independent basis, Debye-Ang):
   XX=           -122.9420   YY=           -107.4129   ZZ=           -105.8415
   XY=             -1.5775   XZ=             11.0576   YZ=             -1.1519

 Normal termination of Gaussian 16 at Wed May  5 22:52:01 2021.
