 Gaussian 16, Revision A.03,
 Gaussian 16:  EM64L-G16RevA.03 25-Dec-2016

 -------------
 #p 6-31g* mp2
 -------------

 ------------------------------------------------------
 Input file generated by CHIRIPA (05-May-2021 14:55:20)
 ------------------------------------------------------
 Symbolic Z-matrix:
 Charge =  0 Multiplicity = 1

                         Standard orientation:
 ---------------------------------------------------------------------
 Center     Atomic      Atomic             Coordinates (Angstroms)
 Number     Number       Type             X           Y           Z
 ---------------------------------------------------------------------
      1          6           0        2.398214    2.358439    0.530193
      2          6           0        2.100882    1.380285    1.484829
      3          6           0        2.493965    0.053180    1.287785
      4          6           0        3.185967   -0.262059    0.119433
      5          6           0        3.497046    0.689860   -0.850294
      6          6           0        3.094121    2.010718   -0.632272
      7          1           0        2.089035    3.386940    0.691410
      8          1           0        1.560556    1.647444    2.388554
      9          1           0        2.276874   -0.724051    2.010420
     10          1           0        4.036982    0.393132   -1.741271
     11          1           0        3.326406    2.768271   -1.375375
     12          7           0        3.607316   -1.663699   -0.100273
     13          8           0        4.215862   -1.915750   -1.137953
     14          8           0        3.321045   -2.483713    0.769361
     15          6           0       -3.276975    0.145166    0.055975
     16          6           0       -2.311892    0.634353   -1.024440
     17          6           0       -0.891087    0.840594   -0.498543
     18          1           0       -3.291560    0.870244    0.881199
     19          1           0       -2.899651   -0.797879    0.475126
     20          1           0       -2.691643    1.575482   -1.442391
     21          1           0       -2.299749   -0.091878   -1.847274
     22          1           0       -0.488375   -0.095883   -0.099252
     23          1           0       -0.882496    1.580950    0.307931
     24          1           0       -0.217849    1.190384   -1.287378
     25          6           0       -4.701324   -0.065672   -0.454420
     26          6           0       -5.666407   -0.554860    0.625995
     27          6           0       -7.087214   -0.761102    0.100098
     28          1           0       -5.078649    0.877372   -0.873571
     29          1           0       -4.686741   -0.790751   -1.279644
     30          1           0       -5.678550    0.171371    1.448829
     31          1           0       -5.286656   -1.495989    1.043946
     32          1           0       -7.095804   -1.501457   -0.706377
     33          1           0       -7.489925    0.175376   -0.299194
     34          1           0       -7.760450   -1.110890    0.888933
 ---------------------------------------------------------------------

 SCF Done:  E(RHF) =  -669.534938369     A.U. after   15 cycles
 E2 =    -0.2092573604D+01 EUMP2 =    -0.67162751197288D+03

 The electronic state is 1-A.
 Alpha  occ. eigenvalues --  -20.60758 -20.60753 -15.85813 -11.31165 -11.27738
 Alpha  occ. eigenvalues --  -11.27728 -11.27476 -11.26759 -11.26737 -11.21741
 Alpha  occ. eigenvalues --  -11.21720 -11.21568 -11.21494 -11.21229 -11.21165
 Alpha  occ. eigenvalues --   -1.59835  -1.39389  -1.19342  -1.08743  -1.08576
 Alpha  occ. eigenvalues --   -1.04750  -1.03670  -0.96123  -0.95576  -0.87142
 Alpha  occ. eigenvalues --   -0.86148  -0.82411  -0.79739  -0.78397  -0.77458
 Alpha  occ. eigenvalues --   -0.72032  -0.71158  -0.70457  -0.65211  -0.65000
 Alpha  occ. eigenvalues --   -0.64758  -0.62100  -0.61070  -0.59500  -0.57743
 Alpha  occ. eigenvalues --   -0.55419  -0.55253  -0.53514  -0.52847  -0.52636
 Alpha  occ. eigenvalues --   -0.52282  -0.50075  -0.48789  -0.48786  -0.48057
 Alpha  occ. eigenvalues --   -0.46778  -0.45938  -0.45862  -0.44797  -0.43917
 Alpha  occ. eigenvalues --   -0.37265  -0.36294
 Alpha virt. eigenvalues --    0.05076   0.11233   0.16571   0.21233   0.22739
 Alpha virt. eigenvalues --    0.24144   0.26435   0.26923   0.27471   0.27958
 Alpha virt. eigenvalues --    0.28340   0.30773   0.31284   0.31590   0.31785

 Mulliken charges:
               1
     1  C   -0.168064
     2  C   -0.213186
     3  C   -0.171594
     4  C    0.159467
     5  C   -0.171223
     6  C   -0.219114
     7  H    0.225349
     8  H    0.223162
     9  H    0.275316
    10  H    0.275430
    11  H    0.223258
    12  N    0.487959
    13  O   -0.460515
    14  O   -0.460821
    15  C   -0.298201
    16  C   -0.301476
    17  C   -0.471804
    18  H    0.146417
    19  H    0.150975
    20  H    0.149659
    21  H    0.154018
    22  H    0.157340
    23  H    0.145813
    24  H    0.160584
    25  C   -0.298233
    26  C   -0.299761
    27  C   -0.475792
    28  H    0.148832
    29  H    0.151146
    30  H    0.150735
    31  H    0.152924
    32  H    0.156062
    33  H    0.154786
    34  H    0.160552
 Sum of Mulliken charges =  -0.00000

 Dipole moment (field-independent basis, Debye):
    X=             -1.4406    Y=              4.9292    Z=              0.7792  Tot=              5.1942
 Quadrupole moment (field-independent basis, Debye-Ang):
   XX=           -105.2847   YY=            -96.7492   ZZ=            -90.9491
   XY=             16.6977   XZ=             -0.0134   YZ=             -0.6805

 Normal termination of Gaussian 16 at Thu May  6 17:26:35 2021.
