 Gaussian 16, Revision A.03,
 Gaussian 16:  EM64L-G16RevA.03 25-Dec-2016

 -------------
 #p 6-31g* mp2
 -------------

 ------------------------------------------------------
 Input file generated by CHIRIPA (05-May-2021 14:51:14)
 ------------------------------------------------------
 Symbolic Z-matrix:
 Charge =  0 Multiplicity = 1

                         Standard orientation:
 ---------------------------------------------------------------------
 Center     Atomic      Atomic             Coordinates (Angstroms)
 Number     Number       Type             X           Y           Z
 ---------------------------------------------------------------------
      1          6           0        2.669177   -0.285217   -0.661071
      2          6           0        2.108592   -1.677394   -0.953600
      3          6           0        2.546053   -2.216577   -2.315842
      4          1           0        2.346867    0.406401   -1.451467
      5          1           0        3.766420   -0.322391   -0.706581
      6          1           0        1.012778   -1.637909   -0.906188
      7          1           0        2.432115   -2.365736   -0.162314
      8          1           0        3.637355   -2.284687   -2.370821
      9          1           0        2.209953   -1.552724   -3.118922
     10          1           0        2.134025   -3.212831   -2.504441
     11          6           0        2.240656    0.267309    0.697168
     12          6           0        2.801241    1.659486    0.989697
     13          6           0        2.363780    2.198669    2.351939
     14          1           0        1.143413    0.304482    0.742678
     15          1           0        2.562966   -0.424310    1.487563
     16          1           0        2.477718    2.347828    0.198411
     17          1           0        3.897056    1.620001    0.942285
     18          1           0        2.699880    1.534816    3.155018
     19          1           0        1.272479    2.266778    2.406918
     20          1           0        2.775809    3.194923    2.540537
     21          6           0       -2.119652   -0.612195    0.273848
     22          6           0       -2.944658   -1.288308    1.369394
     23          6           0       -2.260753   -2.529464    1.943502
     24          1           0       -1.930485   -1.334271   -0.532235
     25          1           0       -1.137828   -0.335179    0.682110
     26          1           0       -3.925145   -1.562723    0.959567
     27          1           0       -3.132046   -0.564483    2.172873
     28          1           0       -1.290458   -2.268326    2.378166
     29          1           0       -2.088062   -3.272238    1.157967
     30          1           0       -2.867796   -2.997037    2.724998
     31          6           0       -2.790181    0.630104   -0.309944
     32          6           0       -1.965176    1.306216   -1.405491
     33          6           0       -2.649080    2.547373   -1.979599
     34          1           0       -3.772005    0.353087   -0.718207
     35          1           0       -2.979348    1.352179    0.496137
     36          1           0       -1.777787    0.582391   -2.208970
     37          1           0       -0.984689    1.580631   -0.995664
     38          1           0       -2.821771    3.290147   -1.194063
     39          1           0       -3.619376    2.286234   -2.414263
     40          1           0       -2.042037    3.014945   -2.761095
 ---------------------------------------------------------------------

 SCF Done:  E(RHF) =  -470.733274447     A.U. after   11 cycles
 E2 =    -0.1584098217D+01 EUMP2 =    -0.47231737266385D+03

 The electronic state is 1-A.
 Alpha  occ. eigenvalues --  -11.21694 -11.21639 -11.21624 -11.21524 -11.21470
 Alpha  occ. eigenvalues --  -11.21408 -11.21391 -11.21326 -11.21138 -11.21112
 Alpha  occ. eigenvalues --  -11.21076 -11.21032  -1.08512  -1.08407  -1.03583
 Alpha  occ. eigenvalues --   -1.03517  -0.96032  -0.95972  -0.87046  -0.86989
 Alpha  occ. eigenvalues --   -0.79650  -0.79577  -0.78457  -0.78107  -0.65265
 Alpha  occ. eigenvalues --   -0.64930  -0.60979  -0.60913  -0.59400  -0.59337
 Alpha  occ. eigenvalues --   -0.57658  -0.57571  -0.55370  -0.55218  -0.52725
 Alpha  occ. eigenvalues --   -0.52667  -0.52459  -0.52397  -0.50008  -0.49891
 Alpha  occ. eigenvalues --   -0.47981  -0.47899  -0.46718  -0.46631  -0.46422
 Alpha  occ. eigenvalues --   -0.45761  -0.45741  -0.45049  -0.43840  -0.43768
 Alpha virt. eigenvalues --    0.19841   0.23306   0.23673   0.24128   0.25142
 Alpha virt. eigenvalues --    0.26378   0.27011   0.27731   0.28090   0.30979
 Alpha virt. eigenvalues --    0.31066   0.31442   0.31622   0.31976   0.32009

 Mulliken charges:
               1
     1  C   -0.297614
     2  C   -0.303766
     3  C   -0.475687
     4  H    0.149864
     5  H    0.149343
     6  H    0.156948
     7  H    0.151476
     8  H    0.154957
     9  H    0.155029
    10  H    0.159889
    11  C   -0.308470
    12  C   -0.299204
    13  C   -0.475560
    14  H    0.158250
    15  H    0.149420
    16  H    0.151779
    17  H    0.152288
    18  H    0.155343
    19  H    0.154016
    20  H    0.160523
    21  C   -0.309536
    22  C   -0.298917
    23  C   -0.476111
    24  H    0.150661
    25  H    0.159067
    26  H    0.152027
    27  H    0.151958
    28  H    0.156022
    29  H    0.155293
    30  H    0.160328
    31  C   -0.297708
    32  C   -0.301797
    33  C   -0.475675
    34  H    0.149995
    35  H    0.149606
    36  H    0.152078
    37  H    0.152439
    38  H    0.155439
    39  H    0.155626
    40  H    0.160380
 Sum of Mulliken charges =  -0.00000

 Dipole moment (field-independent basis, Debye):
    X=             -0.0347    Y=             -0.0031    Z=              0.0063  Tot=              0.0354
 Quadrupole moment (field-independent basis, Debye-Ang):
   XX=            -84.0691   YY=            -85.3946   ZZ=            -85.2750
   XY=              0.3900   XZ=              0.7555   YZ=              0.1566

 Normal termination of Gaussian 16 at Wed May  5 23:16:05 2021.
