 Gaussian 16, Revision A.03,
 Gaussian 16:  EM64L-G16RevA.03 25-Dec-2016

 -------------
 #p 6-31g* mp2
 -------------

 ------------------------------------------------------
 Input file generated by CHIRIPA (05-May-2021 14:55:23)
 ------------------------------------------------------
 Symbolic Z-matrix:
 Charge =  0 Multiplicity = 1

                         Standard orientation:
 ---------------------------------------------------------------------
 Center     Atomic      Atomic             Coordinates (Angstroms)
 Number     Number       Type             X           Y           Z
 ---------------------------------------------------------------------
      1          6           0        4.966025   -1.810623   -0.554599
      2          6           0        3.690735   -1.982649   -0.006363
      3          6           0        2.884910   -0.876118    0.277864
      4          6           0        3.388276    0.393796   -0.000043
      5          6           0        4.654572    0.597749   -0.546108
      6          6           0        5.443032   -0.523243   -0.822250
      7          1           0        5.585264   -2.675820   -0.772253
      8          1           0        3.317684   -2.981267    0.202538
      9          1           0        1.893822   -0.980564    0.702427
     10          1           0        4.999050    1.605633   -0.743397
     11          1           0        6.433041   -0.386634   -1.248003
     12          7           0        2.544377    1.572885    0.296576
     13          8           0        3.010972    2.681203    0.042493
     14          8           0        1.432312    1.366412    0.777532
     15          6           0       -5.263274   -0.402370    0.106510
     16          6           0       -6.107096    0.461924   -0.831010
     17          6           0       -7.601881    0.156047   -0.731743
     18          1           0       -5.438344   -1.461934   -0.125047
     19          1           0       -5.602164   -0.248219    1.140330
     20          1           0       -5.765801    0.307236   -1.862613
     21          1           0       -5.929853    1.519559   -0.597322
     22          1           0       -7.963574    0.328564    0.287088
     23          1           0       -7.798590   -0.890648   -0.985391
     24          1           0       -8.186335    0.785181   -1.410318
     25          6           0       -3.766768   -0.108268    0.018748
     26          6           0       -2.922946   -0.972562    0.956268
     27          6           0       -1.428162   -0.666685    0.857001
     28          1           0       -3.427878   -0.262418   -1.015073
     29          1           0       -3.591699    0.951297    0.250304
     30          1           0       -3.100191   -2.030197    0.722581
     31          1           0       -3.264242   -0.817874    1.987871
     32          1           0       -1.231452    0.380010    1.110649
     33          1           0       -1.066469   -0.839201   -0.161830
     34          1           0       -0.843708   -1.295819    1.535576
 ---------------------------------------------------------------------

 SCF Done:  E(RHF) =  -669.535744310     A.U. after   15 cycles
 E2 =    -0.2091300197D+01 EUMP2 =    -0.67162704450669D+03

 The electronic state is 1-A.
 Alpha  occ. eigenvalues --  -20.60785 -20.60779 -15.85829 -11.31169 -11.27748
 Alpha  occ. eigenvalues --  -11.27709 -11.27492 -11.26760 -11.26744 -11.21260
 Alpha  occ. eigenvalues --  -11.21114 -11.21011 -11.20888 -11.20793 -11.20392
 Alpha  occ. eigenvalues --   -1.59856  -1.39410  -1.19345  -1.08748  -1.08004
 Alpha  occ. eigenvalues --   -1.04744  -1.03095  -0.95624  -0.95498  -0.86554
 Alpha  occ. eigenvalues --   -0.86141  -0.82420  -0.79169  -0.77822  -0.77437
 Alpha  occ. eigenvalues --   -0.72057  -0.71174  -0.70456  -0.65002  -0.64751
 Alpha  occ. eigenvalues --   -0.64633  -0.62092  -0.60484  -0.58934  -0.57149
 Alpha  occ. eigenvalues --   -0.55255  -0.54799  -0.53078  -0.52862  -0.52235
 Alpha  occ. eigenvalues --   -0.51936  -0.49458  -0.48808  -0.48796  -0.47453
 Alpha  occ. eigenvalues --   -0.46182  -0.45353  -0.45273  -0.44795  -0.43370
 Alpha  occ. eigenvalues --   -0.37332  -0.36347
 Alpha virt. eigenvalues --    0.05058   0.11296   0.16552   0.21071   0.23279
 Alpha virt. eigenvalues --    0.24433   0.26161   0.27101   0.27704   0.27941
 Alpha virt. eigenvalues --    0.29287   0.30494   0.31580   0.31843   0.32276

 Mulliken charges:
               1
     1  C   -0.170393
     2  C   -0.220523
     3  C   -0.174844
     4  C    0.156218
     5  C   -0.170368
     6  C   -0.218991
     7  H    0.225476
     8  H    0.223723
     9  H    0.285144
    10  H    0.275439
    11  H    0.223301
    12  N    0.492285
    13  O   -0.460454
    14  O   -0.464567
    15  C   -0.297933
    16  C   -0.299489
    17  C   -0.475480
    18  H    0.147550
    19  H    0.149194
    20  H    0.151333
    21  H    0.153297
    22  H    0.154965
    23  H    0.154001
    24  H    0.159663
    25  C   -0.298383
    26  C   -0.300936
    27  C   -0.477076
    28  H    0.148427
    29  H    0.154122
    30  H    0.146471
    31  H    0.151374
    32  H    0.180908
    33  H    0.149253
    34  H    0.147291
 Sum of Mulliken charges =  -0.00000

 Dipole moment (field-independent basis, Debye):
    X=              3.0578    Y=             -3.9930    Z=             -1.0226  Tot=              5.1322
 Quadrupole moment (field-independent basis, Debye-Ang):
   XX=            -74.0893   YY=            -96.3329   ZZ=            -94.5167
   XY=            -11.1819   XZ=             -5.2402   YZ=             -0.8914

 Normal termination of Gaussian 16 at Thu May  6 03:05:28 2021.
