 Gaussian 16, Revision A.03,
 Gaussian 16:  EM64L-G16RevA.03 25-Dec-2016

 -------------
 #p 6-31g* mp2
 -------------

 ------------------------------------------------------
 Input file generated by CHIRIPA (05-May-2021 14:53:15)
 ------------------------------------------------------
 Symbolic Z-matrix:
 Charge =  0 Multiplicity = 1

                         Standard orientation:
 ---------------------------------------------------------------------
 Center     Atomic      Atomic             Coordinates (Angstroms)
 Number     Number       Type             X           Y           Z
 ---------------------------------------------------------------------
      1          6           0       -3.800956   -0.567640   -0.089118
      2          6           0       -5.001911   -1.099027    0.694029
      3          6           0       -5.191783   -2.607650    0.533407
      4          1           0       -3.927916   -0.811471   -1.152778
      5          1           0       -2.893856   -1.089950    0.245181
      6          1           0       -5.906274   -0.574890    0.359327
      7          1           0       -4.872169   -0.853734    1.755921
      8          1           0       -4.306488   -3.146993    0.885493
      9          1           0       -5.346468   -2.866564   -0.519036
     10          1           0       -6.055767   -2.966284    1.101537
     11          6           0       -3.598074    0.938976    0.061469
     12          6           0       -2.397119    1.470363   -0.721678
     13          6           0       -2.207248    2.978986   -0.561056
     14          1           0       -4.505175    1.461285   -0.272830
     15          1           0       -3.471114    1.182807    1.125129
     16          1           0       -2.526861    1.225070   -1.783570
     17          1           0       -1.492757    0.946226   -0.386976
     18          1           0       -2.052563    3.237900    0.491387
     19          1           0       -3.092543    3.518328   -0.913142
     20          1           0       -1.343263    3.337619   -1.129187
     21          6           0        2.294139    2.258765    0.492714
     22          6           0        3.413310    1.679822    1.100006
     23          6           0        3.753056    0.348775    0.840327
     24          6           0        2.947876   -0.377445   -0.035789
     25          6           0        1.826578    0.171090   -0.656344
     26          6           0        1.505734    1.503881   -0.381980
     27          1           0        2.037559    3.293431    0.700143
     28          1           0        4.027416    2.263681    1.779734
     29          1           0        4.613975   -0.124375    1.296799
     30          1           0        1.233580   -0.436158   -1.329412
     31          1           0        0.635994    1.950880   -0.855044
     32          7           0        3.297544   -1.787489   -0.318472
     33          8           0        2.571992   -2.405989   -1.094147
     34          8           0        4.290543   -2.247481    0.240987
 ---------------------------------------------------------------------

 SCF Done:  E(RHF) =  -669.535012078     A.U. after   15 cycles
 E2 =    -0.2092219388D+01 EUMP2 =    -0.67162723146625D+03

 The electronic state is 1-A.
 Alpha  occ. eigenvalues --  -20.60745 -20.60740 -15.85797 -11.31159 -11.27732
 Alpha  occ. eigenvalues --  -11.27711 -11.27452 -11.26746 -11.26658 -11.22477
 Alpha  occ. eigenvalues --  -11.22174 -11.21975 -11.21853 -11.21732 -11.21187
 Alpha  occ. eigenvalues --   -1.59821  -1.39374  -1.19329  -1.08976  -1.08720
 Alpha  occ. eigenvalues --   -1.04739  -1.04106  -0.96558  -0.95559  -0.87570
 Alpha  occ. eigenvalues --   -0.86126  -0.82399  -0.80208  -0.78729  -0.77439
 Alpha  occ. eigenvalues --   -0.72015  -0.71144  -0.70432  -0.65651  -0.64976
 Alpha  occ. eigenvalues --   -0.64758  -0.62223  -0.61410  -0.59934  -0.58143
 Alpha  occ. eigenvalues --   -0.55819  -0.55211  -0.53316  -0.53086  -0.53030
 Alpha  occ. eigenvalues --   -0.52650  -0.50474  -0.48772  -0.48771  -0.48512
 Alpha  occ. eigenvalues --   -0.47211  -0.46271  -0.46149  -0.44781  -0.44344
 Alpha  occ. eigenvalues --   -0.37307  -0.36313
 Alpha virt. eigenvalues --    0.05065   0.11289   0.16449   0.20039   0.22724
 Alpha virt. eigenvalues --    0.23952   0.25897   0.26169   0.26494   0.28586
 Alpha virt. eigenvalues --    0.29091   0.30115   0.30956   0.31312   0.32223

 Mulliken charges:
               1
     1  C   -0.299791
     2  C   -0.300203
     3  C   -0.476363
     4  H    0.150890
     5  H    0.152242
     6  H    0.151918
     7  H    0.152299
     8  H    0.157738
     9  H    0.156091
    10  H    0.161067
    11  C   -0.297760
    12  C   -0.308045
    13  C   -0.480576
    14  H    0.151328
    15  H    0.151067
    16  H    0.154647
    17  H    0.151060
    18  H    0.157518
    19  H    0.162971
    20  H    0.150798
    21  C   -0.174211
    22  C   -0.218552
    23  C   -0.171242
    24  C    0.158816
    25  C   -0.174641
    26  C   -0.223911
    27  H    0.225921
    28  H    0.223265
    29  H    0.275467
    30  H    0.276456
    31  H    0.236735
    32  N    0.488031
    33  O   -0.460386
    34  O   -0.460642
 Sum of Mulliken charges =  -0.00000

 Dipole moment (field-independent basis, Debye):
    X=             -1.4131    Y=              4.9252    Z=              1.0348  Tot=              5.2273
 Quadrupole moment (field-independent basis, Debye-Ang):
   XX=            -98.2838   YY=           -100.2331   ZZ=            -92.8575
   XY=             15.2247   XZ=              6.2935   YZ=             -0.3532

 Normal termination of Gaussian 16 at Wed May  5 17:09:21 2021.
