 Gaussian 16, Revision A.03,
 Gaussian 16:  EM64L-G16RevA.03 25-Dec-2016

 -------------
 #p 6-31g* mp2
 -------------

 ------------------------------------------------------
 Input file generated by CHIRIPA (05-May-2021 14:55:25)
 ------------------------------------------------------
 Symbolic Z-matrix:
 Charge =  0 Multiplicity = 1

                         Standard orientation:
 ---------------------------------------------------------------------
 Center     Atomic      Atomic             Coordinates (Angstroms)
 Number     Number       Type             X           Y           Z
 ---------------------------------------------------------------------
      1          6           0       -4.870086    1.061021    0.535072
      2          6           0       -3.663587    1.733523    0.314568
      3          6           0       -2.511749    1.026541   -0.043192
      4          6           0       -2.602716   -0.358511   -0.172212
      5          6           0       -3.790084   -1.057140    0.040779
      6          6           0       -4.929379   -0.329712    0.397716
      7          1           0       -5.759990    1.618163    0.812669
      8          1           0       -3.614590    2.813532    0.420516
      9          1           0       -1.564750    1.521936   -0.219812
     10          1           0       -3.807846   -2.134301   -0.072467
     11          1           0       -5.865003   -0.854631    0.568342
     12          7           0       -1.389956   -1.117784   -0.550521
     13          8           0       -1.496338   -2.337547   -0.657745
     14          8           0       -0.355975   -0.478761   -0.732653
     15          6           0        4.009630   -0.325393    0.015837
     16          6           0        3.430480   -1.587399    0.656080
     17          6           0        4.286540   -2.827621    0.397611
     18          1           0        4.110273   -0.484135   -1.066575
     19          1           0        5.024395   -0.158820    0.403008
     20          1           0        2.416585   -1.750771    0.268858
     21          1           0        3.331025   -1.425565    1.737068
     22          1           0        5.295532   -2.689865    0.799554
     23          1           0        4.375896   -3.016920   -0.676998
     24          1           0        3.854157   -3.718247    0.864183
     25          6           0        3.165010    0.922830    0.265411
     26          6           0        3.744159    2.184836   -0.374832
     27          6           0        2.888099    3.425058   -0.116363
     28          1           0        2.150245    0.756257   -0.121760
     29          1           0        3.064366    1.081572    1.347823
     30          1           0        3.843614    2.023002   -1.455820
     31          1           0        4.758055    2.348209    0.012390
     32          1           0        2.798743    3.614357    0.958246
     33          1           0        1.879107    3.287303   -0.518306
     34          1           0        3.320483    4.315684   -0.582935
 ---------------------------------------------------------------------

 SCF Done:  E(RHF) =  -669.536630583     A.U. after   15 cycles
 E2 =    -0.2091490609D+01 EUMP2 =    -0.67162812119234D+03

 The electronic state is 1-A.
 Alpha  occ. eigenvalues --  -20.61059 -20.61049 -15.86080 -11.31346 -11.27903
 Alpha  occ. eigenvalues --  -11.27899 -11.27632 -11.26899 -11.26888 -11.20829
 Alpha  occ. eigenvalues --  -11.20613 -11.20259 -11.20203 -11.20163 -11.19954
 Alpha  occ. eigenvalues --   -1.60106  -1.39665  -1.19509  -1.08924  -1.07343
 Alpha  occ. eigenvalues --   -1.04898  -1.02552  -0.95775  -0.95032  -0.86301
 Alpha  occ. eigenvalues --   -0.86064  -0.82614  -0.78616  -0.77679  -0.77105
 Alpha  occ. eigenvalues --   -0.72306  -0.71412  -0.70619  -0.65170  -0.64900
 Alpha  occ. eigenvalues --   -0.63948  -0.62246  -0.59946  -0.58425  -0.56628
 Alpha  occ. eigenvalues --   -0.55405  -0.54324  -0.53232  -0.52989  -0.51775
 Alpha  occ. eigenvalues --   -0.51473  -0.49105  -0.49061  -0.48959  -0.46941
 Alpha  occ. eigenvalues --   -0.45606  -0.45172  -0.44697  -0.44382  -0.42766
 Alpha  occ. eigenvalues --   -0.37485  -0.36496
 Alpha virt. eigenvalues --    0.04841   0.11160   0.16336   0.21050   0.23721
 Alpha virt. eigenvalues --    0.24991   0.26642   0.27449   0.28031   0.28867
 Alpha virt. eigenvalues --    0.29194   0.30948   0.31725   0.32453   0.32873

 Mulliken charges:
               1
     1  C   -0.170433
     2  C   -0.218606
     3  C   -0.170260
     4  C    0.157458
     5  C   -0.170581
     6  C   -0.218607
     7  H    0.226248
     8  H    0.224332
     9  H    0.275719
    10  H    0.275935
    11  H    0.223998
    12  N    0.495510
    13  O   -0.458294
    14  O   -0.467576
    15  C   -0.295609
    16  C   -0.307030
    17  C   -0.474758
    18  H    0.149704
    19  H    0.143065
    20  H    0.174764
    21  H    0.145128
    22  H    0.149540
    23  H    0.155032
    24  H    0.158666
    25  C   -0.309894
    26  C   -0.298153
    27  C   -0.474217
    28  H    0.174802
    29  H    0.142839
    30  H    0.152001
    31  H    0.148751
    32  H    0.152289
    33  H    0.150907
    34  H    0.157329
 Sum of Mulliken charges =  -0.00000

 Dipole moment (field-independent basis, Debye):
    X=             -4.6527    Y=              2.5491    Z=              1.2372  Tot=              5.4476
 Quadrupole moment (field-independent basis, Debye-Ang):
   XX=            -72.7600   YY=            -94.7182   ZZ=            -95.5666
   XY=             -2.5624   XZ=             -2.8643   YZ=             -0.9186

 Normal termination of Gaussian 16 at Wed May  5 16:07:55 2021.
