 Gaussian 16, Revision A.03,
 Gaussian 16:  EM64L-G16RevA.03 25-Dec-2016

 -------------
 #p 6-31g* mp2
 -------------

 ------------------------------------------------------
 Input file generated by CHIRIPA (05-May-2021 14:55:22)
 ------------------------------------------------------
 Symbolic Z-matrix:
 Charge =  0 Multiplicity = 1

                         Standard orientation:
 ---------------------------------------------------------------------
 Center     Atomic      Atomic             Coordinates (Angstroms)
 Number     Number       Type             X           Y           Z
 ---------------------------------------------------------------------
      1          6           0       -4.570791    1.330335    0.438398
      2          6           0       -4.781302   -0.029761    0.188708
      3          6           0       -3.705004   -0.872983   -0.103024
      4          6           0       -2.425749   -0.320130   -0.136972
      5          6           0       -2.183743    1.030815    0.107305
      6          6           0       -3.274968    1.855356    0.396973
      7          1           0       -5.412683    1.978114    0.664221
      8          1           0       -5.786563   -0.440252    0.220201
      9          1           0       -3.839501   -1.929587   -0.300294
     10          1           0       -1.170143    1.411009    0.068770
     11          1           0       -3.108498    2.911240    0.590470
     12          7           0       -1.278419   -1.202923   -0.444723
     13          8           0       -0.161109   -0.691373   -0.468603
     14          8           0       -1.518178   -2.389691   -0.656231
     15          6           0        3.511805   -0.479803   -0.137768
     16          6           0        3.156222   -1.576163    0.866993
     17          6           0        3.491821   -2.977654    0.356121
     18          1           0        2.976844   -0.666375   -1.079018
     19          1           0        4.584031   -0.539221   -0.370567
     20          1           0        2.085260   -1.513820    1.098880
     21          1           0        3.691943   -1.386854    1.806025
     22          1           0        4.562116   -3.063757    0.142453
     23          1           0        2.946306   -3.191444   -0.568708
     24          1           0        3.229503   -3.745998    1.090080
     25          6           0        3.182193    0.926870    0.358569
     26          6           0        3.537778    2.023229   -0.646191
     27          6           0        3.202178    3.424720   -0.135319
     28          1           0        2.109968    0.986287    0.591369
     29          1           0        3.717154    1.113441    1.299821
     30          1           0        3.002056    1.833920   -1.585223
     31          1           0        4.608738    1.960887   -0.878079
     32          1           0        3.747693    3.638510    0.789509
     33          1           0        2.131882    3.510824    0.078348
     34          1           0        3.464496    4.193065   -0.869279
 ---------------------------------------------------------------------

 SCF Done:  E(RHF) =  -669.536450357     A.U. after   15 cycles
 E2 =    -0.2092205815D+01 EUMP2 =    -0.67162865617187D+03

 The electronic state is 1-A.
 Alpha  occ. eigenvalues --  -20.61115 -20.61110 -15.86131 -11.31390 -11.27948
 Alpha  occ. eigenvalues --  -11.27940 -11.27669 -11.26936 -11.26927 -11.20865
 Alpha  occ. eigenvalues --  -11.20692 -11.20307 -11.20034 -11.19956 -11.19649
 Alpha  occ. eigenvalues --   -1.60166  -1.39726  -1.19551  -1.08968  -1.07263
 Alpha  occ. eigenvalues --   -1.04938  -1.02443  -0.95821  -0.94930  -0.86342
 Alpha  occ. eigenvalues --   -0.85959  -0.82659  -0.78560  -0.77725  -0.77013
 Alpha  occ. eigenvalues --   -0.72375  -0.71472  -0.70660  -0.65220  -0.64940
 Alpha  occ. eigenvalues --   -0.63826  -0.62287  -0.59816  -0.58366  -0.56531
 Alpha  occ. eigenvalues --   -0.55443  -0.54209  -0.53272  -0.53029  -0.51688
 Alpha  occ. eigenvalues --   -0.51369  -0.49226  -0.49105  -0.48775  -0.46877
 Alpha  occ. eigenvalues --   -0.45587  -0.45250  -0.44568  -0.44249  -0.42670
 Alpha  occ. eigenvalues --   -0.37524  -0.36535
 Alpha virt. eigenvalues --    0.04775   0.11120   0.16265   0.20638   0.23272
 Alpha virt. eigenvalues --    0.25243   0.26378   0.27464   0.28306   0.28834
 Alpha virt. eigenvalues --    0.29265   0.31186   0.31869   0.32477   0.33078

 Mulliken charges:
               1
     1  C   -0.170281
     2  C   -0.218621
     3  C   -0.170420
     4  C    0.157434
     5  C   -0.170970
     6  C   -0.218775
     7  H    0.226446
     8  H    0.224179
     9  H    0.276045
    10  H    0.276346
    11  H    0.224522
    12  N    0.492517
    13  O   -0.464756
    14  O   -0.457652
    15  C   -0.295535
    16  C   -0.301993
    17  C   -0.475821
    18  H    0.161246
    19  H    0.141348
    20  H    0.168525
    21  H    0.141323
    22  H    0.147658
    23  H    0.163168
    24  H    0.155645
    25  C   -0.300372
    26  C   -0.299605
    27  C   -0.473126
    28  H    0.156025
    29  H    0.143320
    30  H    0.153578
    31  H    0.150136
    32  H    0.154181
    33  H    0.146605
    34  H    0.157678
 Sum of Mulliken charges =  -0.00000

 Dipole moment (field-independent basis, Debye):
    X=             -4.4514    Y=              2.9733    Z=              0.9739  Tot=              5.4409
 Quadrupole moment (field-independent basis, Debye-Ang):
   XX=            -73.8899   YY=            -95.7152   ZZ=            -95.9538
   XY=             -3.4162   XZ=             -1.8499   YZ=             -0.3702

 Normal termination of Gaussian 16 at Thu May  6 17:32:24 2021.
