 Gaussian 16, Revision A.03,
 Gaussian 16:  EM64L-G16RevA.03 25-Dec-2016

 -------------
 #p 6-31g* mp2
 -------------

 ------------------------------------------------------
 Input file generated by CHIRIPA (05-May-2021 14:57:23)
 ------------------------------------------------------
 Symbolic Z-matrix:
 Charge =  0 Multiplicity = 1

                         Standard orientation:
 ---------------------------------------------------------------------
 Center     Atomic      Atomic             Coordinates (Angstroms)
 Number     Number       Type             X           Y           Z
 ---------------------------------------------------------------------
      1          6           0       -2.223275    1.641167   -0.002309
      2          6           0       -3.439195    1.991431    0.593824
      3          6           0       -4.528132    1.115575    0.553317
      4          6           0       -4.365341   -0.107924   -0.094633
      5          6           0       -3.166740   -0.485639   -0.697939
      6          6           0       -2.091161    0.405928   -0.645155
      7          1           0       -1.382551    2.327656    0.033927
      8          1           0       -3.544679    2.950068    1.093757
      9          1           0       -5.480796    1.361379    1.006561
     10          1           0       -3.091959   -1.448274   -1.189020
     11          1           0       -1.148050    0.131251   -1.108986
     12          7           0       -5.511079   -1.043470   -0.144015
     13          8           0       -5.342018   -2.115450   -0.721003
     14          8           0       -6.556473   -0.687057    0.395203
     15          6           0        1.775683    0.657230    0.413678
     16          6           0        2.330957   -0.336405    1.226622
     17          6           0        3.660122   -0.734114    1.054290
     18          6           0        4.408612   -0.114277    0.054864
     19          6           0        3.883933    0.878628   -0.771056
     20          6           0        2.552573    1.260512   -0.580814
     21          1           0        0.742302    0.960033    0.554506
     22          1           0        1.729976   -0.806659    1.999751
     23          1           0        4.115193   -1.500777    1.669559
     24          1           0        4.507916    1.329104   -1.533379
     25          1           0        2.123980    2.032452   -1.213634
     26          7           0        5.816901   -0.526936   -0.137058
     27          8           0        6.455305    0.034588   -1.024621
     28          8           0        6.255649   -1.404089    0.603713
 ---------------------------------------------------------------------

 SCF Done:  E(RHF) =  -868.336371822     A.U. after   16 cycles
 E2 =    -0.2600778373D+01 EUMP2 =    -0.87093715019534D+03

 The electronic state is 1-A.
 Alpha  occ. eigenvalues --  -20.61440 -20.61435 -20.61308 -20.61302 -15.86498
 Alpha  occ. eigenvalues --  -15.86366 -11.32066 -11.31898 -11.28641 -11.28614
 Alpha  occ. eigenvalues --  -11.28545 -11.28484 -11.28438 -11.28329 -11.27768
 Alpha  occ. eigenvalues --  -11.27712 -11.27620 -11.27520  -1.60511  -1.60379
 Alpha  occ. eigenvalues --   -1.40058  -1.39927  -1.20266  -1.20092  -1.09668
 Alpha  occ. eigenvalues --   -1.09477  -1.05681  -1.05507  -0.96470  -0.96272
 Alpha  occ. eigenvalues --   -0.87097  -0.86913  -0.83262  -0.83102  -0.78251
 Alpha  occ. eigenvalues --   -0.78098  -0.72718  -0.72581  -0.71836  -0.71703
 Alpha  occ. eigenvalues --   -0.71671  -0.71068  -0.65931  -0.65766  -0.65711
 Alpha  occ. eigenvalues --   -0.65479  -0.63007  -0.62839  -0.56405  -0.55986
 Alpha  occ. eigenvalues --   -0.53993  -0.53893  -0.53709  -0.53604  -0.49490
 Alpha  occ. eigenvalues --   -0.49455  -0.49354  -0.49325  -0.45417  -0.45295
 Alpha  occ. eigenvalues --   -0.38317  -0.38120  -0.37265  -0.37100
 Alpha virt. eigenvalues --    0.04234   0.04392   0.10247   0.10526   0.15574
 Alpha virt. eigenvalues --    0.15791   0.18502   0.21936   0.25331   0.26584
 Alpha virt. eigenvalues --    0.26781   0.29446   0.29865   0.30925   0.31701

 Mulliken charges:
               1
     1  C   -0.177256
     2  C   -0.217586
     3  C   -0.170185
     4  C    0.159653
     5  C   -0.170486
     6  C   -0.222262
     7  H    0.219148
     8  H    0.226346
     9  H    0.278685
    10  H    0.279024
    11  H    0.224635
    12  N    0.487846
    13  O   -0.457928
    14  O   -0.457893
    15  C   -0.179525
    16  C   -0.219951
    17  C   -0.169922
    18  C    0.159522
    19  C   -0.169688
    20  C   -0.221019
    21  H    0.223687
    22  H    0.227601
    23  H    0.278471
    24  H    0.277712
    25  H    0.220288
    26  N    0.487834
    27  O   -0.458764
    28  O   -0.457987
 Sum of Mulliken charges =  -0.00000

 Dipole moment (field-independent basis, Debye):
    X=             -1.0037    Y=              4.5960    Z=              0.8942  Tot=              4.7886
 Quadrupole moment (field-independent basis, Debye-Ang):
   XX=           -180.9282   YY=           -102.3451   ZZ=           -101.5506
   XY=             -9.7836   XZ=             -0.4183   YZ=             -1.2338

 Normal termination of Gaussian 16 at Fri May  7 04:52:43 2021.
