 Gaussian 16, Revision A.03,
 Gaussian 16:  EM64L-G16RevA.03 25-Dec-2016

 -------------
 #p 6-31g* mp2
 -------------

 ------------------------------------------------------
 Input file generated by CHIRIPA (05-May-2021 14:55:23)
 ------------------------------------------------------
 Symbolic Z-matrix:
 Charge =  0 Multiplicity = 1

                         Standard orientation:
 ---------------------------------------------------------------------
 Center     Atomic      Atomic             Coordinates (Angstroms)
 Number     Number       Type             X           Y           Z
 ---------------------------------------------------------------------
      1          6           0        1.972211   -2.861380    0.485590
      2          6           0        2.221568   -2.418230   -0.817468
      3          6           0        2.351699   -1.053294   -1.090527
      4          6           0        2.226144   -0.155084   -0.031874
      5          6           0        1.977797   -0.565521    1.277001
      6          6           0        1.851335   -1.935244    1.526830
      7          1           0        1.872547   -3.923555    0.688686
      8          1           0        2.315916   -3.135212   -1.628074
      9          1           0        2.544826   -0.682794   -2.089952
     10          1           0        1.888739    0.173101    2.064354
     11          1           0        1.657689   -2.276525    2.539783
     12          7           0        2.361966    1.292447   -0.308653
     13          8           0        2.247135    2.063593    0.641497
     14          8           0        2.580682    1.628466   -1.470501
     15          6           0       -2.978710   -0.133895   -0.407134
     16          6           0       -4.062411   -0.991464    0.247200
     17          6           0       -4.367196   -2.263917   -0.543852
     18          1           0       -3.295481    0.132359   -1.424832
     19          1           0       -2.061860   -0.730515   -0.511187
     20          1           0       -4.976521   -0.392974    0.351248
     21          1           0       -3.743107   -1.255549    1.263527
     22          1           0       -3.469876   -2.884304   -0.636256
     23          1           0       -4.710298   -2.016828   -1.553719
     24          1           0       -5.144610   -2.861988   -0.058263
     25          6           0       -2.662912    1.141651    0.371954
     26          6           0       -1.579211    1.999220   -0.282380
     27          6           0       -1.274426    3.271673    0.508673
     28          1           0       -3.579761    1.738271    0.476007
     29          1           0       -2.346139    0.875397    1.389652
     30          1           0       -1.898515    2.263305   -1.298707
     31          1           0       -0.665100    1.400729   -0.386428
     32          1           0       -0.931323    3.024585    1.518538
     33          1           0       -2.171746    3.892061    0.601076
     34          1           0       -0.497012    3.869745    0.023083
 ---------------------------------------------------------------------

 SCF Done:  E(RHF) =  -669.535819570     A.U. after   15 cycles
 E2 =    -0.2092596647D+01 EUMP2 =    -0.67162841621675D+03

 The electronic state is 1-A.
 Alpha  occ. eigenvalues --  -20.60886 -20.60872 -15.85914 -11.31287 -11.27852
 Alpha  occ. eigenvalues --  -11.27843 -11.27588 -11.26861 -11.26850 -11.21594
 Alpha  occ. eigenvalues --  -11.21240 -11.21166 -11.21085 -11.21021 -11.20113
 Alpha  occ. eigenvalues --   -1.59948  -1.39499  -1.19456  -1.08852  -1.08177
 Alpha  occ. eigenvalues --   -1.04853  -1.03194  -0.95690  -0.95617  -0.86641
 Alpha  occ. eigenvalues --   -0.86251  -0.82513  -0.79293  -0.77970  -0.77563
 Alpha  occ. eigenvalues --   -0.72135  -0.71292  -0.70556  -0.65107  -0.64853
 Alpha  occ. eigenvalues --   -0.64813  -0.62198  -0.60595  -0.59032  -0.57208
 Alpha  occ. eigenvalues --   -0.55352  -0.54923  -0.53188  -0.52943  -0.52276
 Alpha  occ. eigenvalues --   -0.52054  -0.49595  -0.48896  -0.48893  -0.47588
 Alpha  occ. eigenvalues --   -0.46356  -0.45503  -0.45436  -0.44877  -0.43439
 Alpha  occ. eigenvalues --   -0.37424  -0.36454
 Alpha virt. eigenvalues --    0.04953   0.11187   0.16417   0.21305   0.22954
 Alpha virt. eigenvalues --    0.24487   0.26645   0.27201   0.27592   0.28062
 Alpha virt. eigenvalues --    0.28579   0.30750   0.31603   0.31853   0.32373

 Mulliken charges:
               1
     1  C   -0.170823
     2  C   -0.218613
     3  C   -0.171216
     4  C    0.155566
     5  C   -0.171803
     6  C   -0.218558
     7  H    0.226076
     8  H    0.224008
     9  H    0.276284
    10  H    0.275866
    11  H    0.223823
    12  N    0.490873
    13  O   -0.459038
    14  O   -0.459194
    15  C   -0.298193
    16  C   -0.298858
    17  C   -0.475100
    18  H    0.150062
    19  H    0.147722
    20  H    0.152754
    21  H    0.149439
    22  H    0.151955
    23  H    0.155910
    24  H    0.159339
    25  C   -0.297332
    26  C   -0.298095
    27  C   -0.473452
    28  H    0.149362
    29  H    0.145963
    30  H    0.152226
    31  H    0.145334
    32  H    0.154883
    33  H    0.148321
    34  H    0.174505
 Sum of Mulliken charges =  -0.00000

 Dipole moment (field-independent basis, Debye):
    X=             -0.3236    Y=             -4.9973    Z=              0.9462  Tot=              5.0964
 Quadrupole moment (field-independent basis, Debye-Ang):
   XX=            -97.5584   YY=            -93.8716   ZZ=            -90.0945
   XY=            -12.2656   XZ=              1.6430   YZ=              0.3325

 Normal termination of Gaussian 16 at Thu May  6 11:01:18 2021.
