 Gaussian 16, Revision A.03,
 Gaussian 16:  EM64L-G16RevA.03 25-Dec-2016

 -------------
 #p 6-31g* mp2
 -------------

 ------------------------------------------------------
 Input file generated by CHIRIPA (05-May-2021 14:53:18)
 ------------------------------------------------------
 Symbolic Z-matrix:
 Charge =  0 Multiplicity = 1

                         Standard orientation:
 ---------------------------------------------------------------------
 Center     Atomic      Atomic             Coordinates (Angstroms)
 Number     Number       Type             X           Y           Z
 ---------------------------------------------------------------------
      1          6           0       -2.795258   -0.197844   -0.281779
      2          6           0       -3.745501   -1.348388    0.051798
      3          6           0       -3.352482   -2.657361   -0.633708
      4          1           0       -2.774758   -0.051533   -1.370410
      5          1           0       -1.774750   -0.476457    0.015426
      6          1           0       -4.764134   -1.067138   -0.244683
      7          1           0       -3.763887   -1.491852    1.139776
      8          1           0       -2.346635   -2.964600   -0.329606
      9          1           0       -3.352565   -2.537473   -1.721931
     10          1           0       -4.045120   -3.466366   -0.381470
     11          6           0       -3.175022    1.117451    0.396090
     12          6           0       -2.224780    2.267995    0.062512
     13          6           0       -2.617799    3.576968    0.748019
     14          1           0       -4.195531    1.396064    0.098884
     15          1           0       -3.195522    0.971140    1.484721
     16          1           0       -2.206393    2.411459   -1.025466
     17          1           0       -1.206147    1.986745    0.358993
     18          1           0       -2.617716    3.457080    1.836241
     19          1           0       -3.623645    3.884207    0.443916
     20          1           0       -1.925160    4.385973    0.495780
     21          6           0        1.045619   -2.467441    0.471287
     22          6           0        2.135015   -2.099564    1.267782
     23          6           0        2.855117   -0.933582    0.991218
     24          6           0        2.456517   -0.155407   -0.094531
     25          6           0        1.375670   -0.495230   -0.906676
     26          6           0        0.670085   -1.665514   -0.611490
     27          1           0        0.491866   -3.374875    0.693361
     28          1           0        2.428921   -2.720427    2.109324
     29          1           0        3.702500   -0.625223    1.591445
     30          1           0        1.106513    0.143952   -1.738793
     31          1           0       -0.175534   -1.948743   -1.231777
     32          7           0        3.211171    1.081244   -0.397174
     33          8           0        2.839892    1.749699   -1.359441
     34          8           0        4.159660    1.358659    0.333611
 ---------------------------------------------------------------------

 SCF Done:  E(RHF) =  -669.534604387     A.U. after   15 cycles
 E2 =    -0.2093733624D+01 EUMP2 =    -0.67162833801076D+03

 The electronic state is 1-A.
 Alpha  occ. eigenvalues --  -20.60792 -20.60787 -15.85845 -11.31234 -11.27782
 Alpha  occ. eigenvalues --  -11.27769 -11.27525 -11.26819 -11.26741 -11.22289
 Alpha  occ. eigenvalues --  -11.22104 -11.21861 -11.21734 -11.21663 -11.21074
 Alpha  occ. eigenvalues --   -1.59867  -1.39420  -1.19403  -1.08900  -1.08777
 Alpha  occ. eigenvalues --   -1.04804  -1.03981  -0.96453  -0.95623  -0.87475
 Alpha  occ. eigenvalues --   -0.86205  -0.82458  -0.80075  -0.78685  -0.77472
 Alpha  occ. eigenvalues --   -0.72062  -0.71191  -0.70500  -0.65573  -0.65048
 Alpha  occ. eigenvalues --   -0.64768  -0.62163  -0.61355  -0.59838  -0.58046
 Alpha  occ. eigenvalues --   -0.55781  -0.55292  -0.53240  -0.53087  -0.52912
 Alpha  occ. eigenvalues --   -0.52850  -0.50420  -0.48833  -0.48816  -0.48349
 Alpha  occ. eigenvalues --   -0.47092  -0.46192  -0.46079  -0.44818  -0.44203
 Alpha  occ. eigenvalues --   -0.37368  -0.36312
 Alpha virt. eigenvalues --    0.05016   0.11118   0.16462   0.19878   0.22785
 Alpha virt. eigenvalues --    0.23845   0.25584   0.26140   0.26980   0.27909
 Alpha virt. eigenvalues --    0.29114   0.30365   0.31230   0.31556   0.32024

 Mulliken charges:
               1
     1  C   -0.309974
     2  C   -0.298195
     3  C   -0.478844
     4  H    0.145750
     5  H    0.157030
     6  H    0.155424
     7  H    0.153393
     8  H    0.143824
     9  H    0.156011
    10  H    0.164937
    11  C   -0.297250
    12  C   -0.301121
    13  C   -0.476389
    14  H    0.150111
    15  H    0.150171
    16  H    0.152115
    17  H    0.154314
    18  H    0.154970
    19  H    0.154578
    20  H    0.165065
    21  C   -0.174622
    22  C   -0.218107
    23  C   -0.171348
    24  C    0.158371
    25  C   -0.171366
    26  C   -0.221454
    27  H    0.226300
    28  H    0.223652
    29  H    0.275693
    30  H    0.276824
    31  H    0.232431
    32  N    0.488014
    33  O   -0.459969
    34  O   -0.460336
 Sum of Mulliken charges =  -0.00000

 Dipole moment (field-independent basis, Debye):
    X=             -2.6852    Y=             -4.2695    Z=              1.0929  Tot=              5.1607
 Quadrupole moment (field-independent basis, Debye-Ang):
   XX=           -105.9884   YY=            -94.7234   ZZ=            -91.8092
   XY=            -11.0172   XZ=              6.0651   YZ=             -1.2321

 Normal termination of Gaussian 16 at Wed May  5 22:04:19 2021.
