 Gaussian 16, Revision A.03,
 Gaussian 16:  EM64L-G16RevA.03 25-Dec-2016

 -------------
 #p 6-31g* mp2
 -------------

 ------------------------------------------------------
 Input file generated by CHIRIPA (05-May-2021 14:53:18)
 ------------------------------------------------------
 Symbolic Z-matrix:
 Charge =  0 Multiplicity = 1

                         Standard orientation:
 ---------------------------------------------------------------------
 Center     Atomic      Atomic             Coordinates (Angstroms)
 Number     Number       Type             X           Y           Z
 ---------------------------------------------------------------------
      1          6           0       -4.990982    0.332127   -0.276736
      2          6           0       -6.422123    0.289541    0.259927
      3          6           0       -7.327556    1.338016   -0.387132
      4          1           0       -4.572713    1.333965   -0.108461
      5          1           0       -5.010147    0.180129   -1.364819
      6          1           0       -6.400150    0.440195    1.346866
      7          1           0       -6.836967   -0.712369    0.090528
      8          1           0       -7.379223    1.186771   -1.470210
      9          1           0       -6.939924    2.345884   -0.206733
     10          1           0       -8.345863    1.289858    0.011104
     11          6           0       -4.073746   -0.710135    0.360521
     12          6           0       -2.642605   -0.667549   -0.176142
     13          6           0       -1.737172   -1.716023    0.470917
     14          1           0       -4.054581   -0.558136    1.448603
     15          1           0       -4.492015   -1.711973    0.192246
     16          1           0       -2.227761    0.334362   -0.006743
     17          1           0       -2.664578   -0.818203   -1.263081
     18          1           0       -2.124804   -2.723891    0.290518
     19          1           0       -1.685505   -1.564779    1.553994
     20          1           0       -0.718865   -1.667865    0.072681
     21          6           0        3.920102    2.635955    0.141981
     22          6           0        5.011679    1.766487    0.047080
     23          6           0        4.813433    0.385985   -0.050184
     24          6           0        3.504251   -0.092900   -0.049619
     25          6           0        2.396155    0.747769    0.043596
     26          6           0        2.618119    2.124722    0.139940
     27          1           0        4.083316    3.706983    0.217180
     28          1           0        6.023924    2.160698    0.048424
     29          1           0        5.640381   -0.309718   -0.124835
     30          1           0        1.398779    0.325106    0.039723
     31          1           0        1.768487    2.797594    0.213518
     32          7           0        3.281822   -1.552497   -0.152100
     33          8           0        2.118569   -1.949326   -0.149464
     34          8           0        4.274947   -2.272063   -0.233123
 ---------------------------------------------------------------------

 SCF Done:  E(RHF) =  -669.535994636     A.U. after   15 cycles
 E2 =    -0.2091028410D+01 EUMP2 =    -0.67162702304553D+03

 The electronic state is 1-A.
 Alpha  occ. eigenvalues --  -20.60872 -20.60866 -15.85917 -11.31242 -11.27809
 Alpha  occ. eigenvalues --  -11.27804 -11.27550 -11.26820 -11.26810 -11.21540
 Alpha  occ. eigenvalues --  -11.21380 -11.21304 -11.21187 -11.21049 -11.20398
 Alpha  occ. eigenvalues --   -1.59939  -1.39495  -1.19414  -1.08817  -1.08280
 Alpha  occ. eigenvalues --   -1.04812  -1.03324  -0.95749  -0.95647  -0.86743
 Alpha  occ. eigenvalues --   -0.86213  -0.82493  -0.79393  -0.78104  -0.77545
 Alpha  occ. eigenvalues --   -0.72145  -0.71254  -0.70524  -0.65072  -0.64921
 Alpha  occ. eigenvalues --   -0.64816  -0.62166  -0.60732  -0.59104  -0.57351
 Alpha  occ. eigenvalues --   -0.55318  -0.55032  -0.53143  -0.52912  -0.52371
 Alpha  occ. eigenvalues --   -0.52154  -0.49688  -0.48893  -0.48884  -0.47688
 Alpha  occ. eigenvalues --   -0.46456  -0.45639  -0.45575  -0.44906  -0.43543
 Alpha  occ. eigenvalues --   -0.37395  -0.36414
 Alpha virt. eigenvalues --    0.04993   0.11240   0.16492   0.20602   0.22913
 Alpha virt. eigenvalues --    0.23849   0.26453   0.26889   0.27610   0.27729
 Alpha virt. eigenvalues --    0.29131   0.30503   0.31573   0.31650   0.32005

 Mulliken charges:
               1
     1  C   -0.297631
     2  C   -0.299500
     3  C   -0.475513
     4  H    0.146575
     5  H    0.149580
     6  H    0.151532
     7  H    0.152789
     8  H    0.155242
     9  H    0.153871
    10  H    0.160197
    11  C   -0.297479
    12  C   -0.299585
    13  C   -0.488588
    14  H    0.148616
    15  H    0.151326
    16  H    0.141248
    17  H    0.152597
    18  H    0.157316
    19  H    0.151359
    20  H    0.183917
    21  C   -0.170442
    22  C   -0.218748
    23  C   -0.170656
    24  C    0.157174
    25  C   -0.171519
    26  C   -0.219796
    27  H    0.225814
    28  H    0.223633
    29  H    0.275696
    30  H    0.279712
    31  H    0.223975
    32  N    0.494323
    33  O   -0.467580
    34  O   -0.459455
 Sum of Mulliken charges =  -0.00000

 Dipole moment (field-independent basis, Debye):
    X=              0.9293    Y=              5.0440    Z=              0.3397  Tot=              5.1401
 Quadrupole moment (field-independent basis, Debye-Ang):
   XX=            -85.1013   YY=            -96.0295   ZZ=            -95.3889
   XY=             18.2820   XZ=              0.9738   YZ=              0.5666

 Normal termination of Gaussian 16 at Thu May  6 07:35:39 2021.
