 Gaussian 16, Revision A.03,
 Gaussian 16:  EM64L-G16RevA.03 25-Dec-2016

 -------------
 #p 6-31g* mp2
 -------------

 ------------------------------------------------------
 Input file generated by CHIRIPA (05-May-2021 14:55:25)
 ------------------------------------------------------
 Symbolic Z-matrix:
 Charge =  0 Multiplicity = 1

                         Standard orientation:
 ---------------------------------------------------------------------
 Center     Atomic      Atomic             Coordinates (Angstroms)
 Number     Number       Type             X           Y           Z
 ---------------------------------------------------------------------
      1          6           0        2.417751    2.295241    1.051520
      2          6           0        1.245791    1.759561    0.507391
      3          6           0        1.253484    0.495607   -0.090028
      4          6           0        2.456154   -0.208363   -0.126097
      5          6           0        3.640255    0.298300    0.407279
      6          6           0        3.609142    1.564190    0.999819
      7          1           0        2.402679    3.277863    1.513715
      8          1           0        0.319093    2.325049    0.546115
      9          1           0        0.360704    0.057035   -0.518999
     10          1           0        4.548773   -0.289180    0.353627
     11          1           0        4.520823    1.977705    1.421587
     12          7           0        2.476695   -1.547479   -0.755975
     13          8           0        3.549132   -2.147606   -0.775045
     14          8           0        1.419969   -1.971595   -1.218677
     15          6           0       -2.781915    0.554081   -0.333103
     16          6           0       -3.603897    1.841785   -0.397509
     17          6           0       -2.875053    2.972640   -1.123971
     18          1           0       -1.827751    0.760495    0.170790
     19          1           0       -2.533230    0.234590   -1.354609
     20          1           0       -3.852134    2.157999    0.623766
     21          1           0       -4.556297    1.632239   -0.901138
     22          1           0       -2.641059    2.681573   -2.153111
     23          1           0       -1.932895    3.210320   -0.619543
     24          1           0       -3.480659    3.883637   -1.158413
     25          6           0       -3.497174   -0.585671    0.390153
     26          6           0       -2.675191   -1.873374    0.454559
     27          6           0       -3.404036   -3.004230    1.181021
     28          1           0       -3.745859   -0.266179    1.411659
     29          1           0       -4.451339   -0.792085   -0.113740
     30          1           0       -1.722792   -1.663828    0.958188
     31          1           0       -2.426955   -2.189588   -0.566716
     32          1           0       -4.346193   -3.241910    0.676593
     33          1           0       -3.638029   -2.713162    2.210161
     34          1           0       -2.798430   -3.915227    1.215464
 ---------------------------------------------------------------------

 SCF Done:  E(RHF) =  -669.535238492     A.U. after   15 cycles
 E2 =    -0.2092938747D+01 EUMP2 =    -0.67162817723901D+03

 The electronic state is 1-A.
 Alpha  occ. eigenvalues --  -20.60725 -20.60719 -15.85773 -11.31115 -11.27708
 Alpha  occ. eigenvalues --  -11.27628 -11.27452 -11.26721 -11.26694 -11.22218
 Alpha  occ. eigenvalues --  -11.22039 -11.21842 -11.21645 -11.21513 -11.20936
 Alpha  occ. eigenvalues --   -1.59797  -1.39351  -1.19298  -1.08841  -1.08700
 Alpha  occ. eigenvalues --   -1.04702  -1.03838  -0.96334  -0.95535  -0.87346
 Alpha  occ. eigenvalues --   -0.86100  -0.82379  -0.79951  -0.78652  -0.77380
 Alpha  occ. eigenvalues --   -0.71993  -0.71120  -0.70413  -0.65507  -0.64942
 Alpha  occ. eigenvalues --   -0.64719  -0.62067  -0.61213  -0.59717  -0.57912
 Alpha  occ. eigenvalues --   -0.55654  -0.55214  -0.53046  -0.53000  -0.52872
 Alpha  occ. eigenvalues --   -0.52635  -0.50288  -0.48759  -0.48748  -0.48229
 Alpha  occ. eigenvalues --   -0.46997  -0.46129  -0.46005  -0.44756  -0.44117
 Alpha  occ. eigenvalues --   -0.37287  -0.36297
 Alpha virt. eigenvalues --    0.05089   0.11314   0.16551   0.19229   0.23024
 Alpha virt. eigenvalues --    0.23391   0.25187   0.25655   0.26932   0.28503
 Alpha virt. eigenvalues --    0.29467   0.30579   0.31449   0.31858   0.32635

 Mulliken charges:
               1
     1  C   -0.171355
     2  C   -0.225894
     3  C   -0.178173
     4  C    0.158213
     5  C   -0.170543
     6  C   -0.218898
     7  H    0.225660
     8  H    0.229194
     9  H    0.284556
    10  H    0.275310
    11  H    0.223203
    12  N    0.488256
    13  O   -0.460755
    14  O   -0.460669
    15  C   -0.306331
    16  C   -0.299767
    17  C   -0.477773
    18  H    0.140959
    19  H    0.155319
    20  H    0.152337
    21  H    0.156832
    22  H    0.159775
    23  H    0.145419
    24  H    0.164014
    25  C   -0.297801
    26  C   -0.302249
    27  C   -0.476604
    28  H    0.148806
    29  H    0.152021
    30  H    0.152085
    31  H    0.161350
    32  H    0.154806
    33  H    0.153003
    34  H    0.165695
 Sum of Mulliken charges =  -0.00000

 Dipole moment (field-independent basis, Debye):
    X=             -0.2432    Y=              4.5802    Z=              2.1376  Tot=              5.0603
 Quadrupole moment (field-independent basis, Debye-Ang):
   XX=            -89.7621   YY=            -97.8625   ZZ=            -95.3232
   XY=             11.1657   XZ=              7.5549   YZ=             -0.4245

 Normal termination of Gaussian 16 at Thu May  6 09:34:17 2021.
