 Gaussian 16, Revision A.03,
 Gaussian 16:  EM64L-G16RevA.03 25-Dec-2016

 -------------
 #p 6-31g* mp2
 -------------

 ------------------------------------------------------
 Input file generated by CHIRIPA (05-May-2021 14:55:19)
 ------------------------------------------------------
 Symbolic Z-matrix:
 Charge =  0 Multiplicity = 1

                         Standard orientation:
 ---------------------------------------------------------------------
 Center     Atomic      Atomic             Coordinates (Angstroms)
 Number     Number       Type             X           Y           Z
 ---------------------------------------------------------------------
      1          6           0       -2.749927   -1.899814    0.987303
      2          6           0       -3.280099   -1.460421   -0.230224
      3          6           0       -3.040254   -0.158822   -0.680627
      4          6           0       -2.262395    0.680569    0.115393
      5          6           0       -1.720284    0.272200    1.333031
      6          6           0       -1.973081   -1.033628    1.763676
      7          1           0       -2.941275   -2.912570    1.329513
      8          1           0       -3.883766   -2.130928   -0.835246
      9          1           0       -3.438443    0.207291   -1.619149
     10          1           0       -1.122290    0.963605    1.914218
     11          1           0       -1.560058   -1.372147    2.709647
     12          7           0       -2.001626    2.060752   -0.350970
     13          8           0       -1.313147    2.780829    0.368838
     14          8           0       -2.490651    2.396328   -1.427483
     15          6           0        3.693545   -0.408661   -0.296390
     16          6           0        4.086842    0.827611    0.512887
     17          6           0        5.575693    1.157559    0.402212
     18          1           0        4.287285   -1.267290    0.045918
     19          1           0        3.956844   -0.247055   -1.350883
     20          1           0        3.821617    0.664273    1.565309
     21          1           0        3.491960    1.683355    0.168742
     22          1           0        5.851873    1.346887   -0.640132
     23          1           0        6.183402    0.322015    0.764370
     24          1           0        5.834948    2.044720    0.988380
     25          6           0        2.208208   -0.751269   -0.195783
     26          6           0        1.814911   -1.987542   -1.005061
     27          6           0        0.326060   -2.317490   -0.894386
     28          1           0        1.944910   -0.912875    0.858708
     29          1           0        1.614468    0.107359   -0.538093
     30          1           0        2.409792   -2.843286   -0.660916
     31          1           0        2.080137   -1.824204   -2.057483
     32          1           0       -0.281648   -1.481946   -1.256544
     33          1           0        0.049880   -2.506819    0.147957
     34          1           0        0.066805   -3.204650   -1.480555
 ---------------------------------------------------------------------

 SCF Done:  E(RHF) =  -669.534109818     A.U. after   15 cycles
 E2 =    -0.2094483236D+01 EUMP2 =    -0.67162859305415D+03

 The electronic state is 1-A.
 Alpha  occ. eigenvalues --  -20.60820 -20.60813 -15.85873 -11.31233 -11.27800
 Alpha  occ. eigenvalues --  -11.27789 -11.27503 -11.26790 -11.26772 -11.21590
 Alpha  occ. eigenvalues --  -11.21432 -11.21371 -11.21276 -11.21020 -11.20911
 Alpha  occ. eigenvalues --   -1.59896  -1.39449  -1.19407  -1.08801  -1.08363
 Alpha  occ. eigenvalues --   -1.04802  -1.03454  -0.95919  -0.95632  -0.86940
 Alpha  occ. eigenvalues --   -0.86201  -0.82463  -0.79531  -0.78183  -0.77513
 Alpha  occ. eigenvalues --   -0.72088  -0.71223  -0.70505  -0.65053  -0.65000
 Alpha  occ. eigenvalues --   -0.64802  -0.62147  -0.60862  -0.59300  -0.57598
 Alpha  occ. eigenvalues --   -0.55299  -0.55225  -0.53595  -0.52892  -0.52603
 Alpha  occ. eigenvalues --   -0.51907  -0.49884  -0.48848  -0.48844  -0.47724
 Alpha  occ. eigenvalues --   -0.46580  -0.45691  -0.45640  -0.44851  -0.43727
 Alpha  occ. eigenvalues --   -0.37293  -0.36353
 Alpha virt. eigenvalues --    0.05003   0.11148   0.16481   0.21236   0.22928
 Alpha virt. eigenvalues --    0.24349   0.26475   0.27010   0.27741   0.27849
 Alpha virt. eigenvalues --    0.28606   0.30886   0.31487   0.31764   0.32031

 Mulliken charges:
               1
     1  C   -0.167286
     2  C   -0.214135
     3  C   -0.174130
     4  C    0.158986
     5  C   -0.167987
     6  C   -0.218474
     7  H    0.225885
     8  H    0.223817
     9  H    0.275754
    10  H    0.276069
    11  H    0.223247
    12  N    0.487590
    13  O   -0.460200
    14  O   -0.460583
    15  C   -0.298137
    16  C   -0.300605
    17  C   -0.475751
    18  H    0.147815
    19  H    0.150927
    20  H    0.148958
    21  H    0.158257
    22  H    0.155941
    23  H    0.153443
    24  H    0.161081
    25  C   -0.297673
    26  C   -0.300072
    27  C   -0.476602
    28  H    0.143098
    29  H    0.153527
    30  H    0.149313
    31  H    0.152711
    32  H    0.159264
    33  H    0.151854
    34  H    0.154098
 Sum of Mulliken charges =  -0.00000

 Dipole moment (field-independent basis, Debye):
    X=             -1.0361    Y=             -4.7732    Z=              1.6554  Tot=              5.1573
 Quadrupole moment (field-independent basis, Debye-Ang):
   XX=            -90.7134   YY=           -101.9443   ZZ=            -90.6286
   XY=             11.0064   XZ=             -1.2681   YZ=              0.7396

 Normal termination of Gaussian 16 at Wed May  5 20:30:47 2021.
