 Gaussian 16, Revision A.03,
 Gaussian 16:  EM64L-G16RevA.03 25-Dec-2016

 -------------
 #p 6-31g* mp2
 -------------

 ------------------------------------------------------
 Input file generated by CHIRIPA (05-May-2021 14:57:26)
 ------------------------------------------------------
 Symbolic Z-matrix:
 Charge =  0 Multiplicity = 1

                         Standard orientation:
 ---------------------------------------------------------------------
 Center     Atomic      Atomic             Coordinates (Angstroms)
 Number     Number       Type             X           Y           Z
 ---------------------------------------------------------------------
      1          6           0       -5.745672   -0.569699    0.560740
      2          6           0       -4.912459   -1.627871    0.183181
      3          6           0       -3.573951   -1.394848   -0.146432
      4          6           0       -3.099634   -0.085330   -0.087459
      5          6           0       -3.904825    0.989967    0.284954
      6          6           0       -5.240087    0.733545    0.610334
      7          1           0       -6.784196   -0.759806    0.815147
      8          1           0       -5.302382   -2.641011    0.143781
      9          1           0       -2.906882   -2.195505   -0.442042
     10          1           0       -3.487468    1.989134    0.314913
     11          1           0       -5.884862    1.557278    0.903204
     12          7           0       -1.684334    0.173747   -0.434165
     13          8           0       -1.290659    1.336536   -0.374343
     14          8           0       -0.995496   -0.790883   -0.759170
     15          6           0        4.562610   -2.045011    0.393107
     16          6           0        3.827037   -1.844290   -0.779567
     17          6           0        3.141761   -0.644226   -0.991206
     18          6           0        3.214008    0.338111   -0.004755
     19          6           0        3.938380    0.168074    1.174085
     20          6           0        4.615840   -1.039960    1.364478
     21          1           0        5.091914   -2.980345    0.549261
     22          1           0        3.783921   -2.623066   -1.535672
     23          1           0        2.564808   -0.462410   -1.889808
     24          1           0        3.962636    0.962934    1.909631
     25          1           0        5.186309   -1.193073    2.276161
     26          7           0        2.492674    1.612783   -0.217562
     27          8           0        2.572132    2.462573    0.666848
     28          8           0        1.861493    1.737947   -1.264740
 ---------------------------------------------------------------------

 SCF Done:  E(RHF) =  -868.336361069     A.U. after   16 cycles
 E2 =    -0.2600575526D+01 EUMP2 =    -0.87093693659452D+03

 The electronic state is 1-A.
 Alpha  occ. eigenvalues --  -20.60293 -20.60193 -20.59209 -20.59048 -15.85295
 Alpha  occ. eigenvalues --  -15.84185 -11.30840 -11.29859 -11.27463 -11.27395
 Alpha  occ. eigenvalues --  -11.27216 -11.26550 -11.26509 -11.26466 -11.26425
 Alpha  occ. eigenvalues --  -11.26369 -11.25648 -11.25574  -1.59315  -1.58176
 Alpha  occ. eigenvalues --   -1.38863  -1.37729  -1.19032  -1.18085  -1.08395
 Alpha  occ. eigenvalues --   -1.07436  -1.04461  -1.03546  -0.95197  -0.94214
 Alpha  occ. eigenvalues --   -0.85851  -0.84934  -0.82026  -0.81058  -0.77047
 Alpha  occ. eigenvalues --   -0.76030  -0.71508  -0.70660  -0.70424  -0.70142
 Alpha  occ. eigenvalues --   -0.69476  -0.69228  -0.64680  -0.64466  -0.63750
 Alpha  occ. eigenvalues --   -0.63580  -0.61805  -0.60891  -0.54961  -0.54086
 Alpha  occ. eigenvalues --   -0.52783  -0.52557  -0.51850  -0.51661  -0.48312
 Alpha  occ. eigenvalues --   -0.48249  -0.47189  -0.47143  -0.44233  -0.43005
 Alpha  occ. eigenvalues --   -0.37027  -0.36103  -0.36074  -0.35151
 Alpha virt. eigenvalues --    0.05490   0.06544   0.11578   0.12498   0.16948
 Alpha virt. eigenvalues --    0.17945   0.21690   0.22476   0.27585   0.28357
 Alpha virt. eigenvalues --    0.28607   0.29425   0.31223   0.31966   0.32860

 Mulliken charges:
               1
     1  C   -0.171418
     2  C   -0.218591
     3  C   -0.171608
     4  C    0.158708
     5  C   -0.170976
     6  C   -0.218647
     7  H    0.224282
     8  H    0.221441
     9  H    0.272933
    10  H    0.278915
    11  H    0.223261
    12  N    0.486726
    13  O   -0.444583
    14  O   -0.469836
    15  C   -0.172294
    16  C   -0.219650
    17  C   -0.161214
    18  C    0.160217
    19  C   -0.172388
    20  C   -0.219503
    21  H    0.220133
    22  H    0.219493
    23  H    0.280169
    24  H    0.272145
    25  H    0.218034
    26  N    0.490045
    27  O   -0.469759
    28  O   -0.446033
 Sum of Mulliken charges =  -0.00000

 Dipole moment (field-independent basis, Debye):
    X=             -2.7143    Y=             -5.1162    Z=              1.7565  Tot=              6.0521
 Quadrupole moment (field-independent basis, Debye-Ang):
   XX=            -60.4758   YY=           -103.3738   ZZ=           -102.0925
   XY=            -10.6623   XZ=             -0.0343   YZ=              2.7787

 Normal termination of Gaussian 16 at Fri May  7 00:28:29 2021.
