 Gaussian 16, Revision A.03,
 Gaussian 16:  EM64L-G16RevA.03 25-Dec-2016

 -------------
 #p 6-31g* mp2
 -------------

 ------------------------------------------------------
 Input file generated by CHIRIPA (05-May-2021 14:57:25)
 ------------------------------------------------------
 Symbolic Z-matrix:
 Charge =  0 Multiplicity = 1

                         Standard orientation:
 ---------------------------------------------------------------------
 Center     Atomic      Atomic             Coordinates (Angstroms)
 Number     Number       Type             X           Y           Z
 ---------------------------------------------------------------------
      1          6           0       -5.106464    1.211700    0.463761
      2          6           0       -3.882566    1.821039    0.168298
      3          6           0       -2.775452    1.049728   -0.197664
      4          6           0       -2.928401   -0.334545   -0.258359
      5          6           0       -4.134565   -0.971122    0.030132
      6          6           0       -5.228343   -0.179983    0.393858
      7          1           0       -5.961316    1.818574    0.747181
      8          1           0       -3.784998    2.901626    0.221757
      9          1           0       -1.816272    1.495449   -0.431597
     10          1           0       -4.201110   -2.050541   -0.031883
     11          1           0       -6.177614   -0.655930    0.622775
     12          7           0       -1.763409   -1.161593   -0.644604
     13          8           0       -1.924089   -2.379252   -0.690711
     14          8           0       -0.711667   -0.576515   -0.893921
     15          6           0        2.867929    2.682027   -0.169947
     16          6           0        1.936303    1.991022    0.611786
     17          6           0        2.066271    0.614772    0.820576
     18          6           0        3.144814   -0.041886    0.229955
     19          6           0        4.089468    0.618620   -0.554042
     20          6           0        3.939649    1.994833   -0.749344
     21          1           0        2.759257    3.751116   -0.326902
     22          1           0        1.102996    2.522116    1.062988
     23          1           0        1.359554    0.055150    1.421235
     24          1           0        4.909661    0.061902   -0.990809
     25          1           0        4.664684    2.528890   -1.356923
     26          7           0        3.292913   -1.498840    0.443851
     27          8           0        4.251967   -2.054309   -0.087473
     28          8           0        2.447136   -2.057743    1.138779
 ---------------------------------------------------------------------

 SCF Done:  E(RHF) =  -868.336835679     A.U. after   16 cycles
 E2 =    -0.2600577035D+01 EUMP2 =    -0.87093741271400D+03

 The electronic state is 1-A.
 Alpha  occ. eigenvalues --  -20.60913 -20.60860 -20.59744 -20.59695 -15.85936
 Alpha  occ. eigenvalues --  -15.84785 -11.31438 -11.30258 -11.28071 -11.27969
 Alpha  occ. eigenvalues --  -11.27762 -11.27092 -11.27013 -11.26945 -11.26904
 Alpha  occ. eigenvalues --  -11.26802 -11.26031 -11.25989  -1.59948  -1.58783
 Alpha  occ. eigenvalues --   -1.39505  -1.38338  -1.19615  -1.18499  -1.08980
 Alpha  occ. eigenvalues --   -1.07891  -1.05042  -1.03951  -0.95796  -0.94696
 Alpha  occ. eigenvalues --   -0.86430  -0.85357  -0.82630  -0.81548  -0.77665
 Alpha  occ. eigenvalues --   -0.76542  -0.72158  -0.71286  -0.71019  -0.70718
 Alpha  occ. eigenvalues --   -0.70081  -0.69668  -0.65267  -0.65043  -0.64187
 Alpha  occ. eigenvalues --   -0.64017  -0.62393  -0.61313  -0.55521  -0.54523
 Alpha  occ. eigenvalues --   -0.53359  -0.53136  -0.52231  -0.52091  -0.48920
 Alpha  occ. eigenvalues --   -0.48887  -0.47789  -0.47749  -0.44881  -0.43715
 Alpha  occ. eigenvalues --   -0.37593  -0.36654  -0.36510  -0.35501
 Alpha virt. eigenvalues --    0.04837   0.06064   0.10993   0.12108   0.16350
 Alpha virt. eigenvalues --    0.17405   0.20821   0.22048   0.26300   0.27496
 Alpha virt. eigenvalues --    0.28676   0.28957   0.30685   0.31373   0.32774

 Mulliken charges:
               1
     1  C   -0.170921
     2  C   -0.218118
     3  C   -0.174445
     4  C    0.159123
     5  C   -0.170168
     6  C   -0.218155
     7  H    0.226093
     8  H    0.221295
     9  H    0.270863
    10  H    0.278139
    11  H    0.224967
    12  N    0.489301
    13  O   -0.452329
    14  O   -0.464800
    15  C   -0.170663
    16  C   -0.221689
    17  C   -0.149211
    18  C    0.159601
    19  C   -0.169775
    20  C   -0.219492
    21  H    0.219909
    22  H    0.212756
    23  H    0.274765
    24  H    0.274081
    25  H    0.219822
    26  N    0.489860
    27  O   -0.464724
    28  O   -0.456086
 Sum of Mulliken charges =  -0.00000

 Dipole moment (field-independent basis, Debye):
    X=             -4.8519    Y=              7.6690    Z=              0.5919  Tot=              9.0942
 Quadrupole moment (field-independent basis, Debye-Ang):
   XX=            -79.9357   YY=           -105.0598   ZZ=           -105.8023
   XY=             11.5470   XZ=             -8.5444   YZ=             -0.4658

 Normal termination of Gaussian 16 at Thu May  6 18:03:53 2021.
