 Gaussian 16, Revision A.03,
 Gaussian 16:  EM64L-G16RevA.03 25-Dec-2016

 -------------
 #p 6-31g* mp2
 -------------

 ------------------------------------------------------
 Input file generated by CHIRIPA (05-May-2021 14:51:07)
 ------------------------------------------------------
 Symbolic Z-matrix:
 Charge =  0 Multiplicity = 1

                         Standard orientation:
 ---------------------------------------------------------------------
 Center     Atomic      Atomic             Coordinates (Angstroms)
 Number     Number       Type             X           Y           Z
 ---------------------------------------------------------------------
      1          6           0       -3.628954    0.290716   -0.305139
      2          6           0       -3.684491   -1.134944    0.244764
      3          6           0       -4.856329   -1.940197   -0.317513
      4          1           0       -4.572630    0.803302   -0.073453
      5          1           0       -3.555606    0.251058   -1.400786
      6          1           0       -3.756318   -1.092624    1.339143
      7          1           0       -2.740498   -1.644133    0.011910
      8          1           0       -4.786452   -2.012110   -1.407718
      9          1           0       -5.808043   -1.457468   -0.072943
     10          1           0       -4.876971   -2.956210    0.088875
     11          6           0       -2.462853    1.108254    0.247642
     12          6           0       -2.407317    2.533915   -0.302261
     13          6           0       -1.235478    3.339167    0.260016
     14          1           0       -2.536201    1.147913    1.343289
     15          1           0       -1.519177    0.595669    0.015956
     16          1           0       -3.351309    3.043104   -0.069407
     17          1           0       -2.335489    2.491595   -1.396640
     18          1           0       -0.283764    2.856438    0.015446
     19          1           0       -1.305355    3.411081    1.350221
     20          1           0       -1.214836    4.355181   -0.146372
     21          6           0        2.514304   -1.172350   -0.249161
     22          6           0        1.299727   -1.324878    0.667095
     23          6           0        0.244985   -2.273995    0.097456
     24          1           0        2.181803   -0.806901   -1.230402
     25          1           0        2.962897   -2.160877   -0.419377
     26          1           0        0.854380   -0.336175    0.836648
     27          1           0        1.635182   -1.689824    1.646329
     28          1           0        0.667463   -3.272375   -0.055354
     29          1           0       -0.117775   -1.911035   -0.869635
     30          1           0       -0.614475   -2.368367    0.768488
     31          6           0        3.577503   -0.226621    0.306658
     32          6           0        4.792080   -0.074093   -0.609597
     33          6           0        5.846823    0.875025   -0.039959
     34          1           0        3.128910    0.761906    0.476874
     35          1           0        3.910005   -0.592070    1.287900
     36          1           0        4.456625    0.290853   -1.588833
     37          1           0        5.237428   -1.062796   -0.779151
     38          1           0        6.209583    0.512065    0.927133
     39          1           0        5.424344    1.873404    0.112851
     40          1           0        6.706282    0.969396   -0.710991
 ---------------------------------------------------------------------

 SCF Done:  E(RHF) =  -470.732777625     A.U. after   11 cycles
 E2 =    -0.1583824759D+01 EUMP2 =    -0.47231660238373D+03

 The electronic state is 1-A.
 Alpha  occ. eigenvalues --  -11.21631 -11.21618 -11.21616 -11.21486 -11.21434
 Alpha  occ. eigenvalues --  -11.21383 -11.21373 -11.21321 -11.21113 -11.21108
 Alpha  occ. eigenvalues --  -11.21078 -11.21016  -1.08471  -1.08400  -1.03567
 Alpha  occ. eigenvalues --   -1.03505  -0.96019  -0.95963  -0.87056  -0.86964
 Alpha  occ. eigenvalues --   -0.79699  -0.79507  -0.78277  -0.78223  -0.65214
 Alpha  occ. eigenvalues --   -0.64945  -0.60970  -0.60922  -0.59462  -0.59258
 Alpha  occ. eigenvalues --   -0.57622  -0.57574  -0.55354  -0.55215  -0.52800
 Alpha  occ. eigenvalues --   -0.52621  -0.52445  -0.52361  -0.50007  -0.49874
 Alpha  occ. eigenvalues --   -0.48043  -0.47802  -0.46780  -0.46472  -0.45906
 Alpha  occ. eigenvalues --   -0.45772  -0.45705  -0.45537  -0.43791  -0.43724
 Alpha virt. eigenvalues --    0.20400   0.23085   0.23924   0.24020   0.26100
 Alpha virt. eigenvalues --    0.26848   0.26970   0.27228   0.28317   0.29821
 Alpha virt. eigenvalues --    0.30273   0.31319   0.31603   0.32091   0.32153

 Mulliken charges:
               1
     1  C   -0.297251
     2  C   -0.308721
     3  C   -0.475049
     4  H    0.149445
     5  H    0.148817
     6  H    0.150515
     7  H    0.162739
     8  H    0.154854
     9  H    0.154732
    10  H    0.159940
    11  C   -0.305192
    12  C   -0.299408
    13  C   -0.475930
    14  H    0.149280
    15  H    0.156796
    16  H    0.152250
    17  H    0.151663
    18  H    0.154108
    19  H    0.155486
    20  H    0.160499
    21  C   -0.298395
    22  C   -0.303873
    23  C   -0.480374
    24  H    0.149132
    25  H    0.149732
    26  H    0.155500
    27  H    0.152470
    28  H    0.155600
    29  H    0.154242
    30  H    0.165998
    31  C   -0.298392
    32  C   -0.299652
    33  C   -0.475753
    34  H    0.149589
    35  H    0.149877
    36  H    0.151865
    37  H    0.151961
    38  H    0.155232
    39  H    0.155377
    40  H    0.160291
 Sum of Mulliken charges =  -0.00000

 Dipole moment (field-independent basis, Debye):
    X=              0.0322    Y=             -0.0228    Z=              0.0144  Tot=              0.0421
 Quadrupole moment (field-independent basis, Debye-Ang):
   XX=            -85.7837   YY=            -84.9673   ZZ=            -84.1455
   XY=             -1.6965   XZ=             -0.7061   YZ=             -0.5570

 Normal termination of Gaussian 16 at Wed May  5 16:34:36 2021.
