 Gaussian 16, Revision A.03,
 Gaussian 16:  EM64L-G16RevA.03 25-Dec-2016

 -------------
 #p 6-31g* mp2
 -------------

 ------------------------------------------------------
 Input file generated by CHIRIPA (05-May-2021 14:51:10)
 ------------------------------------------------------
 Symbolic Z-matrix:
 Charge =  0 Multiplicity = 1

                         Standard orientation:
 ---------------------------------------------------------------------
 Center     Atomic      Atomic             Coordinates (Angstroms)
 Number     Number       Type             X           Y           Z
 ---------------------------------------------------------------------
      1          6           0       -2.393655    0.921015    0.152198
      2          6           0       -2.127606    2.419741    0.007208
      3          6           0       -0.688388    2.801028    0.355151
      4          1           0       -2.170328    0.613471    1.182968
      5          1           0       -1.699906    0.368134   -0.496209
      6          1           0       -2.822577    2.969693    0.654652
      7          1           0       -2.351775    2.723790   -1.023287
      8          1           0        0.017383    2.278314   -0.298499
      9          1           0       -0.456094    2.525614    1.388973
     10          1           0       -0.520187    3.876838    0.244685
     11          6           0       -3.828140    0.524277   -0.192153
     12          6           0       -4.094189   -0.974449   -0.047163
     13          6           0       -5.533408   -1.355736   -0.395106
     14          1           0       -4.521889    1.077158    0.456253
     15          1           0       -4.051467    0.831821   -1.222924
     16          1           0       -3.870020   -1.278498    0.983331
     17          1           0       -3.399218   -1.524401   -0.694607
     18          1           0       -5.765701   -1.080322   -1.428928
     19          1           0       -6.239178   -0.833021    0.258544
     20          1           0       -5.701608   -2.431546   -0.284640
     21          6           0        3.734812   -0.391354    0.310507
     22          6           0        4.698161    0.128597   -0.757011
     23          6           0        5.941502    0.788698   -0.160216
     24          1           0        3.433343    0.441625    0.960282
     25          1           0        4.262223   -1.112077    0.950657
     26          1           0        4.168705    0.847087   -1.395811
     27          1           0        4.997223   -0.705679   -1.404438
     28          1           0        6.494546    0.077222    0.461512
     29          1           0        5.661318    1.638811    0.470187
     30          1           0        6.616432    1.153163   -0.940916
     31          6           0        2.486983   -1.053939   -0.270552
     32          6           0        1.523634   -1.573889    0.796967
     33          6           0        0.280294   -2.233990    0.200171
     34          1           0        1.959572   -0.333216   -0.910702
     35          1           0        2.788453   -1.886917   -0.920327
     36          1           0        1.224572   -0.739613    1.444393
     37          1           0        2.053091   -2.292379    1.435767
     38          1           0        0.560476   -3.084103   -0.430232
     39          1           0       -0.272751   -1.522515   -0.421556
     40          1           0       -0.394637   -2.598456    0.980871
 ---------------------------------------------------------------------

 SCF Done:  E(RHF) =  -470.733214458     A.U. after   11 cycles
 E2 =    -0.1583391511D+01 EUMP2 =    -0.47231660596924D+03

 The electronic state is 1-A.
 Alpha  occ. eigenvalues --  -11.21646 -11.21580 -11.21579 -11.21549 -11.21419
 Alpha  occ. eigenvalues --  -11.21380 -11.21359 -11.21320 -11.21152 -11.21057
 Alpha  occ. eigenvalues --  -11.21049 -11.20979  -1.08458  -1.08391  -1.03552
 Alpha  occ. eigenvalues --   -1.03488  -0.96016  -0.95929  -0.87029  -0.86949
 Alpha  occ. eigenvalues --   -0.79611  -0.79560  -0.78289  -0.78188  -0.65143
 Alpha  occ. eigenvalues --   -0.64978  -0.60965  -0.60876  -0.59375  -0.59299
 Alpha  occ. eigenvalues --   -0.57645  -0.57533  -0.55392  -0.55148  -0.52712
 Alpha  occ. eigenvalues --   -0.52616  -0.52465  -0.52333  -0.50026  -0.49820
 Alpha  occ. eigenvalues --   -0.47980  -0.47846  -0.46735  -0.46592  -0.45897
 Alpha  occ. eigenvalues --   -0.45778  -0.45696  -0.45392  -0.43806  -0.43742
 Alpha virt. eigenvalues --    0.20273   0.22935   0.23962   0.24412   0.25242
 Alpha virt. eigenvalues --    0.26397   0.26446   0.27756   0.28796   0.29560
 Alpha virt. eigenvalues --    0.31005   0.31026   0.31722   0.31888   0.32278

 Mulliken charges:
               1
     1  C   -0.303065
     2  C   -0.299268
     3  C   -0.476674
     4  H    0.150164
     5  H    0.154263
     6  H    0.152236
     7  H    0.151974
     8  H    0.154846
     9  H    0.155190
    10  H    0.160713
    11  C   -0.298158
    12  C   -0.300573
    13  C   -0.475772
    14  H    0.149495
    15  H    0.149420
    16  H    0.151911
    17  H    0.153806
    18  H    0.155071
    19  H    0.155037
    20  H    0.160400
    21  C   -0.298457
    22  C   -0.299581
    23  C   -0.475724
    24  H    0.150341
    25  H    0.149430
    26  H    0.151791
    27  H    0.151768
    28  H    0.155099
    29  H    0.155384
    30  H    0.160140
    31  C   -0.298666
    32  C   -0.300180
    33  C   -0.479697
    34  H    0.148900
    35  H    0.149519
    36  H    0.152889
    37  H    0.151604
    38  H    0.154113
    39  H    0.159871
    40  H    0.160436
 Sum of Mulliken charges =  -0.00000

 Dipole moment (field-independent basis, Debye):
    X=             -0.0278    Y=              0.0098    Z=              0.0086  Tot=              0.0307
 Quadrupole moment (field-independent basis, Debye-Ang):
   XX=            -86.4260   YY=            -84.4270   ZZ=            -83.9477
   XY=             -1.3664   XZ=             -0.7389   YZ=             -0.0832

 Normal termination of Gaussian 16 at Thu May  6 00:39:24 2021.
