 Gaussian 16, Revision A.03,
 Gaussian 16:  EM64L-G16RevA.03 25-Dec-2016

 -------------
 #p 6-31g* mp2
 -------------

 ------------------------------------------------------
 Input file generated by CHIRIPA (05-May-2021 14:57:27)
 ------------------------------------------------------
 Symbolic Z-matrix:
 Charge =  0 Multiplicity = 1

                         Standard orientation:
 ---------------------------------------------------------------------
 Center     Atomic      Atomic             Coordinates (Angstroms)
 Number     Number       Type             X           Y           Z
 ---------------------------------------------------------------------
      1          6           0        5.212044    1.281098   -1.075517
      2          6           0        4.610446    1.664375    0.127687
      3          6           0        3.723612    0.805211    0.783362
      4          6           0        3.459877   -0.435441    0.204988
      5          6           0        4.043414   -0.846050   -0.992583
      6          6           0        4.927110    0.029316   -1.630833
      7          1           0        5.899739    1.954810   -1.578094
      8          1           0        4.829865    2.635921    0.561274
      9          1           0        3.243889    1.076571    1.715911
     10          1           0        3.805046   -1.820899   -1.400342
     11          1           0        5.392853   -0.271000   -2.565145
     12          7           0        2.522687   -1.353576    0.889899
     13          8           0        2.306917   -2.441219    0.359698
     14          8           0        2.021632   -0.968181    1.943963
     15          6           0       -1.454435    1.509997    0.352838
     16          6           0       -2.673471    2.192563    0.420489
     17          6           0       -3.876382    1.523458    0.175846
     18          6           0       -3.823149    0.165608   -0.135122
     19          6           0       -2.624509   -0.542154   -0.210134
     20          6           0       -1.433882    0.147219    0.038298
     21          1           0       -0.524756    2.037646    0.544354
     22          1           0       -2.692462    3.250922    0.664543
     23          1           0       -4.834162    2.027433    0.221505
     24          1           0       -2.637500   -1.597100   -0.455774
     25          1           0       -0.488635   -0.385434   -0.014946
     26          7           0       -5.090115   -0.553472   -0.396120
     27          8           0       -5.016267   -1.749805   -0.668094
     28          8           0       -6.133023    0.092863   -0.323774
 ---------------------------------------------------------------------

 SCF Done:  E(RHF) =  -868.338433761     A.U. after   16 cycles
 E2 =    -0.2599184187D+01 EUMP2 =    -0.87093761794793D+03

 The electronic state is 1-A.
 Alpha  occ. eigenvalues --  -20.61840 -20.61829 -20.60280 -20.60267 -15.86870
 Alpha  occ. eigenvalues --  -15.85325 -11.32102 -11.30624 -11.28668 -11.28614
 Alpha  occ. eigenvalues --  -11.28322 -11.27621 -11.27577 -11.27218 -11.27111
 Alpha  occ. eigenvalues --  -11.26942 -11.26258 -11.26102  -1.60930  -1.59352
 Alpha  occ. eigenvalues --   -1.40475  -1.38907  -1.20254  -1.18788  -1.09670
 Alpha  occ. eigenvalues --   -1.08205  -1.05624  -1.04169  -0.96524  -0.95051
 Alpha  occ. eigenvalues --   -0.87026  -0.85579  -0.83348  -0.81875  -0.78427
 Alpha  occ. eigenvalues --   -0.76926  -0.73064  -0.72285  -0.71546  -0.71334
 Alpha  occ. eigenvalues --   -0.70673  -0.69922  -0.65893  -0.65607  -0.64441
 Alpha  occ. eigenvalues --   -0.64164  -0.62967  -0.61509  -0.56105  -0.54717
 Alpha  occ. eigenvalues --   -0.53972  -0.53700  -0.52514  -0.52258  -0.49846
 Alpha  occ. eigenvalues --   -0.49821  -0.48305  -0.48298  -0.45895  -0.44327
 Alpha  occ. eigenvalues --   -0.38221  -0.37226  -0.36781  -0.35760
 Alpha virt. eigenvalues --    0.04065   0.05593   0.10416   0.11888   0.15595
 Alpha virt. eigenvalues --    0.17102   0.20588   0.21830   0.26522   0.27225
 Alpha virt. eigenvalues --    0.27768   0.28731   0.30389   0.31025   0.31988

 Mulliken charges:
               1
     1  C   -0.169966
     2  C   -0.218504
     3  C   -0.174857
     4  C    0.154729
     5  C   -0.170857
     6  C   -0.218113
     7  H    0.228756
     8  H    0.225270
     9  H    0.274671
    10  H    0.277795
    11  H    0.226927
    12  N    0.484297
    13  O   -0.457785
    14  O   -0.460378
    15  C   -0.169890
    16  C   -0.218714
    17  C   -0.172143
    18  C    0.158298
    19  C   -0.171947
    20  C   -0.215228
    21  H    0.220592
    22  H    0.219933
    23  H    0.273485
    24  H    0.278432
    25  H    0.229671
    26  N    0.488059
    27  O   -0.459859
    28  O   -0.462673
 Sum of Mulliken charges =  -0.00000

 Dipole moment (field-independent basis, Debye):
    X=              8.1220    Y=              5.6571    Z=             -1.5572  Tot=             10.0197
 Quadrupole moment (field-independent basis, Debye-Ang):
   XX=           -115.3853   YY=           -101.5080   ZZ=           -104.3725
   XY=             -1.6451   XZ=            -13.4064   YZ=              5.1318

 Normal termination of Gaussian 16 at Thu May  6 06:49:49 2021.
