 Gaussian 16, Revision A.03,
 Gaussian 16:  EM64L-G16RevA.03 25-Dec-2016

 -------------
 #p 6-31g* mp2
 -------------

 ------------------------------------------------------
 Input file generated by CHIRIPA (05-May-2021 14:57:21)
 ------------------------------------------------------
 Symbolic Z-matrix:
 Charge =  0 Multiplicity = 1

                         Standard orientation:
 ---------------------------------------------------------------------
 Center     Atomic      Atomic             Coordinates (Angstroms)
 Number     Number       Type             X           Y           Z
 ---------------------------------------------------------------------
      1          6           0       -1.874649    1.992401    0.580735
      2          6           0       -2.429829    1.774942   -0.684574
      3          6           0       -3.283772    0.690876   -0.908472
      4          6           0       -3.562305   -0.159657    0.160314
      5          6           0       -3.024762    0.030452    1.432397
      6          6           0       -2.173361    1.120998    1.633327
      7          1           0       -1.212273    2.837047    0.745743
      8          1           0       -2.199610    2.450051   -1.503886
      9          1           0       -3.727335    0.499098   -1.877952
     10          1           0       -3.272851   -0.659749    2.229576
     11          1           0       -1.743644    1.287424    2.617040
     12          7           0       -4.464991   -1.310739   -0.064559
     13          8           0       -4.694680   -2.045522    0.893550
     14          8           0       -4.925734   -1.456379   -1.194666
     15          6           0        5.351722   -1.337522    0.751243
     16          6           0        4.791669   -0.285590    1.483569
     17          6           0        3.717525    0.445686    0.967819
     18          6           0        3.226155    0.096345   -0.289085
     19          6           0        3.762615   -0.946351   -1.042931
     20          6           0        4.836316   -1.663969   -0.507451
     21          1           0        6.185969   -1.900290    1.159553
     22          1           0        5.189891   -0.029839    2.461350
     23          1           0        3.264950    1.264794    1.513398
     24          1           0        3.344069   -1.177817   -2.014868
     25          1           0        5.269269   -2.480417   -1.078425
     26          7           0        2.089241    0.863285   -0.845530
     27          8           0        1.674561    0.535692   -1.955197
     28          8           0        1.634337    1.777485   -0.161469
 ---------------------------------------------------------------------

 SCF Done:  E(RHF) =  -868.339742233     A.U. after   16 cycles
 E2 =    -0.2598843573D+01 EUMP2 =    -0.87093858580628D+03

 The electronic state is 1-A.
 Alpha  occ. eigenvalues --  -20.61533 -20.61495 -20.59964 -20.59952 -15.86547
 Alpha  occ. eigenvalues --  -15.85009 -11.31708 -11.30108 -11.28280 -11.28224
 Alpha  occ. eigenvalues --  -11.27946 -11.27233 -11.27194 -11.26734 -11.26637
 Alpha  occ. eigenvalues --  -11.26224 -11.25636 -11.25479  -1.60572  -1.59044
 Alpha  occ. eigenvalues --   -1.40136  -1.38605  -1.19858  -1.18255  -1.09290
 Alpha  occ. eigenvalues --   -1.07658  -1.05233  -1.03635  -0.96164  -0.94542
 Alpha  occ. eigenvalues --   -0.86640  -0.85025  -0.83009  -0.81403  -0.78078
 Alpha  occ. eigenvalues --   -0.76517  -0.72804  -0.71870  -0.71234  -0.70965
 Alpha  occ. eigenvalues --   -0.70366  -0.69273  -0.65517  -0.65234  -0.63895
 Alpha  occ. eigenvalues --   -0.63627  -0.62586  -0.61008  -0.55736  -0.54023
 Alpha  occ. eigenvalues --   -0.53568  -0.53323  -0.51963  -0.51722  -0.49550
 Alpha  occ. eigenvalues --   -0.49510  -0.48002  -0.47964  -0.45583  -0.44072
 Alpha  occ. eigenvalues --   -0.37822  -0.36826  -0.36110  -0.35248
 Alpha virt. eigenvalues --    0.04434   0.06054   0.10833   0.12432   0.15972
 Alpha virt. eigenvalues --    0.17646   0.20985   0.22612   0.26904   0.27845
 Alpha virt. eigenvalues --    0.28404   0.29539   0.30585   0.32002   0.32234

 Mulliken charges:
               1
     1  C   -0.157865
     2  C   -0.214516
     3  C   -0.171500
     4  C    0.156155
     5  C   -0.173132
     6  C   -0.222799
     7  H    0.233815
     8  H    0.226821
     9  H    0.273002
    10  H    0.270373
    11  H    0.217458
    12  N    0.488339
    13  O   -0.464970
    14  O   -0.462689
    15  C   -0.169950
    16  C   -0.218360
    17  C   -0.170793
    18  C    0.158683
    19  C   -0.169979
    20  C   -0.218300
    21  H    0.227565
    22  H    0.224167
    23  H    0.272276
    24  H    0.277172
    25  H    0.225789
    26  N    0.490957
    27  O   -0.457232
    28  O   -0.470486
 Sum of Mulliken charges =  -0.00000

 Dipole moment (field-independent basis, Debye):
    X=              7.6243    Y=              1.4705    Z=              2.5835  Tot=              8.1833
 Quadrupole moment (field-independent basis, Debye-Ang):
   XX=           -103.6293   YY=           -105.5718   ZZ=            -98.1399
   XY=            -24.6818   XZ=              3.7825   YZ=              2.6925

 Normal termination of Gaussian 16 at Thu May  6 17:48:57 2021.
