 Gaussian 16, Revision A.03,
 Gaussian 16:  EM64L-G16RevA.03 25-Dec-2016

 -------------
 #p 6-31g* mp2
 -------------

 ------------------------------------------------------
 Input file generated by CHIRIPA (05-May-2021 14:57:23)
 ------------------------------------------------------
 Symbolic Z-matrix:
 Charge =  0 Multiplicity = 1

                         Standard orientation:
 ---------------------------------------------------------------------
 Center     Atomic      Atomic             Coordinates (Angstroms)
 Number     Number       Type             X           Y           Z
 ---------------------------------------------------------------------
      1          6           0       -4.443091    2.148025   -0.068046
      2          6           0       -3.676811    1.710681   -1.153434
      3          6           0       -3.020305    0.477199   -1.107929
      4          6           0       -3.152321   -0.296905    0.043863
      5          6           0       -3.908497    0.111252    1.141541
      6          6           0       -4.556288    1.348325    1.073964
      7          1           0       -4.949696    3.107617   -0.111969
      8          1           0       -3.587121    2.329643   -2.041627
      9          1           0       -2.420647    0.114286   -1.933836
     10          1           0       -3.979159   -0.527841    2.013312
     11          1           0       -5.150717    1.685421    1.918396
     12          7           0       -2.461920   -1.604637    0.103721
     13          8           0       -2.594053   -2.267981    1.129953
     14          8           0       -1.801725   -1.941531   -0.876728
     15          6           0        4.240440    2.376805    0.350185
     16          6           0        4.978276    1.237603    0.688324
     17          6           0        4.448403   -0.039238    0.479860
     18          6           0        3.171913   -0.140540   -0.071140
     19          6           0        2.412116    0.975438   -0.418405
     20          6           0        2.961968    2.242324   -0.201127
     21          1           0        4.659819    3.364820    0.515548
     22          1           0        5.971406    1.339020    1.116639
     23          1           0        4.997840   -0.937970    0.732485
     24          1           0        1.424763    0.842485   -0.843701
     25          1           0        2.386673    3.125283   -0.464689
     26          7           0        2.600384   -1.487004   -0.296495
     27          8           0        1.473558   -1.549356   -0.783337
     28          8           0        3.290067   -2.454517    0.017978
 ---------------------------------------------------------------------

 SCF Done:  E(RHF) =  -868.334935212     A.U. after   16 cycles
 E2 =    -0.2600813894D+01 EUMP2 =    -0.87093574910625D+03

 The electronic state is 1-A.
 Alpha  occ. eigenvalues --  -20.60055 -20.60033 -20.59963 -20.59930 -15.85056
 Alpha  occ. eigenvalues --  -15.85048 -11.30853 -11.30794 -11.27467 -11.27459
 Alpha  occ. eigenvalues --  -11.27431 -11.27392 -11.27292 -11.27220 -11.26594
 Alpha  occ. eigenvalues --  -11.26567 -11.26529 -11.26485  -1.59079  -1.59053
 Alpha  occ. eigenvalues --   -1.38629  -1.38587  -1.19066  -1.19003  -1.08379
 Alpha  occ. eigenvalues --   -1.08329  -1.04531  -1.04464  -0.95150  -0.95086
 Alpha  occ. eigenvalues --   -0.85905  -0.85844  -0.82000  -0.81895  -0.76975
 Alpha  occ. eigenvalues --   -0.76885  -0.71402  -0.71119  -0.70459  -0.70340
 Alpha  occ. eigenvalues --   -0.70164  -0.70103  -0.64708  -0.64636  -0.64534
 Alpha  occ. eigenvalues --   -0.64474  -0.61868  -0.61810  -0.55016  -0.54954
 Alpha  occ. eigenvalues --   -0.52845  -0.52769  -0.52624  -0.52564  -0.48129
 Alpha  occ. eigenvalues --   -0.48047  -0.48002  -0.47922  -0.44069  -0.43753
 Alpha  occ. eigenvalues --   -0.37073  -0.37000  -0.36164  -0.36084
 Alpha virt. eigenvalues --    0.05541   0.05682   0.11472   0.11567   0.16966
 Alpha virt. eigenvalues --    0.17097   0.21471   0.21733   0.27235   0.27611
 Alpha virt. eigenvalues --    0.28268   0.28794   0.30806   0.31368   0.32386

 Mulliken charges:
               1
     1  C   -0.172574
     2  C   -0.219710
     3  C   -0.174763
     4  C    0.159606
     5  C   -0.171725
     6  C   -0.218605
     7  H    0.223341
     8  H    0.220725
     9  H    0.277348
    10  H    0.275989
    11  H    0.222122
    12  N    0.487050
    13  O   -0.463101
    14  O   -0.445015
    15  C   -0.171903
    16  C   -0.218371
    17  C   -0.171115
    18  C    0.159659
    19  C   -0.171242
    20  C   -0.218231
    21  H    0.223404
    22  H    0.222300
    23  H    0.276056
    24  H    0.273144
    25  H    0.219541
    26  N    0.487517
    27  O   -0.449223
    28  O   -0.462224
 Sum of Mulliken charges =  -0.00000

 Dipole moment (field-independent basis, Debye):
    X=             -0.4081    Y=              9.0277    Z=              0.5027  Tot=              9.0509
 Quadrupole moment (field-independent basis, Debye-Ang):
   XX=            -74.6569   YY=           -109.3250   ZZ=           -100.9633
   XY=             -0.6323   XZ=              2.8562   YZ=             -1.6081

 Normal termination of Gaussian 16 at Thu May  6 08:10:38 2021.
