 Gaussian 16, Revision A.03,
 Gaussian 16:  EM64L-G16RevA.03 25-Dec-2016

 -------------
 #p 6-31g* mp2
 -------------

 ------------------------------------------------------
 Input file generated by CHIRIPA (05-May-2021 14:53:16)
 ------------------------------------------------------
 Symbolic Z-matrix:
 Charge =  0 Multiplicity = 1

                         Standard orientation:
 ---------------------------------------------------------------------
 Center     Atomic      Atomic             Coordinates (Angstroms)
 Number     Number       Type             X           Y           Z
 ---------------------------------------------------------------------
      1          6           0       -3.059172    0.245540   -0.572036
      2          6           0       -3.906863   -0.935755   -0.098807
      3          6           0       -4.517234   -1.726622   -1.256292
      4          1           0       -3.680516    0.911897   -1.185912
      5          1           0       -2.258232   -0.125695   -1.226310
      6          1           0       -4.705131   -0.562555    0.555491
      7          1           0       -3.283478   -1.599278    0.514172
      8          1           0       -3.732023   -2.126396   -1.906082
      9          1           0       -5.161754   -1.083783   -1.864529
     10          1           0       -5.119166   -2.566433   -0.895383
     11          6           0       -2.442214    1.045912    0.573606
     12          6           0       -1.594523    2.227208    0.100378
     13          6           0       -0.984152    3.018075    1.257862
     14          1           0       -3.243154    1.417147    1.227880
     15          1           0       -1.820869    0.379555    1.187482
     16          1           0       -2.217908    2.890731   -0.512602
     17          1           0       -0.796254    1.854008   -0.553920
     18          1           0       -0.339632    2.375235    1.866099
     19          1           0       -1.769362    3.417849    1.907652
     20          1           0       -0.382220    3.857886    0.896954
     21          6           0        0.897415   -1.541638    1.929102
     22          6           0        0.271995   -1.396108    0.686447
     23          6           0        0.955829   -0.822841   -0.389788
     24          6           0        2.269975   -0.404205   -0.187171
     25          6           0        2.920412   -0.535581    1.038782
     26          6           0        2.217300   -1.111666    2.101001
     27          1           0        0.358708   -1.988061    2.759703
     28          1           0       -0.752964   -1.729128    0.550049
     29          1           0        0.495752   -0.698162   -1.362516
     30          1           0        3.943007   -0.194106    1.144199
     31          1           0        2.705536   -1.223427    3.064941
     32          7           0        3.004124    0.204180   -1.319113
     33          8           0        4.161157    0.564975   -1.114813
     34          8           0        2.408616    0.308719   -2.389197
 ---------------------------------------------------------------------

 SCF Done:  E(RHF) =  -669.534157765     A.U. after   15 cycles
 E2 =    -0.2095289595D+01 EUMP2 =    -0.67162944735999D+03

 The electronic state is 1-A.
 Alpha  occ. eigenvalues --  -20.60833 -20.60828 -15.85885 -11.31284 -11.27836
 Alpha  occ. eigenvalues --  -11.27826 -11.27578 -11.26864 -11.26833 -11.22474
 Alpha  occ. eigenvalues --  -11.22103 -11.21835 -11.21775 -11.21743 -11.21219
 Alpha  occ. eigenvalues --   -1.59906  -1.39459  -1.19457  -1.09044  -1.08827
 Alpha  occ. eigenvalues --   -1.04863  -1.04024  -0.96470  -0.95672  -0.87483
 Alpha  occ. eigenvalues --   -0.86266  -0.82508  -0.80128  -0.78801  -0.77560
 Alpha  occ. eigenvalues --   -0.72102  -0.71230  -0.70556  -0.65934  -0.65097
 Alpha  occ. eigenvalues --   -0.64731  -0.62142  -0.61450  -0.59843  -0.58069
 Alpha  occ. eigenvalues --   -0.55784  -0.55330  -0.53202  -0.53161  -0.52933
 Alpha  occ. eigenvalues --   -0.52854  -0.50429  -0.48868  -0.48857  -0.48419
 Alpha  occ. eigenvalues --   -0.47211  -0.46307  -0.46244  -0.44855  -0.44290
 Alpha  occ. eigenvalues --   -0.37400  -0.36388
 Alpha virt. eigenvalues --    0.04959   0.11044   0.16391   0.18885   0.23303
 Alpha virt. eigenvalues --    0.23528   0.24692   0.25592   0.27282   0.28770
 Alpha virt. eigenvalues --    0.29768   0.30771   0.31288   0.31360   0.31875

 Mulliken charges:
               1
     1  C   -0.302739
     2  C   -0.302276
     3  C   -0.475630
     4  H    0.156801
     5  H    0.143427
     6  H    0.156822
     7  H    0.141428
     8  H    0.154472
     9  H    0.159668
    10  H    0.161872
    11  C   -0.302133
    12  C   -0.300775
    13  C   -0.477111
    14  H    0.150604
    15  H    0.147886
    16  H    0.153931
    17  H    0.155266
    18  H    0.155301
    19  H    0.153937
    20  H    0.164039
    21  C   -0.174111
    22  C   -0.221712
    23  C   -0.174903
    24  C    0.159358
    25  C   -0.170910
    26  C   -0.218045
    27  H    0.226601
    28  H    0.233925
    29  H    0.276971
    30  H    0.275994
    31  H    0.224056
    32  N    0.488372
    33  O   -0.459914
    34  O   -0.460472
 Sum of Mulliken charges =  -0.00000

 Dipole moment (field-independent basis, Debye):
    X=             -2.6109    Y=             -2.0691    Z=              3.9566  Tot=              5.1723
 Quadrupole moment (field-independent basis, Debye-Ang):
   XX=           -102.5210   YY=            -93.6931   ZZ=            -95.4871
   XY=             -4.2507   XZ=             12.2194   YZ=             -1.4185

 Normal termination of Gaussian 16 at Wed May  5 21:57:29 2021.
