 Gaussian 16, Revision A.03,
 Gaussian 16:  EM64L-G16RevA.03 25-Dec-2016

 -------------
 #p 6-31g* mp2
 -------------

 ------------------------------------------------------
 Input file generated by CHIRIPA (05-May-2021 14:51:08)
 ------------------------------------------------------
 Symbolic Z-matrix:
 Charge =  0 Multiplicity = 1

                         Standard orientation:
 ---------------------------------------------------------------------
 Center     Atomic      Atomic             Coordinates (Angstroms)
 Number     Number       Type             X           Y           Z
 ---------------------------------------------------------------------
      1          6           0       -4.951978   -0.482742   -0.297545
      2          6           0       -6.326335   -0.080505    0.238491
      3          6           0       -7.474407   -0.610900   -0.620814
      4          1           0       -4.843705   -0.111964   -1.326012
      5          1           0       -4.893997   -1.578642   -0.352644
      6          1           0       -6.381207    1.014273    0.293867
      7          1           0       -6.431274   -0.452119    1.265870
      8          1           0       -7.447916   -1.704423   -0.666706
      9          1           0       -7.397565   -0.229699   -1.644231
     10          1           0       -8.447685   -0.311662   -0.219507
     11          6           0       -3.794089    0.040057    0.550808
     12          6           0       -2.419732   -0.362180    0.014772
     13          6           0       -1.271660    0.168215    0.874077
     14          1           0       -3.852070    1.135957    0.605907
     15          1           0       -3.902362   -0.330721    1.579275
     16          1           0       -2.314794    0.009434   -1.012607
     17          1           0       -2.364860   -1.456958   -0.040604
     18          1           0       -1.348502   -0.212986    1.897494
     19          1           0       -1.298151    1.261738    0.919969
     20          1           0       -0.298382   -0.131023    0.472770
     21          6           0        4.697617   -0.465190   -0.208792
     22          6           0        6.185200   -0.478808    0.144615
     23          6           0        6.820432   -1.859238   -0.024764
     24          1           0        4.170456   -1.193011    0.423128
     25          1           0        4.571353   -0.803089   -1.246712
     26          1           0        6.308736   -0.139664    1.181116
     27          1           0        6.708851    0.249267   -0.488088
     28          1           0        6.726603   -2.202052   -1.060271
     29          1           0        6.324215   -2.593193    0.618417
     30          1           0        7.883978   -1.846151    0.233222
     31          6           0        4.048450    0.907875   -0.044471
     32          6           0        2.560867    0.921493   -0.397877
     33          6           0        1.925636    2.301924   -0.228499
     34          1           0        4.174713    1.245774    0.993448
     35          1           0        4.575611    1.635696   -0.676391
     36          1           0        2.037217    0.193418    0.234825
     37          1           0        2.437331    0.582348   -1.434378
     38          1           0        2.421852    3.035877   -0.871679
     39          1           0        2.019464    2.644737    0.807008
     40          1           0        0.862089    2.288835   -0.486485
 ---------------------------------------------------------------------

 SCF Done:  E(RHF) =  -470.732884578     A.U. after   11 cycles
 E2 =    -0.1582851921D+01 EUMP2 =    -0.47231573649821D+03

 The electronic state is 1-A.
 Alpha  occ. eigenvalues --  -11.21597 -11.21591 -11.21591 -11.21570 -11.21398
 Alpha  occ. eigenvalues --  -11.21388 -11.21339 -11.21328 -11.21068 -11.21063
 Alpha  occ. eigenvalues --  -11.21015 -11.20997  -1.08431  -1.08405  -1.03557
 Alpha  occ. eigenvalues --   -1.03473  -0.96028  -0.95897  -0.87020  -0.86939
 Alpha  occ. eigenvalues --   -0.79612  -0.79553  -0.78244  -0.78223  -0.65063
 Alpha  occ. eigenvalues --   -0.65042  -0.60977  -0.60900  -0.59555  -0.59136
 Alpha  occ. eigenvalues --   -0.57703  -0.57431  -0.55301  -0.55196  -0.52765
 Alpha  occ. eigenvalues --   -0.52553  -0.52399  -0.52343  -0.49939  -0.49851
 Alpha  occ. eigenvalues --   -0.48000  -0.47803  -0.46622  -0.46588  -0.45790
 Alpha  occ. eigenvalues --   -0.45757  -0.45703  -0.45693  -0.43767  -0.43713
 Alpha virt. eigenvalues --    0.21787   0.23017   0.23456   0.25103   0.26276
 Alpha virt. eigenvalues --    0.26589   0.27066   0.27300   0.27698   0.29082
 Alpha virt. eigenvalues --    0.29860   0.31189   0.31577   0.31902   0.32614

 Mulliken charges:
               1
     1  C   -0.298205
     2  C   -0.299624
     3  C   -0.475695
     4  H    0.149609
     5  H    0.149503
     6  H    0.151935
     7  H    0.151919
     8  H    0.155167
     9  H    0.155172
    10  H    0.160240
    11  C   -0.298597
    12  C   -0.299400
    13  C   -0.483698
    14  H    0.149513
    15  H    0.149614
    16  H    0.151726
    17  H    0.151820
    18  H    0.154496
    19  H    0.156407
    20  H    0.168411
    21  C   -0.298402
    22  C   -0.299625
    23  C   -0.475704
    24  H    0.149584
    25  H    0.149422
    26  H    0.151968
    27  H    0.151938
    28  H    0.155142
    29  H    0.155159
    30  H    0.160229
    31  C   -0.297651
    32  C   -0.304040
    33  C   -0.477261
    34  H    0.149658
    35  H    0.149586
    36  H    0.155182
    37  H    0.151423
    38  H    0.154398
    39  H    0.155153
    40  H    0.163530
 Sum of Mulliken charges =  -0.00000

 Dipole moment (field-independent basis, Debye):
    X=             -0.0002    Y=              0.0009    Z=              0.0053  Tot=              0.0054
 Quadrupole moment (field-independent basis, Debye-Ang):
   XX=            -86.1073   YY=            -84.9938   ZZ=            -83.7976
   XY=              0.3296   XZ=             -0.6565   YZ=             -0.9453

 Normal termination of Gaussian 16 at Thu May  6 05:15:30 2021.
