 Gaussian 16, Revision A.03,
 Gaussian 16:  EM64L-G16RevA.03 25-Dec-2016

 -------------
 #p 6-31g* mp2
 -------------

 ------------------------------------------------------
 Input file generated by CHIRIPA (05-May-2021 14:55:22)
 ------------------------------------------------------
 Symbolic Z-matrix:
 Charge =  0 Multiplicity = 1

                         Standard orientation:
 ---------------------------------------------------------------------
 Center     Atomic      Atomic             Coordinates (Angstroms)
 Number     Number       Type             X           Y           Z
 ---------------------------------------------------------------------
      1          6           0       -5.308853   -0.652801    0.127770
      2          6           0       -4.601493   -0.890450   -1.055313
      3          6           0       -3.244991   -0.565379   -1.149008
      4          6           0       -2.624543   -0.001508   -0.035283
      5          6           0       -3.302110    0.247425    1.157288
      6          6           0       -4.658052   -0.085622    1.228354
      7          1           0       -6.362399   -0.908422    0.191765
      8          1           0       -5.104327   -1.330816   -1.911631
      9          1           0       -2.673381   -0.738631   -2.052703
     10          1           0       -2.773608    0.687597    1.994159
     11          1           0       -5.204882    0.100064    2.148431
     12          7           0       -1.188772    0.346852   -0.122495
     13          8           0       -0.665163    0.842615    0.872839
     14          8           0       -0.614209    0.117538   -1.184536
     15          6           0        3.800578   -0.543583    0.452376
     16          6           0        4.312156   -1.734887   -0.358223
     17          6           0        4.584202   -2.965671    0.507199
     18          1           0        4.536987   -0.292664    1.228059
     19          1           0        2.880228   -0.834418    0.977511
     20          1           0        5.230510   -1.441470   -0.882769
     21          1           0        3.574531   -1.982879   -1.132191
     22          1           0        3.671145   -3.285877    1.019445
     23          1           0        5.336533   -2.741391    1.270283
     24          1           0        4.949064   -3.805403   -0.092456
     25          6           0        3.524031    0.694425   -0.398849
     26          6           0        3.012453    1.885728    0.411750
     27          6           0        2.740407    3.116512   -0.453672
     28          1           0        4.444381    0.985260   -0.923984
     29          1           0        2.787622    0.443505   -1.174534
     30          1           0        3.750078    2.133719    1.185717
     31          1           0        2.094099    1.592311    0.936296
     32          1           0        1.988076    2.892232   -1.216757
     33          1           0        3.653464    3.436718   -0.965919
     34          1           0        2.375544    3.956244    0.145983
 ---------------------------------------------------------------------

 SCF Done:  E(RHF) =  -669.537010944     A.U. after   15 cycles
 E2 =    -0.2091756533D+01 EUMP2 =    -0.67162876747741D+03

 The electronic state is 1-A.
 Alpha  occ. eigenvalues --  -20.61180 -20.61170 -15.86178 -11.31423 -11.27972
 Alpha  occ. eigenvalues --  -11.27969 -11.27696 -11.26961 -11.26951 -11.20468
 Alpha  occ. eigenvalues --  -11.20190 -11.19957 -11.19656 -11.19597 -11.19426
 Alpha  occ. eigenvalues --   -1.60213  -1.39772  -1.19580  -1.09000  -1.06902
 Alpha  occ. eigenvalues --   -1.04963  -1.02070  -0.95853  -0.94575  -0.86367
 Alpha  occ. eigenvalues --   -0.85602  -0.82690  -0.78182  -0.77752  -0.76661
 Alpha  occ. eigenvalues --   -0.72390  -0.71516  -0.70687  -0.65236  -0.64968
 Alpha  occ. eigenvalues --   -0.63511  -0.62310  -0.59450  -0.57987  -0.56176
 Alpha  occ. eigenvalues --   -0.55469  -0.53857  -0.53299  -0.53053  -0.51332
 Alpha  occ. eigenvalues --   -0.51005  -0.49215  -0.49155  -0.48478  -0.46491
 Alpha  occ. eigenvalues --   -0.45210  -0.45163  -0.44213  -0.43996  -0.42317
 Alpha  occ. eigenvalues --   -0.37555  -0.36560
 Alpha virt. eigenvalues --    0.04773   0.11097   0.16291   0.21231   0.24329
 Alpha virt. eigenvalues --    0.25752   0.27164   0.27979   0.28362   0.28990
 Alpha virt. eigenvalues --    0.29340   0.30829   0.32329   0.32760   0.33063

 Mulliken charges:
               1
     1  C   -0.170279
     2  C   -0.218609
     3  C   -0.170431
     4  C    0.157624
     5  C   -0.170568
     6  C   -0.218572
     7  H    0.226498
     8  H    0.224289
     9  H    0.276034
    10  H    0.276102
    11  H    0.224314
    12  N    0.489972
    13  O   -0.459357
    14  O   -0.459860
    15  C   -0.297872
    16  C   -0.299157
    17  C   -0.474641
    18  H    0.143805
    19  H    0.154391
    20  H    0.148443
    21  H    0.153493
    22  H    0.153615
    23  H    0.152875
    24  H    0.156072
    25  C   -0.299948
    26  C   -0.308143
    27  C   -0.475046
    28  H    0.140234
    29  H    0.163041
    30  H    0.140541
    31  H    0.179609
    32  H    0.161079
    33  H    0.146504
    34  H    0.153945
 Sum of Mulliken charges =  -0.00000

 Dipole moment (field-independent basis, Debye):
    X=             -5.6030    Y=             -1.2749    Z=              0.2965  Tot=              5.7538
 Quadrupole moment (field-independent basis, Debye-Ang):
   XX=            -69.6642   YY=            -96.8270   ZZ=            -90.6426
   XY=              3.6604   XZ=             -0.8484   YZ=              2.5298

 Normal termination of Gaussian 16 at Thu May  6 12:32:53 2021.
