 Gaussian 16, Revision A.03,
 Gaussian 16:  EM64L-G16RevA.03 25-Dec-2016

 -------------
 #p 6-31g* mp2
 -------------

 ------------------------------------------------------
 Input file generated by CHIRIPA (05-May-2021 14:53:17)
 ------------------------------------------------------
 Symbolic Z-matrix:
 Charge =  0 Multiplicity = 1

                         Standard orientation:
 ---------------------------------------------------------------------
 Center     Atomic      Atomic             Coordinates (Angstroms)
 Number     Number       Type             X           Y           Z
 ---------------------------------------------------------------------
      1          6           0       -3.306177    0.086390    0.059900
      2          6           0       -2.354302   -0.714634   -0.829077
      3          6           0       -0.898790   -0.623113   -0.369835
      4          1           0       -2.989232    1.138227    0.071268
      5          1           0       -3.223473   -0.276174    1.093874
      6          1           0       -2.439792   -0.351597   -1.861314
      7          1           0       -2.673663   -1.764651   -0.838483
      8          1           0       -0.792239   -1.004125    0.650987
      9          1           0       -0.557039    0.416957   -0.377655
     10          1           0       -0.235666   -1.203003   -1.019337
     11          6           0       -4.764889    0.004735   -0.386443
     12          6           0       -5.716764    0.805759    0.502534
     13          6           0       -7.172276    0.714238    0.043292
     14          1           0       -4.847593    0.367299   -1.420417
     15          1           0       -5.081834   -1.047102   -0.397811
     16          1           0       -5.397403    1.855776    0.511940
     17          1           0       -5.631274    0.442722    1.534770
     18          1           0       -7.514027   -0.325832    0.051112
     19          1           0       -7.278826    1.095250   -0.977530
     20          1           0       -7.835400    1.294128    0.692794
     21          6           0        4.240369    2.202288   -0.290660
     22          6           0        4.244607    1.224162   -1.290546
     23          6           0        3.645011   -0.019357   -1.069877
     24          6           0        3.047614   -0.251946    0.167988
     25          6           0        3.026982    0.702225    1.184070
     26          6           0        3.632642    1.938663    0.941284
     27          1           0        4.708505    3.165533   -0.470672
     28          1           0        4.715828    1.426116   -2.248258
     29          1           0        3.633812   -0.794554   -1.826421
     30          1           0        2.549353    0.471604    2.128583
     31          1           0        3.627833    2.696404    1.719647
     32          7           0        2.409638   -1.564656    0.413307
     33          8           0        1.889993   -1.744828    1.512463
     34          8           0        2.441318   -2.388528   -0.498212
 ---------------------------------------------------------------------

 SCF Done:  E(RHF) =  -669.536065343     A.U. after   15 cycles
 E2 =    -0.2092302202D+01 EUMP2 =    -0.67162836754528D+03

 The electronic state is 1-A.
 Alpha  occ. eigenvalues --  -20.60855 -20.60840 -15.85850 -11.31192 -11.27758
 Alpha  occ. eigenvalues --  -11.27755 -11.27504 -11.26775 -11.26766 -11.21319
 Alpha  occ. eigenvalues --  -11.21019 -11.20991 -11.20897 -11.20836 -11.20208
 Alpha  occ. eigenvalues --   -1.59891  -1.39454  -1.19362  -1.08766  -1.07994
 Alpha  occ. eigenvalues --   -1.04764  -1.03056  -0.95611  -0.95504  -0.86538
 Alpha  occ. eigenvalues --   -0.86164  -0.82449  -0.79157  -0.77811  -0.77497
 Alpha  occ. eigenvalues --   -0.72101  -0.71187  -0.70478  -0.65023  -0.64772
 Alpha  occ. eigenvalues --   -0.64626  -0.62114  -0.60449  -0.58881  -0.57112
 Alpha  occ. eigenvalues --   -0.55274  -0.54791  -0.53088  -0.52860  -0.52182
 Alpha  occ. eigenvalues --   -0.51939  -0.49454  -0.48862  -0.48840  -0.47482
 Alpha  occ. eigenvalues --   -0.46190  -0.45395  -0.45287  -0.44693  -0.43306
 Alpha  occ. eigenvalues --   -0.37331  -0.36364
 Alpha virt. eigenvalues --    0.05002   0.11278   0.16453   0.21400   0.23298
 Alpha virt. eigenvalues --    0.24857   0.27076   0.27311   0.27909   0.28067
 Alpha virt. eigenvalues --    0.28644   0.30912   0.31897   0.32071   0.32270

 Mulliken charges:
               1
     1  C   -0.297950
     2  C   -0.299041
     3  C   -0.491311
     4  H    0.146085
     5  H    0.150960
     6  H    0.147946
     7  H    0.154870
     8  H    0.171669
     9  H    0.145653
    10  H    0.167492
    11  C   -0.297964
    12  C   -0.299249
    13  C   -0.475455
    14  H    0.148116
    15  H    0.150479
    16  H    0.150215
    17  H    0.152148
    18  H    0.155550
    19  H    0.154397
    20  H    0.159101
    21  C   -0.170770
    22  C   -0.218665
    23  C   -0.171245
    24  C    0.159890
    25  C   -0.170662
    26  C   -0.218846
    27  H    0.225536
    28  H    0.223394
    29  H    0.275461
    30  H    0.275683
    31  H    0.223426
    32  N    0.490813
    33  O   -0.458069
    34  O   -0.459659
 Sum of Mulliken charges =  -0.00000

 Dipole moment (field-independent basis, Debye):
    X=              2.3885    Y=              4.5052    Z=             -0.7947  Tot=              5.1608
 Quadrupole moment (field-independent basis, Debye-Ang):
   XX=            -83.0988   YY=            -96.5007   ZZ=            -90.6298
   XY=             13.7199   XZ=             -4.0671   YZ=              2.0522

 Normal termination of Gaussian 16 at Thu May  6 15:38:38 2021.
