 Gaussian 16, Revision A.03,
 Gaussian 16:  EM64L-G16RevA.03 25-Dec-2016

 -------------
 #p 6-31g* mp2
 -------------

 ------------------------------------------------------
 Input file generated by CHIRIPA (05-May-2021 14:57:27)
 ------------------------------------------------------
 Symbolic Z-matrix:
 Charge =  0 Multiplicity = 1

                         Standard orientation:
 ---------------------------------------------------------------------
 Center     Atomic      Atomic             Coordinates (Angstroms)
 Number     Number       Type             X           Y           Z
 ---------------------------------------------------------------------
      1          6           0        1.193232    1.667352   -1.588352
      2          6           0        2.481830    2.076827   -1.230069
      3          6           0        3.329123    1.217850   -0.523810
      4          6           0        2.853206   -0.049331   -0.190577
      5          6           0        1.574598   -0.486400   -0.533247
      6          6           0        0.744520    0.389299   -1.239413
      7          1           0        0.541721    2.341121   -2.136955
      8          1           0        2.832974    3.068809   -1.499725
      9          1           0        4.331349    1.509176   -0.233824
     10          1           0        1.252680   -1.481274   -0.250383
     11          1           0       -0.255736    0.068604   -1.516339
     12          7           0        3.741085   -0.967543    0.557058
     13          8           0        3.298060   -2.078850    0.838769
     14          8           0        4.863217   -0.558542    0.847187
     15          6           0       -2.293577    1.981735    1.675103
     16          6           0       -3.112801    2.036450    0.542672
     17          6           0       -3.348784    0.888154   -0.219086
     18          6           0       -2.746829   -0.303449    0.182191
     19          6           0       -1.925701   -0.390037    1.305374
     20          6           0       -1.703682    0.770800    2.052175
     21          1           0       -2.115684    2.878629    2.261046
     22          1           0       -3.572238    2.975501    0.247467
     23          1           0       -3.978664    0.902211   -1.100262
     24          1           0       -1.481578   -1.340632    1.574711
     25          1           0       -1.067007    0.725342    2.931166
     26          7           0       -2.989262   -1.525737   -0.616332
     27          8           0       -2.447232   -2.563298   -0.241750
     28          8           0       -3.716720   -1.423063   -1.601674
 ---------------------------------------------------------------------

 SCF Done:  E(RHF) =  -868.337459287     A.U. after   16 cycles
 E2 =    -0.2602178668D+01 EUMP2 =    -0.87093963795485D+03

 The electronic state is 1-A.
 Alpha  occ. eigenvalues --  -20.61583 -20.61576 -20.60844 -20.60836 -15.86628
 Alpha  occ. eigenvalues --  -15.85894 -11.31950 -11.31248 -11.28541 -11.28463
 Alpha  occ. eigenvalues --  -11.28196 -11.27820 -11.27746 -11.27542 -11.27525
 Alpha  occ. eigenvalues --  -11.27424 -11.26858 -11.26759  -1.60674  -1.59922
 Alpha  occ. eigenvalues --   -1.40219  -1.39474  -1.20135  -1.19413  -1.09523
 Alpha  occ. eigenvalues --   -1.08815  -1.05499  -1.04804  -0.96355  -0.95650
 Alpha  occ. eigenvalues --   -0.86897  -0.86209  -0.83166  -0.82479  -0.78235
 Alpha  occ. eigenvalues --   -0.77532  -0.72820  -0.72108  -0.72045  -0.71252
 Alpha  occ. eigenvalues --   -0.71190  -0.70516  -0.65753  -0.65469  -0.65060
 Alpha  occ. eigenvalues --   -0.64814  -0.62831  -0.62156  -0.55968  -0.55327
 Alpha  occ. eigenvalues --   -0.54035  -0.53562  -0.53068  -0.52773  -0.49593
 Alpha  occ. eigenvalues --   -0.49585  -0.48869  -0.48864  -0.45614  -0.44881
 Alpha  occ. eigenvalues --   -0.38109  -0.37409  -0.37281  -0.36185
 Alpha virt. eigenvalues --    0.04184   0.05028   0.10500   0.11219   0.15768
 Alpha virt. eigenvalues --    0.16495   0.20646   0.21296   0.26163   0.26904
 Alpha virt. eigenvalues --    0.27530   0.28420   0.30465   0.30612   0.31549

 Mulliken charges:
               1
     1  C   -0.172922
     2  C   -0.219296
     3  C   -0.172481
     4  C    0.157739
     5  C   -0.177104
     6  C   -0.213932
     7  H    0.224213
     8  H    0.222110
     9  H    0.274843
    10  H    0.280362
    11  H    0.226119
    12  N    0.487574
    13  O   -0.459324
    14  O   -0.461144
    15  C   -0.170104
    16  C   -0.219336
    17  C   -0.177108
    18  C    0.149487
    19  C   -0.173168
    20  C   -0.214540
    21  H    0.228467
    22  H    0.224604
    23  H    0.276222
    24  H    0.279457
    25  H    0.229456
    26  N    0.487054
    27  O   -0.458199
    28  O   -0.459049
 Sum of Mulliken charges =  -0.00000

 Dipole moment (field-independent basis, Debye):
    X=             -2.3881    Y=              7.5431    Z=              0.3404  Tot=              7.9195
 Quadrupole moment (field-independent basis, Debye-Ang):
   XX=           -124.2528   YY=           -104.5965   ZZ=           -101.7248
   XY=             -1.8102   XZ=            -12.7384   YZ=             -2.2409

 Normal termination of Gaussian 16 at Thu May  6 22:58:02 2021.
