 Gaussian 16, Revision A.03,
 Gaussian 16:  EM64L-G16RevA.03 25-Dec-2016

 -------------
 #p 6-31g* mp2
 -------------

 ------------------------------------------------------
 Input file generated by CHIRIPA (05-May-2021 14:57:24)
 ------------------------------------------------------
 Symbolic Z-matrix:
 Charge =  0 Multiplicity = 1

                         Standard orientation:
 ---------------------------------------------------------------------
 Center     Atomic      Atomic             Coordinates (Angstroms)
 Number     Number       Type             X           Y           Z
 ---------------------------------------------------------------------
      1          6           0        2.494402    2.428502   -0.002290
      2          6           0        3.813088    2.285037    0.441561
      3          6           0        4.461601    1.049665    0.353050
      4          6           0        3.758383   -0.025981   -0.187097
      5          6           0        2.443959    0.085253   -0.637881
      6          6           0        1.815243    1.330088   -0.539647
      7          1           0        1.998310    3.391844    0.070243
      8          1           0        4.342988    3.136347    0.859320
      9          1           0        5.481969    0.910626    0.689109
     10          1           0        1.941609   -0.781629   -1.049679
     11          1           0        0.791079    1.438572   -0.885140
     12          7           0        4.434455   -1.338824   -0.285946
     13          8           0        3.793070   -2.271058   -0.765738
     14          8           0        5.592945   -1.410736    0.118240
     15          6           0       -5.676116    0.226459   -1.269569
     16          6           0       -4.411738    0.114067   -1.857137
     17          6           0       -3.280461   -0.116872   -1.068829
     18          6           0       -3.450786   -0.230690    0.310056
     19          6           0       -4.697184   -0.123452    0.925104
     20          6           0       -5.814559    0.107551    0.117232
     21          1           0       -6.549518    0.405883   -1.889545
     22          1           0       -4.301224    0.205982   -2.933884
     23          1           0       -2.289856   -0.208065   -1.497552
     24          1           0       -4.775782   -0.219611    2.001205
     25          1           0       -6.795259    0.194398    0.576286
     26          7           0       -2.260513   -0.475209    1.154958
     27          8           0       -2.437221   -0.571655    2.367439
     28          8           0       -1.173407   -0.565785    0.588714
 ---------------------------------------------------------------------

 SCF Done:  E(RHF) =  -868.338475675     A.U. after   16 cycles
 E2 =    -0.2599242346D+01 EUMP2 =    -0.87093771802139D+03

 The electronic state is 1-A.
 Alpha  occ. eigenvalues --  -20.61457 -20.61410 -20.59981 -20.59968 -15.86478
 Alpha  occ. eigenvalues --  -15.85026 -11.31765 -11.30271 -11.28365 -11.28283
 Alpha  occ. eigenvalues --  -11.28014 -11.27319 -11.27279 -11.26880 -11.26766
 Alpha  occ. eigenvalues --  -11.26609 -11.25910 -11.25785  -1.60494  -1.59053
 Alpha  occ. eigenvalues --   -1.40057  -1.38610  -1.19921  -1.18441  -1.09323
 Alpha  occ. eigenvalues --   -1.07878  -1.05313  -1.03818  -0.96175  -0.94727
 Alpha  occ. eigenvalues --   -0.86714  -0.85244  -0.83018  -0.81554  -0.78085
 Alpha  occ. eigenvalues --   -0.76605  -0.72700  -0.71810  -0.71254  -0.71025
 Alpha  occ. eigenvalues --   -0.70368  -0.69589  -0.65576  -0.65309  -0.64105
 Alpha  occ. eigenvalues --   -0.63846  -0.62669  -0.61171  -0.55798  -0.54389
 Alpha  occ. eigenvalues --   -0.53642  -0.53403  -0.52157  -0.51933  -0.49461
 Alpha  occ. eigenvalues --   -0.49426  -0.48011  -0.48000  -0.45471  -0.44041
 Alpha  occ. eigenvalues --   -0.37884  -0.36913  -0.36446  -0.35379
 Alpha virt. eigenvalues --    0.04434   0.05921   0.10735   0.12249   0.15947
 Alpha virt. eigenvalues --    0.17430   0.20512   0.22158   0.25947   0.27200
 Alpha virt. eigenvalues --    0.28709   0.29102   0.30590   0.31302   0.33009

 Mulliken charges:
               1
     1  C   -0.171783
     2  C   -0.218678
     3  C   -0.171972
     4  C    0.157082
     5  C   -0.163838
     6  C   -0.209853
     7  H    0.221359
     8  H    0.219784
     9  H    0.272739
    10  H    0.277328
    11  H    0.221988
    12  N    0.488395
    13  O   -0.460615
    14  O   -0.463608
    15  C   -0.170430
    16  C   -0.218058
    17  C   -0.171972
    18  C    0.158911
    19  C   -0.170580
    20  C   -0.218179
    21  H    0.227599
    22  H    0.224673
    23  H    0.269995
    24  H    0.277157
    25  H    0.225518
    26  N    0.490093
    27  O   -0.455024
    28  O   -0.468029
 Sum of Mulliken charges =  -0.00000

 Dipole moment (field-independent basis, Debye):
    X=             -7.0033    Y=              5.3987    Z=             -2.5603  Tot=              9.2058
 Quadrupole moment (field-independent basis, Debye-Ang):
   XX=            -89.2785   YY=           -106.4604   ZZ=           -103.4107
   XY=             17.1366   XZ=             10.0525   YZ=              0.9572

 Normal termination of Gaussian 16 at Fri May  7 11:05:00 2021.
