 Gaussian 16, Revision A.03,
 Gaussian 16:  EM64L-G16RevA.03 25-Dec-2016

 -------------
 #p 6-31g* mp2
 -------------

 ------------------------------------------------------
 Input file generated by CHIRIPA (05-May-2021 14:57:22)
 ------------------------------------------------------
 Symbolic Z-matrix:
 Charge =  0 Multiplicity = 1

                         Standard orientation:
 ---------------------------------------------------------------------
 Center     Atomic      Atomic             Coordinates (Angstroms)
 Number     Number       Type             X           Y           Z
 ---------------------------------------------------------------------
      1          6           0       -2.927511    2.340073    0.946613
      2          6           0       -2.094034    1.394467    1.552969
      3          6           0       -2.025004    0.088371    1.059109
      4          6           0       -2.806629   -0.239276   -0.047688
      5          6           0       -3.646707    0.680336   -0.673685
      6          6           0       -3.699825    1.980623   -0.162823
      7          1           0       -2.974954    3.352423    1.336859
      8          1           0       -1.493121    1.670801    2.414704
      9          1           0       -1.388283   -0.663555    1.509233
     10          1           0       -4.233887    0.375167   -1.531303
     11          1           0       -4.348008    2.712911   -0.635749
     12          7           0       -2.741972   -1.618907   -0.579515
     13          8           0       -3.440581   -1.882485   -1.555788
     14          8           0       -1.993910   -2.410559   -0.010018
     15          6           0        3.190910    2.390655   -0.793512
     16          6           0        4.270545    1.505336   -0.709149
     17          6           0        4.075251    0.185067   -0.292855
     18          6           0        2.781164   -0.218073    0.032887
     19          6           0        1.685213    0.640253   -0.040982
     20          6           0        1.903958    1.956055   -0.459748
     21          1           0        3.351727    3.414536   -1.117860
     22          1           0        5.271106    1.840090   -0.967727
     23          1           0        4.893170   -0.521265   -0.218557
     24          1           0        0.699366    0.277450    0.223404
     25          1           0        1.063623    2.641410   -0.524324
     26          7           0        2.562001   -1.613417    0.474908
     27          8           0        1.412148   -1.944014    0.756294
     28          8           0        3.544226   -2.350070    0.531606
 ---------------------------------------------------------------------

 SCF Done:  E(RHF) =  -868.336295889     A.U. after   16 cycles
 E2 =    -0.2602799856D+01 EUMP2 =    -0.87093909574413D+03

 The electronic state is 1-A.
 Alpha  occ. eigenvalues --  -20.60628 -20.60589 -20.60556 -20.60450 -15.85651
 Alpha  occ. eigenvalues --  -15.85563 -11.31371 -11.31172 -11.27976 -11.27871
 Alpha  occ. eigenvalues --  -11.27810 -11.27753 -11.27733 -11.27550 -11.27102
 Alpha  occ. eigenvalues --  -11.27080 -11.26831 -11.26807  -1.59676  -1.59584
 Alpha  occ. eigenvalues --   -1.39227  -1.39112  -1.19595  -1.19365  -1.08902
 Alpha  occ. eigenvalues --   -1.08736  -1.05057  -1.04782  -0.95669  -0.95527
 Alpha  occ. eigenvalues --   -0.86409  -0.86181  -0.82489  -0.82343  -0.77555
 Alpha  occ. eigenvalues --   -0.77275  -0.71922  -0.71699  -0.71011  -0.70922
 Alpha  occ. eigenvalues --   -0.70682  -0.70451  -0.65212  -0.65064  -0.64982
 Alpha  occ. eigenvalues --   -0.64780  -0.62430  -0.62050  -0.55513  -0.55313
 Alpha  occ. eigenvalues --   -0.53430  -0.53126  -0.53099  -0.52787  -0.48668
 Alpha  occ. eigenvalues --   -0.48639  -0.48568  -0.48451  -0.44629  -0.44373
 Alpha  occ. eigenvalues --   -0.37613  -0.37363  -0.36688  -0.36391
 Alpha virt. eigenvalues --    0.05027   0.05134   0.10857   0.11233   0.16436
 Alpha virt. eigenvalues --    0.16599   0.20919   0.21681   0.26623   0.27500
 Alpha virt. eigenvalues --    0.27797   0.28827   0.30445   0.31113   0.31915

 Mulliken charges:
               1
     1  C   -0.174419
     2  C   -0.223780
     3  C   -0.191800
     4  C    0.159247
     5  C   -0.171246
     6  C   -0.218581
     7  H    0.224849
     8  H    0.225657
     9  H    0.295480
    10  H    0.277178
    11  H    0.223830
    12  N    0.486178
    13  O   -0.463651
    14  O   -0.444642
    15  C   -0.170894
    16  C   -0.218895
    17  C   -0.169714
    18  C    0.158086
    19  C   -0.176673
    20  C   -0.224024
    21  H    0.224322
    22  H    0.223426
    23  H    0.276420
    24  H    0.281332
    25  H    0.221438
    26  N    0.488162
    27  O   -0.457375
    28  O   -0.459912
 Sum of Mulliken charges =  -0.00000

 Dipole moment (field-independent basis, Debye):
    X=              0.4873    Y=              9.4389    Z=              0.3469  Tot=              9.4578
 Quadrupole moment (field-independent basis, Debye-Ang):
   XX=            -92.6456   YY=           -109.8886   ZZ=           -103.7822
   XY=             -1.9340   XZ=             -7.6897   YZ=             -1.2580

 Normal termination of Gaussian 16 at Thu May  6 12:52:13 2021.
