 Gaussian 16, Revision A.03,
 Gaussian 16:  EM64L-G16RevA.03 25-Dec-2016

 -------------
 #p 6-31g* mp2
 -------------

 ------------------------------------------------------
 Input file generated by CHIRIPA (05-May-2021 14:55:22)
 ------------------------------------------------------
 Symbolic Z-matrix:
 Charge =  0 Multiplicity = 1

                         Standard orientation:
 ---------------------------------------------------------------------
 Center     Atomic      Atomic             Coordinates (Angstroms)
 Number     Number       Type             X           Y           Z
 ---------------------------------------------------------------------
      1          6           0       -1.094938    0.376569    1.831185
      2          6           0       -1.325880    1.241255    0.756241
      3          6           0       -2.363973    0.990811   -0.146083
      4          6           0       -3.155283   -0.138640    0.057536
      5          6           0       -2.950300   -1.018958    1.118815
      6          6           0       -1.906454   -0.748794    2.008728
      7          1           0       -0.286288    0.578780    2.527311
      8          1           0       -0.697239    2.115987    0.615886
      9          1           0       -2.564918    1.643624   -0.986841
     10          1           0       -3.593746   -1.882919    1.232678
     11          1           0       -1.729423   -1.422060    2.842645
     12          7           0       -4.257310   -0.414212   -0.891144
     13          8           0       -4.940283   -1.416026   -0.689762
     14          8           0       -4.417240    0.376826   -1.818139
     15          6           0        3.325031    0.655816   -0.526780
     16          6           0        3.482361    1.997796    0.188988
     17          6           0        2.512742    3.060880   -0.328201
     18          1           0        3.479741    0.801983   -1.604576
     19          1           0        2.292017    0.301818   -0.404464
     20          1           0        4.515141    2.348489    0.066530
     21          1           0        3.327448    1.848383    1.265229
     22          1           0        1.476206    2.736149   -0.191291
     23          1           0        2.670647    3.239096   -1.396800
     24          1           0        2.642440    4.012191    0.197200
     25          6           0        4.287525   -0.417168   -0.020780
     26          6           0        4.130196   -1.759147   -0.736548
     27          6           0        5.099816   -2.822232   -0.219359
     28          1           0        5.320540   -0.063170   -0.143096
     29          1           0        4.132816   -0.563335    1.057017
     30          1           0        4.285110   -1.609735   -1.812788
     31          1           0        3.097416   -2.109841   -0.614089
     32          1           0        4.941910   -3.000448    0.849241
     33          1           0        6.136351   -2.497500   -0.356269
     34          1           0        4.970117   -3.773543   -0.744760
 ---------------------------------------------------------------------

 SCF Done:  E(RHF) =  -669.535578907     A.U. after   15 cycles
 E2 =    -0.2091221483D+01 EUMP2 =    -0.67162680038975D+03

 The electronic state is 1-A.
 Alpha  occ. eigenvalues --  -20.60781 -20.60776 -15.85835 -11.31217 -11.27793
 Alpha  occ. eigenvalues --  -11.27786 -11.27548 -11.26809 -11.26794 -11.22402
 Alpha  occ. eigenvalues --  -11.22035 -11.22029 -11.22013 -11.21914 -11.21448
 Alpha  occ. eigenvalues --   -1.59856  -1.39409  -1.19395  -1.09048  -1.08787
 Alpha  occ. eigenvalues --   -1.04800  -1.04163  -0.96618  -0.95618  -0.87639
 Alpha  occ. eigenvalues --   -0.86199  -0.82449  -0.80227  -0.78830  -0.77493
 Alpha  occ. eigenvalues --   -0.72053  -0.71179  -0.70502  -0.65707  -0.65046
 Alpha  occ. eigenvalues --   -0.64815  -0.62196  -0.61529  -0.59985  -0.58209
 Alpha  occ. eigenvalues --   -0.55941  -0.55293  -0.53313  -0.53139  -0.53109
 Alpha  occ. eigenvalues --   -0.52813  -0.50558  -0.48817  -0.48806  -0.48529
 Alpha  occ. eigenvalues --   -0.47259  -0.46376  -0.46289  -0.44810  -0.44399
 Alpha  occ. eigenvalues --   -0.37375  -0.36396
 Alpha virt. eigenvalues --    0.05042   0.11146   0.16504   0.19695   0.22639
 Alpha virt. eigenvalues --    0.23821   0.25386   0.26132   0.27114   0.28316
 Alpha virt. eigenvalues --    0.28515   0.30089   0.31036   0.31487   0.31916

 Mulliken charges:
               1
     1  C   -0.172816
     2  C   -0.224175
     3  C   -0.171943
     4  C    0.158734
     5  C   -0.170813
     6  C   -0.218662
     7  H    0.225850
     8  H    0.231969
     9  H    0.276307
    10  H    0.275781
    11  H    0.223500
    12  N    0.488058
    13  O   -0.460413
    14  O   -0.460152
    15  C   -0.300209
    16  C   -0.299403
    17  C   -0.479574
    18  H    0.152693
    19  H    0.149414
    20  H    0.155927
    21  H    0.147525
    22  H    0.146402
    23  H    0.161013
    24  H    0.162431
    25  C   -0.298121
    26  C   -0.300294
    27  C   -0.475923
    28  H    0.151070
    29  H    0.147020
    30  H    0.153912
    31  H    0.152630
    32  H    0.154095
    33  H    0.155987
    34  H    0.162181
 Sum of Mulliken charges =  -0.00000

 Dipole moment (field-independent basis, Debye):
    X=              3.9988    Y=              0.9401    Z=              3.2732  Tot=              5.2525
 Quadrupole moment (field-independent basis, Debye-Ang):
   XX=           -119.1050   YY=            -92.4809   ZZ=            -93.0970
   XY=             -1.6572   XZ=            -12.0043   YZ=             -2.9529

 Normal termination of Gaussian 16 at Thu May  6 14:14:27 2021.
