 Gaussian 16, Revision A.03,
 Gaussian 16:  EM64L-G16RevA.03 25-Dec-2016

 -------------
 #p 6-31g* mp2
 -------------

 ------------------------------------------------------
 Input file generated by CHIRIPA (05-May-2021 14:55:20)
 ------------------------------------------------------
 Symbolic Z-matrix:
 Charge =  0 Multiplicity = 1

                         Standard orientation:
 ---------------------------------------------------------------------
 Center     Atomic      Atomic             Coordinates (Angstroms)
 Number     Number       Type             X           Y           Z
 ---------------------------------------------------------------------
      1          6           0       -4.910507    0.706090   -0.624877
      2          6           0       -3.952144    1.427200    0.094888
      3          6           0       -2.772062    0.810580    0.521189
      4          6           0       -2.582065   -0.534660    0.208904
      5          6           0       -3.518001   -1.279927   -0.506562
      6          6           0       -4.690764   -0.642794   -0.922779
      7          1           0       -5.824380    1.193063   -0.952121
      8          1           0       -4.120122    2.474883    0.327674
      9          1           0       -2.013448    1.345186    1.079866
     10          1           0       -3.322349   -2.323030   -0.723530
     11          1           0       -5.433293   -1.205298   -1.481605
     12          7           0       -1.336639   -1.198306    0.654872
     13          8           0       -1.193063   -2.384544    0.367013
     14          8           0       -0.527633   -0.519668    1.283837
     15          6           0        3.632930   -0.216292   -0.197654
     16          6           0        5.081491   -0.698393   -0.282700
     17          6           0        5.195475   -2.222369   -0.330644
     18          1           0        3.160992   -0.648975    0.695097
     19          1           0        3.074838   -0.599605   -1.063101
     20          1           0        5.637023   -0.313138    0.581926
     21          1           0        5.550093   -0.264359   -1.175249
     22          1           0        4.665860   -2.621072   -1.201933
     23          1           0        4.753285   -2.670128    0.565225
     24          1           0        6.239502   -2.545161   -0.391254
     25          6           0        3.502626    1.305016   -0.148977
     26          6           0        2.054064    1.787117   -0.063931
     27          6           0        1.940082    3.311094   -0.015988
     28          1           0        4.060719    1.688329    0.716470
     29          1           0        3.974564    1.737699   -1.041729
     30          1           0        1.585463    1.353083    0.828617
     31          1           0        1.498532    1.401861   -0.928557
     32          1           0        2.382271    3.758852   -0.911857
     33          1           0        2.469696    3.709797    0.855302
     34          1           0        0.896055    3.633885    0.044622
 ---------------------------------------------------------------------

 SCF Done:  E(RHF) =  -669.536007578     A.U. after   15 cycles
 E2 =    -0.2091299121D+01 EUMP2 =    -0.67162730669914D+03

 The electronic state is 1-A.
 Alpha  occ. eigenvalues --  -20.60902 -20.60886 -15.85931 -11.31261 -11.27826
 Alpha  occ. eigenvalues --  -11.27823 -11.27566 -11.26837 -11.26827 -11.20744
 Alpha  occ. eigenvalues --  -11.20622 -11.20548 -11.20502 -11.20289 -11.20229
 Alpha  occ. eigenvalues --   -1.59955  -1.39512  -1.19431  -1.08833  -1.07509
 Alpha  occ. eigenvalues --   -1.04829  -1.02705  -0.95675  -0.95184  -0.86229
 Alpha  occ. eigenvalues --   -0.86198  -0.82513  -0.78746  -0.77574  -0.77262
 Alpha  occ. eigenvalues --   -0.72159  -0.71267  -0.70540  -0.65089  -0.64833
 Alpha  occ. eigenvalues --   -0.64139  -0.62177  -0.60103  -0.58560  -0.56785
 Alpha  occ. eigenvalues --   -0.55334  -0.54476  -0.53160  -0.52921  -0.51919
 Alpha  occ. eigenvalues --   -0.51599  -0.49122  -0.48918  -0.48906  -0.47081
 Alpha  occ. eigenvalues --   -0.45766  -0.45112  -0.44794  -0.44523  -0.42940
 Alpha  occ. eigenvalues --   -0.37410  -0.36431
 Alpha virt. eigenvalues --    0.04953   0.11218   0.16430   0.21177   0.23672
 Alpha virt. eigenvalues --    0.24753   0.27021   0.27530   0.27791   0.28727
 Alpha virt. eigenvalues --    0.28985   0.30808   0.31747   0.32172   0.32684

 Mulliken charges:
               1
     1  C   -0.170650
     2  C   -0.218596
     3  C   -0.170715
     4  C    0.158155
     5  C   -0.170929
     6  C   -0.218583
     7  H    0.225888
     8  H    0.223812
     9  H    0.276072
    10  H    0.275732
    11  H    0.223683
    12  N    0.491056
    13  O   -0.459523
    14  O   -0.462619
    15  C   -0.299349
    16  C   -0.299325
    17  C   -0.475138
    18  H    0.162744
    19  H    0.148894
    20  H    0.149602
    21  H    0.148006
    22  H    0.155020
    23  H    0.158481
    24  H    0.156316
    25  C   -0.298100
    26  C   -0.305637
    27  C   -0.474122
    28  H    0.146821
    29  H    0.144526
    30  H    0.174468
    31  H    0.146944
    32  H    0.152284
    33  H    0.154003
    34  H    0.150780
 Sum of Mulliken charges =  -0.00000

 Dipole moment (field-independent basis, Debye):
    X=             -4.5841    Y=              2.1574    Z=             -1.4488  Tot=              5.2695
 Quadrupole moment (field-independent basis, Debye-Ang):
   XX=            -73.0959   YY=            -95.6258   ZZ=            -94.2469
   XY=             -2.3542   XZ=              4.4981   YZ=              3.4425

 Normal termination of Gaussian 16 at Thu May  6 20:41:25 2021.
