 Gaussian 16, Revision A.03,
 Gaussian 16:  EM64L-G16RevA.03 25-Dec-2016

 -------------
 #p 6-31g* mp2
 -------------

 ------------------------------------------------------
 Input file generated by CHIRIPA (05-May-2021 14:57:26)
 ------------------------------------------------------
 Symbolic Z-matrix:
 Charge =  0 Multiplicity = 1

                         Standard orientation:
 ---------------------------------------------------------------------
 Center     Atomic      Atomic             Coordinates (Angstroms)
 Number     Number       Type             X           Y           Z
 ---------------------------------------------------------------------
      1          6           0       -3.891253   -0.902856   -2.061468
      2          6           0       -4.119725   -1.644760   -0.897896
      3          6           0       -3.698687   -1.163305    0.345276
      4          6           0       -3.049251    0.069440    0.388422
      5          6           0       -2.806970    0.832025   -0.753092
      6          6           0       -3.236758    0.330993   -1.985487
      7          1           0       -4.221724   -1.284466   -3.023008
      8          1           0       -4.627769   -2.603301   -0.953893
      9          1           0       -3.862638   -1.717007    1.261765
     10          1           0       -2.297941    1.784203   -0.665543
     11          1           0       -3.057968    0.909330   -2.887488
     12          7           0       -2.598885    0.589497    1.698807
     13          8           0       -2.028914    1.678370    1.710032
     14          8           0       -2.824386   -0.101602    2.689851
     15          6           0        2.005240    2.208468   -0.729004
     16          6           0        3.384446    2.164445   -0.500146
     17          6           0        4.014637    0.955372   -0.191033
     18          6           0        3.231584   -0.195662   -0.118649
     19          6           0        1.855525   -0.184164   -0.341407
     20          6           0        1.246519    1.036090   -0.649044
     21          1           0        1.523922    3.152047   -0.968557
     22          1           0        3.976187    3.073354   -0.561569
     23          1           0        5.080674    0.892735   -0.009218
     24          1           0        1.292079   -1.106811   -0.273080
     25          1           0        0.175233    1.067286   -0.826292
     26          7           0        3.887524   -1.481571    0.207814
     27          8           0        3.175339   -2.481617    0.265593
     28          8           0        5.101414   -1.465073    0.399736
 ---------------------------------------------------------------------

 SCF Done:  E(RHF) =  -868.337391710     A.U. after   16 cycles
 E2 =    -0.2600690464D+01 EUMP2 =    -0.87093808217416D+03

 The electronic state is 1-A.
 Alpha  occ. eigenvalues --  -20.61482 -20.61453 -20.60532 -20.60526 -15.86521
 Alpha  occ. eigenvalues --  -15.85584 -11.32011 -11.30908 -11.28635 -11.28469
 Alpha  occ. eigenvalues --  -11.28220 -11.27621 -11.27498 -11.27476 -11.27472
 Alpha  occ. eigenvalues --  -11.27218 -11.26489 -11.26474  -1.60539  -1.59607
 Alpha  occ. eigenvalues --   -1.40092  -1.39162  -1.20161  -1.19075  -1.09510
 Alpha  occ. eigenvalues --   -1.08481  -1.05575  -1.04479  -0.96338  -0.95325
 Alpha  occ. eigenvalues --   -0.86957  -0.85886  -0.83163  -0.82165  -0.78225
 Alpha  occ. eigenvalues --   -0.77216  -0.72728  -0.71872  -0.71807  -0.71232
 Alpha  occ. eigenvalues --   -0.70926  -0.70201  -0.65792  -0.65565  -0.64737
 Alpha  occ. eigenvalues --   -0.64514  -0.62919  -0.61826  -0.56008  -0.55003
 Alpha  occ. eigenvalues --   -0.53904  -0.53649  -0.52793  -0.52546  -0.49504
 Alpha  occ. eigenvalues --   -0.49479  -0.48562  -0.48560  -0.45462  -0.44577
 Alpha  occ. eigenvalues --   -0.38103  -0.37174  -0.37042  -0.36065
 Alpha virt. eigenvalues --    0.04274   0.05329   0.10332   0.11583   0.15807
 Alpha virt. eigenvalues --    0.16838   0.20143   0.21875   0.25805   0.27207
 Alpha virt. eigenvalues --    0.28196   0.28781   0.30450   0.31076   0.31893

 Mulliken charges:
               1
     1  C   -0.170575
     2  C   -0.216617
     3  C   -0.170429
     4  C    0.160067
     5  C   -0.181784
     6  C   -0.218233
     7  H    0.229253
     8  H    0.228047
     9  H    0.279567
    10  H    0.269834
    11  H    0.224768
    12  N    0.488356
    13  O   -0.463112
    14  O   -0.454461
    15  C   -0.170264
    16  C   -0.218174
    17  C   -0.171079
    18  C    0.159096
    19  C   -0.172815
    20  C   -0.214737
    21  H    0.224120
    22  H    0.222793
    23  H    0.274934
    24  H    0.274200
    25  H    0.221314
    26  N    0.488296
    27  O   -0.461387
    28  O   -0.460978
 Sum of Mulliken charges =  -0.00000

 Dipole moment (field-independent basis, Debye):
    X=             -4.1750    Y=              2.5489    Z=             -5.6913  Tot=              7.5046
 Quadrupole moment (field-independent basis, Debye-Ang):
   XX=           -105.3812   YY=           -103.0727   ZZ=           -108.1911
   XY=             25.5759   XZ=              9.6876   YZ=             -3.1787

 Normal termination of Gaussian 16 at Thu May  6 19:46:08 2021.
