 Gaussian 16, Revision A.03,
 Gaussian 16:  EM64L-G16RevA.03 25-Dec-2016

 -------------
 #p 6-31g* mp2
 -------------

 ------------------------------------------------------
 Input file generated by CHIRIPA (05-May-2021 14:57:24)
 ------------------------------------------------------
 Symbolic Z-matrix:
 Charge =  0 Multiplicity = 1

                         Standard orientation:
 ---------------------------------------------------------------------
 Center     Atomic      Atomic             Coordinates (Angstroms)
 Number     Number       Type             X           Y           Z
 ---------------------------------------------------------------------
      1          6           0        1.547367   -2.253555   -0.153073
      2          6           0        2.886292   -2.408387   -0.527010
      3          6           0        3.769856   -1.326595   -0.467114
      4          6           0        3.278497   -0.098683   -0.026561
      5          6           0        1.950039    0.087228    0.352817
      6          6           0        1.084330   -1.008437    0.284875
      7          1           0        0.867928   -3.099305   -0.202727
      8          1           0        3.248669   -3.374195   -0.867516
      9          1           0        4.811300   -1.418537   -0.750591
     10          1           0        1.618064    1.062301    0.688142
     11          1           0        0.045017   -0.885265    0.575910
     12          7           0        4.204435    1.053905    0.041108
     13          8           0        3.746843    2.125306    0.432703
     14          8           0        5.370245    0.864078   -0.298731
     15          6           0       -3.696058   -2.154890    0.302248
     16          6           0       -2.912899   -1.510552    1.265583
     17          6           0       -2.590785   -0.156960    1.129281
     18          6           0       -3.070769    0.524875    0.012139
     19          6           0       -3.853116   -0.089107   -0.964719
     20          6           0       -4.162844   -1.443364   -0.807871
     21          1           0       -3.941473   -3.206651    0.416112
     22          1           0       -2.549008   -2.060629    2.128742
     23          1           0       -1.986313    0.366559    1.860005
     24          1           0       -4.201326    0.485623   -1.814339
     25          1           0       -4.771247   -1.941177   -1.557587
     26          7           0       -2.736318    1.958215   -0.143034
     27          8           0       -3.171455    2.536636   -1.136372
     28          8           0       -2.045370    2.476105    0.731620
 ---------------------------------------------------------------------

 SCF Done:  E(RHF) =  -868.336725633     A.U. after   16 cycles
 E2 =    -0.2601594524D+01 EUMP2 =    -0.87093832015758D+03

 The electronic state is 1-A.
 Alpha  occ. eigenvalues --  -20.61530 -20.61506 -20.60522 -20.60498 -15.86580
 Alpha  occ. eigenvalues --  -15.85567 -11.32181 -11.31021 -11.28791 -11.28693
 Alpha  occ. eigenvalues --  -11.28494 -11.27856 -11.27743 -11.27635 -11.27540
 Alpha  occ. eigenvalues --  -11.27434 -11.26692 -11.26566  -1.60590  -1.59589
 Alpha  occ. eigenvalues --   -1.40139  -1.39137  -1.20373  -1.19215  -1.09701
 Alpha  occ. eigenvalues --   -1.08610  -1.05811  -1.04626  -0.96503  -0.95422
 Alpha  occ. eigenvalues --   -0.87170  -0.86032  -0.83326  -0.82251  -0.78350
 Alpha  occ. eigenvalues --   -0.77268  -0.72782  -0.71925  -0.71784  -0.71436
 Alpha  occ. eigenvalues --   -0.70915  -0.70350  -0.66003  -0.65765  -0.64868
 Alpha  occ. eigenvalues --   -0.64678  -0.63124  -0.61968  -0.56244  -0.55199
 Alpha  occ. eigenvalues --   -0.54183  -0.53854  -0.52967  -0.52616  -0.49559
 Alpha  occ. eigenvalues --   -0.49533  -0.48557  -0.48530  -0.45492  -0.44523
 Alpha  occ. eigenvalues --   -0.38341  -0.37394  -0.37235  -0.36234
 Alpha virt. eigenvalues --    0.04137   0.05258   0.10150   0.11407   0.15557
 Alpha virt. eigenvalues --    0.16710   0.20220   0.21814   0.25929   0.27027
 Alpha virt. eigenvalues --    0.28215   0.28505   0.30209   0.31132   0.32015

 Mulliken charges:
               1
     1  C   -0.174606
     2  C   -0.218581
     3  C   -0.171262
     4  C    0.158958
     5  C   -0.175367
     6  C   -0.226113
     7  H    0.220749
     8  H    0.221600
     9  H    0.275270
    10  H    0.284122
    11  H    0.228738
    12  N    0.487739
    13  O   -0.456434
    14  O   -0.462044
    15  C   -0.172147
    16  C   -0.221833
    17  C   -0.188255
    18  C    0.163875
    19  C   -0.169665
    20  C   -0.217277
    21  H    0.228101
    22  H    0.226364
    23  H    0.277632
    24  H    0.279740
    25  H    0.227388
    26  N    0.488116
    27  O   -0.454908
    28  O   -0.459901
 Sum of Mulliken charges =  -0.00000

 Dipole moment (field-independent basis, Debye):
    X=             -4.7588    Y=             -8.9132    Z=              0.2060  Tot=             10.1061
 Quadrupole moment (field-independent basis, Debye-Ang):
   XX=           -114.6922   YY=           -108.5989   ZZ=           -101.4374
   XY=             -0.2794   XZ=             -0.9036   YZ=              1.3617

 Normal termination of Gaussian 16 at Fri May  7 01:54:29 2021.
