 Gaussian 16, Revision A.03,
 Gaussian 16:  EM64L-G16RevA.03 25-Dec-2016

 -------------
 #p 6-31g* mp2
 -------------

 ------------------------------------------------------
 Input file generated by CHIRIPA (05-May-2021 14:53:15)
 ------------------------------------------------------
 Symbolic Z-matrix:
 Charge =  0 Multiplicity = 1

                         Standard orientation:
 ---------------------------------------------------------------------
 Center     Atomic      Atomic             Coordinates (Angstroms)
 Number     Number       Type             X           Y           Z
 ---------------------------------------------------------------------
      1          6           0       -4.487936    0.232082   -0.096747
      2          6           0       -4.491838   -1.295673   -0.034038
      3          6           0       -5.848231   -1.898892   -0.400261
      4          1           0       -5.259465    0.622504    0.580940
      5          1           0       -4.770831    0.551266   -1.109411
      6          1           0       -4.207675   -1.611898    0.977826
      7          1           0       -3.720081   -1.682497   -0.711809
      8          1           0       -6.135532   -1.612049   -1.417011
      9          1           0       -6.625897   -1.541049    0.282225
     10          1           0       -5.828527   -2.991977   -0.348901
     11          6           0       -3.138890    0.849881    0.266747
     12          6           0       -3.134987    2.377637    0.204038
     13          6           0       -1.778594    2.980856    0.570260
     14          1           0       -2.855995    0.530698    1.279410
     15          1           0       -2.367361    0.459460   -0.410940
     16          1           0       -3.906745    2.764461    0.881808
     17          1           0       -3.419150    2.693862   -0.807827
     18          1           0       -1.000929    2.623013   -0.112225
     19          1           0       -1.491294    2.694013    1.587011
     20          1           0       -1.798298    4.073940    0.518901
     21          6           0        0.915340   -1.866286    0.082511
     22          6           0        2.138099   -2.340861    0.568475
     23          6           0        3.288112   -1.549629    0.491188
     24          6           0        3.178758   -0.283076   -0.080803
     25          6           0        1.974915    0.217907   -0.573822
     26          6           0        0.837787   -0.590666   -0.486084
     27          1           0        0.026988   -2.487670    0.146609
     28          1           0        2.201295   -3.331119    1.010561
     29          1           0        4.247456   -1.892187    0.859604
     30          1           0        1.943187    1.209312   -1.009170
     31          1           0       -0.110489   -0.219503   -0.864308
     32          7           0        4.389404    0.563744   -0.168155
     33          8           0        4.266664    1.675978   -0.676593
     34          8           0        5.438126    0.099214    0.273469
 ---------------------------------------------------------------------

 SCF Done:  E(RHF) =  -669.535437454     A.U. after   15 cycles
 E2 =    -0.2091593262D+01 EUMP2 =    -0.67162703071551D+03

 The electronic state is 1-A.
 Alpha  occ. eigenvalues --  -20.60715 -20.60709 -15.85768 -11.31127 -11.27699
 Alpha  occ. eigenvalues --  -11.27691 -11.27427 -11.26713 -11.26676 -11.22481
 Alpha  occ. eigenvalues --  -11.22384 -11.22311 -11.22187 -11.21772 -11.21735
 Alpha  occ. eigenvalues --   -1.59790  -1.39344  -1.19298  -1.09277  -1.08692
 Alpha  occ. eigenvalues --   -1.04702  -1.04299  -0.96739  -0.95529  -0.87751
 Alpha  occ. eigenvalues --   -0.86101  -0.82366  -0.80367  -0.79127  -0.77409
 Alpha  occ. eigenvalues --   -0.71986  -0.71113  -0.70403  -0.65942  -0.64950
 Alpha  occ. eigenvalues --   -0.64697  -0.62090  -0.61661  -0.60104  -0.58357
 Alpha  occ. eigenvalues --   -0.56033  -0.55198  -0.53401  -0.53193  -0.53029
 Alpha  occ. eigenvalues --   -0.52784  -0.50681  -0.48762  -0.48742  -0.48663
 Alpha  occ. eigenvalues --   -0.47404  -0.46635  -0.46553  -0.44751  -0.44574
 Alpha  occ. eigenvalues --   -0.37274  -0.36297
 Alpha virt. eigenvalues --    0.05115   0.11328   0.16563   0.19053   0.22637
 Alpha virt. eigenvalues --    0.23323   0.24881   0.26028   0.26418   0.28244
 Alpha virt. eigenvalues --    0.29693   0.30101   0.31072   0.31302   0.31503

 Mulliken charges:
               1
     1  C   -0.298047
     2  C   -0.299732
     3  C   -0.475932
     4  H    0.153539
     5  H    0.151663
     6  H    0.151822
     7  H    0.145508
     8  H    0.157053
     9  H    0.157747
    10  H    0.160993
    11  C   -0.302201
    12  C   -0.300732
    13  C   -0.474909
    14  H    0.152131
    15  H    0.140687
    16  H    0.155722
    17  H    0.153590
    18  H    0.147764
    19  H    0.158640
    20  H    0.165529
    21  C   -0.173393
    22  C   -0.218630
    23  C   -0.171212
    24  C    0.158801
    25  C   -0.173074
    26  C   -0.222413
    27  H    0.226233
    28  H    0.223153
    29  H    0.275359
    30  H    0.275791
    31  H    0.231663
    32  N    0.488047
    33  O   -0.460435
    34  O   -0.460727
 Sum of Mulliken charges =  -0.00000

 Dipole moment (field-independent basis, Debye):
    X=             -4.4859    Y=             -2.8935    Z=              0.3880  Tot=              5.3522
 Quadrupole moment (field-independent basis, Debye-Ang):
   XX=           -120.8047   YY=            -90.7330   ZZ=            -93.6352
   XY=            -11.3414   XZ=              2.0432   YZ=             -1.6880

 Normal termination of Gaussian 16 at Wed May  5 17:08:44 2021.
