 Gaussian 16, Revision A.03,
 Gaussian 16:  EM64L-G16RevA.03 25-Dec-2016

 -------------
 #p 6-31g* mp2
 -------------

 ------------------------------------------------------
 Input file generated by CHIRIPA (05-May-2021 14:53:13)
 ------------------------------------------------------
 Symbolic Z-matrix:
 Charge =  0 Multiplicity = 1

                         Standard orientation:
 ---------------------------------------------------------------------
 Center     Atomic      Atomic             Coordinates (Angstroms)
 Number     Number       Type             X           Y           Z
 ---------------------------------------------------------------------
      1          6           0       -3.285509    1.082158    0.496267
      2          6           0       -2.358881    2.105189   -0.161572
      3          6           0       -1.933781    3.219171    0.795575
      4          1           0       -4.176544    1.597538    0.880177
      5          1           0       -2.777914    0.644734    1.367130
      6          1           0       -2.867544    2.539549   -1.031750
      7          1           0       -1.470038    1.587286   -0.544130
      8          1           0       -1.403254    2.803977    1.658568
      9          1           0       -2.808700    3.761651    1.168177
     10          1           0       -1.271776    3.939343    0.304696
     11          6           0       -3.719129   -0.037716   -0.447970
     12          6           0       -4.645758   -1.060747    0.209869
     13          6           0       -5.070858   -2.174729   -0.747278
     14          1           0       -4.226725    0.399708   -1.318833
     15          1           0       -2.828095   -0.553096   -0.831880
     16          1           0       -5.534601   -0.542844    0.592427
     17          1           0       -4.137095   -1.495107    1.080047
     18          1           0       -4.195939   -2.717209   -1.119880
     19          1           0       -5.601385   -1.759535   -1.610271
     20          1           0       -5.732862   -2.894901   -0.256399
     21          6           0        0.389461   -1.242092    0.384946
     22          6           0        0.667951   -0.449692   -0.733565
     23          6           0        1.964546    0.018033   -0.967285
     24          6           0        2.963060   -0.327347   -0.057905
     25          6           0        2.717095   -1.115057    1.065618
     26          6           0        1.413117   -1.571664    1.279391
     27          1           0       -0.620633   -1.601114    0.558757
     28          1           0       -0.125056   -0.192168   -1.429889
     29          1           0        2.207939    0.633051   -1.825149
     30          1           0        3.528439   -1.355185    1.741989
     31          1           0        1.199751   -2.186888    2.148884
     32          7           0        4.339614    0.161928   -0.294775
     33          8           0        5.201717   -0.156355    0.521382
     34          8           0        4.530391    0.854439   -1.292106
 ---------------------------------------------------------------------

 SCF Done:  E(RHF) =  -669.535006337     A.U. after   15 cycles
 E2 =    -0.2092962165D+01 EUMP2 =    -0.67162796850219D+03

 The electronic state is 1-A.
 Alpha  occ. eigenvalues --  -20.60788 -20.60783 -15.85842 -11.31228 -11.27801
 Alpha  occ. eigenvalues --  -11.27796 -11.27545 -11.26817 -11.26792 -11.22587
 Alpha  occ. eigenvalues --  -11.22498 -11.22361 -11.22270 -11.21932 -11.21610
 Alpha  occ. eigenvalues --   -1.59863  -1.39416  -1.19406  -1.09384  -1.08793
 Alpha  occ. eigenvalues --   -1.04815  -1.04355  -0.96800  -0.95626  -0.87807
 Alpha  occ. eigenvalues --   -0.86216  -0.82461  -0.80440  -0.79213  -0.77499
 Alpha  occ. eigenvalues --   -0.72061  -0.71186  -0.70524  -0.66114  -0.65051
 Alpha  occ. eigenvalues --   -0.64760  -0.62202  -0.61717  -0.60165  -0.58413
 Alpha  occ. eigenvalues --   -0.56121  -0.55285  -0.53456  -0.53223  -0.53128
 Alpha  occ. eigenvalues --   -0.52914  -0.50739  -0.48840  -0.48814  -0.48726
 Alpha  occ. eigenvalues --   -0.47491  -0.46708  -0.46648  -0.44817  -0.44644
 Alpha  occ. eigenvalues --   -0.37371  -0.36389
 Alpha virt. eigenvalues --    0.05024   0.11101   0.16440   0.18317   0.22702
 Alpha virt. eigenvalues --    0.23517   0.24773   0.25605   0.26998   0.28150
 Alpha virt. eigenvalues --    0.29856   0.30910   0.31022   0.31341   0.32094

 Mulliken charges:
               1
     1  C   -0.299131
     2  C   -0.304458
     3  C   -0.475671
     4  H    0.154348
     5  H    0.147303
     6  H    0.153376
     7  H    0.149325
     8  H    0.157193
     9  H    0.156657
    10  H    0.163487
    11  C   -0.301047
    12  C   -0.300343
    13  C   -0.475823
    14  H    0.154633
    15  H    0.138486
    16  H    0.156848
    17  H    0.148306
    18  H    0.152433
    19  H    0.158200
    20  H    0.163443
    21  C   -0.173761
    22  C   -0.219025
    23  C   -0.172146
    24  C    0.158611
    25  C   -0.170439
    26  C   -0.218766
    27  H    0.228186
    28  H    0.226611
    29  H    0.276083
    30  H    0.275839
    31  H    0.223662
    32  N    0.488049
    33  O   -0.460287
    34  O   -0.460181
 Sum of Mulliken charges =  -0.00000

 Dipole moment (field-independent basis, Debye):
    X=             -4.9796    Y=             -1.6445    Z=              0.8680  Tot=              5.3155
 Quadrupole moment (field-independent basis, Debye-Ang):
   XX=           -122.2216   YY=            -93.3491   ZZ=            -91.8756
   XY=             -5.2681   XZ=              4.2472   YZ=             -3.0434

 Normal termination of Gaussian 16 at Thu May  6 10:28:31 2021.
