 Gaussian 16, Revision A.03,
 Gaussian 16:  EM64L-G16RevA.03 25-Dec-2016

 -------------
 #p 6-31g* mp2
 -------------

 ------------------------------------------------------
 Input file generated by CHIRIPA (05-May-2021 14:57:22)
 ------------------------------------------------------
 Symbolic Z-matrix:
 Charge =  0 Multiplicity = 1

                         Standard orientation:
 ---------------------------------------------------------------------
 Center     Atomic      Atomic             Coordinates (Angstroms)
 Number     Number       Type             X           Y           Z
 ---------------------------------------------------------------------
      1          6           0       -2.179515   -2.169598    0.957674
      2          6           0       -2.717060   -1.249979    1.864243
      3          6           0       -3.316067   -0.071568    1.409176
      4          6           0       -3.360421    0.156283    0.034619
      5          6           0       -2.833741   -0.740560   -0.893589
      6          6           0       -2.239466   -1.912407   -0.415927
      7          1           0       -1.716030   -3.082466    1.319957
      8          1           0       -2.671923   -1.447090    2.931555
      9          1           0       -3.740058    0.657485    2.088978
     10          1           0       -2.893720   -0.516397   -1.951687
     11          1           0       -1.822824   -2.624801   -1.122291
     12          7           0       -3.992058    1.400339   -0.459100
     13          8           0       -4.018483    1.577713   -1.675027
     14          8           0       -4.448751    2.174500    0.379198
     15          6           0        4.716790    2.002464    0.528959
     16          6           0        3.345350    2.190078    0.327782
     17          6           0        2.526550    1.114786   -0.029795
     18          6           0        3.115126   -0.140125   -0.178341
     19          6           0        4.478198   -0.358974    0.015131
     20          6           0        5.277849    0.730779    0.372267
     21          1           0        5.345416    2.843393    0.806562
     22          1           0        2.906889    3.176566    0.448771
     23          1           0        1.461889    1.231861   -0.191683
     24          1           0        4.886449   -1.354146   -0.112852
     25          1           0        6.342620    0.582124    0.527859
     26          7           0        2.258436   -1.286143   -0.556658
     27          8           0        2.801312   -2.381765   -0.681301
     28          8           0        1.060308   -1.067070   -0.721377
 ---------------------------------------------------------------------

 SCF Done:  E(RHF) =  -868.339389143     A.U. after   16 cycles
 E2 =    -0.2599310497D+01 EUMP2 =    -0.87093869964017D+03

 The electronic state is 1-A.
 Alpha  occ. eigenvalues --  -20.61338 -20.61326 -20.60182 -20.60169 -15.86358
 Alpha  occ. eigenvalues --  -15.85218 -11.31518 -11.30296 -11.28076 -11.28035
 Alpha  occ. eigenvalues --  -11.27766 -11.27042 -11.27001 -11.26858 -11.26713
 Alpha  occ. eigenvalues --  -11.26417 -11.25850 -11.25607  -1.60412  -1.59262
 Alpha  occ. eigenvalues --   -1.39967  -1.38822  -1.19673  -1.18408  -1.09110
 Alpha  occ. eigenvalues --   -1.07849  -1.05039  -1.03757  -0.95980  -0.94744
 Alpha  occ. eigenvalues --   -0.86448  -0.85170  -0.82813  -0.81585  -0.77884
 Alpha  occ. eigenvalues --   -0.76681  -0.72602  -0.71719  -0.71443  -0.70775
 Alpha  occ. eigenvalues --   -0.70586  -0.69510  -0.65326  -0.65037  -0.64056
 Alpha  occ. eigenvalues --   -0.63749  -0.62384  -0.61122  -0.55551  -0.54255
 Alpha  occ. eigenvalues --   -0.53388  -0.53124  -0.52101  -0.51849  -0.49363
 Alpha  occ. eigenvalues --   -0.49341  -0.48214  -0.48171  -0.45417  -0.44292
 Alpha  occ. eigenvalues --   -0.37648  -0.36636  -0.36332  -0.35297
 Alpha virt. eigenvalues --    0.04619   0.05825   0.11022   0.12345   0.16169
 Alpha virt. eigenvalues --    0.17424   0.21205   0.22432   0.27135   0.28067
 Alpha virt. eigenvalues --    0.28363   0.29262   0.30783   0.31998   0.32292

 Mulliken charges:
               1
     1  C   -0.169300
     2  C   -0.220109
     3  C   -0.175378
     4  C    0.155612
     5  C   -0.173229
     6  C   -0.197597
     7  H    0.226000
     8  H    0.218632
     9  H    0.270299
    10  H    0.273212
    11  H    0.230930
    12  N    0.487636
    13  O   -0.462474
    14  O   -0.464949
    15  C   -0.170191
    16  C   -0.218838
    17  C   -0.170916
    18  C    0.156984
    19  C   -0.171058
    20  C   -0.218737
    21  H    0.227192
    22  H    0.226690
    23  H    0.277983
    24  H    0.275023
    25  H    0.224164
    26  N    0.490470
    27  O   -0.462561
    28  O   -0.465491
 Sum of Mulliken charges =  -0.00000

 Dipole moment (field-independent basis, Debye):
    X=              5.5845    Y=             -0.4980    Z=              2.9542  Tot=              6.3374
 Quadrupole moment (field-independent basis, Debye-Ang):
   XX=            -99.5210   YY=           -105.7651   ZZ=           -101.9540
   XY=             25.3025   XZ=             -2.6133   YZ=              0.8276

 Normal termination of Gaussian 16 at Fri May  7 03:16:57 2021.
