 Gaussian 16, Revision A.03,
 Gaussian 16:  EM64L-G16RevA.03 25-Dec-2016

 -------------
 #p 6-31g* mp2
 -------------

 ------------------------------------------------------
 Input file generated by CHIRIPA (05-May-2021 14:57:26)
 ------------------------------------------------------
 Symbolic Z-matrix:
 Charge =  0 Multiplicity = 1

                         Standard orientation:
 ---------------------------------------------------------------------
 Center     Atomic      Atomic             Coordinates (Angstroms)
 Number     Number       Type             X           Y           Z
 ---------------------------------------------------------------------
      1          6           0       -1.462328   -0.609209    0.461764
      2          6           0       -2.225375    0.062950    1.422223
      3          6           0       -3.561980    0.385187    1.168849
      4          6           0       -4.105962    0.018514   -0.061161
      5          6           0       -3.371598   -0.651699   -1.038307
      6          6           0       -2.036862   -0.963763   -0.763277
      7          1           0       -0.424746   -0.855579    0.667003
      8          1           0       -1.781815    0.339542    2.374481
      9          1           0       -4.175541    0.905087    1.894566
     10          1           0       -3.841478   -0.914339   -1.978335
     11          1           0       -1.446662   -1.485818   -1.511052
     12          7           0       -5.519977    0.354267   -0.340861
     13          8           0       -5.975825    0.020183   -1.432294
     14          8           0       -6.145659    0.945157    0.536641
     15          6           0        4.424550    2.468602   -0.369739
     16          6           0        3.362958    2.116022    0.470044
     17          6           0        3.048303    0.771801    0.690520
     18          6           0        3.819586   -0.198273    0.052264
     19          6           0        4.883401    0.121237   -0.790053
     20          6           0        5.180051    1.471841   -0.996003
     21          1           0        4.661987    3.515304   -0.535368
     22          1           0        2.774511    2.887991    0.957731
     23          1           0        2.231862    0.470810    1.335690
     24          1           0        5.451911   -0.670737   -1.262274
     25          1           0        6.005063    1.742720   -1.648708
     26          7           0        3.496006   -1.624718    0.277983
     27          8           0        4.190774   -2.460412   -0.296080
     28          8           0        2.553741   -1.880063    1.024692
 ---------------------------------------------------------------------

 SCF Done:  E(RHF) =  -868.339269383     A.U. after   16 cycles
 E2 =    -0.2598928063D+01 EUMP2 =    -0.87093819744632D+03

 The electronic state is 1-A.
 Alpha  occ. eigenvalues --  -20.61896 -20.61827 -20.60579 -20.60572 -15.86886
 Alpha  occ. eigenvalues --  -15.85631 -11.32076 -11.30925 -11.28677 -11.28568
 Alpha  occ. eigenvalues --  -11.28270 -11.27587 -11.27538 -11.27521 -11.27482
 Alpha  occ. eigenvalues --  -11.27102 -11.26497 -11.26419  -1.60917  -1.59656
 Alpha  occ. eigenvalues --   -1.40482  -1.39212  -1.20217  -1.19088  -1.09634
 Alpha  occ. eigenvalues --   -1.08473  -1.05594  -1.04489  -0.96505  -0.95320
 Alpha  occ. eigenvalues --   -0.86999  -0.85878  -0.83345  -0.82164  -0.78431
 Alpha  occ. eigenvalues --   -0.77243  -0.73108  -0.72229  -0.71849  -0.71316
 Alpha  occ. eigenvalues --   -0.70980  -0.70118  -0.65868  -0.65584  -0.64730
 Alpha  occ. eigenvalues --   -0.64485  -0.62955  -0.61844  -0.56072  -0.54893
 Alpha  occ. eigenvalues --   -0.53925  -0.53676  -0.52817  -0.52572  -0.49878
 Alpha  occ. eigenvalues --   -0.49834  -0.48609  -0.48600  -0.45913  -0.44634
 Alpha  occ. eigenvalues --   -0.38165  -0.37192  -0.37030  -0.36109
 Alpha virt. eigenvalues --    0.04055   0.05299   0.10443   0.11550   0.15595
 Alpha virt. eigenvalues --    0.16803   0.19907   0.21819   0.25638   0.27018
 Alpha virt. eigenvalues --    0.27631   0.28820   0.30460   0.31000   0.32662

 Mulliken charges:
               1
     1  C   -0.180208
     2  C   -0.220802
     3  C   -0.171268
     4  C    0.157673
     5  C   -0.171209
     6  C   -0.219968
     7  H    0.241510
     8  H    0.220264
     9  H    0.273955
    10  H    0.274870
    11  H    0.226260
    12  N    0.488165
    13  O   -0.460958
    14  O   -0.461736
    15  C   -0.169900
    16  C   -0.217470
    17  C   -0.172349
    18  C    0.158293
    19  C   -0.170475
    20  C   -0.217985
    21  H    0.229059
    22  H    0.225599
    23  H    0.268936
    24  H    0.277430
    25  H    0.226642
    26  N    0.489330
    27  O   -0.453888
    28  O   -0.469771
 Sum of Mulliken charges =  -0.00000

 Dipole moment (field-independent basis, Debye):
    X=              6.5402    Y=              3.8692    Z=              0.0616  Tot=              7.5993
 Quadrupole moment (field-independent basis, Debye-Ang):
   XX=           -134.4189   YY=           -106.4115   ZZ=            -99.8654
   XY=             23.2278   XZ=            -10.7617   YZ=              3.6815

 Normal termination of Gaussian 16 at Wed May  5 22:49:34 2021.
