 Gaussian 16, Revision A.03,
 Gaussian 16:  EM64L-G16RevA.03 25-Dec-2016

 -------------
 #p 6-31g* mp2
 -------------

 ------------------------------------------------------
 Input file generated by CHIRIPA (05-May-2021 14:53:15)
 ------------------------------------------------------
 Symbolic Z-matrix:
 Charge =  0 Multiplicity = 1

                         Standard orientation:
 ---------------------------------------------------------------------
 Center     Atomic      Atomic             Coordinates (Angstroms)
 Number     Number       Type             X           Y           Z
 ---------------------------------------------------------------------
      1          6           0        2.850435    0.902727   -0.253692
      2          6           0        3.038150    2.419871   -0.285675
      3          6           0        1.783829    3.161080   -0.749445
      4          1           0        2.565968    0.553643   -1.255772
      5          1           0        2.011477    0.658027    0.412390
      6          1           0        3.877388    2.661549   -0.950421
      7          1           0        3.322390    2.765359    0.716553
      8          1           0        0.942238    2.949142   -0.082055
      9          1           0        1.500389    2.844741   -1.758500
     10          1           0        1.940193    4.244211   -0.764837
     11          6           0        4.095725    0.147814    0.207923
     12          6           0        3.908010   -1.369330    0.239906
     13          6           0        5.162331   -2.110538    0.703676
     14          1           0        4.934683    0.392514   -0.458159
     15          1           0        4.380192    0.496898    1.210003
     16          1           0        3.623770   -1.714818   -0.762322
     17          1           0        3.068772   -1.611008    0.904652
     18          1           0        5.445771   -1.794200    1.712731
     19          1           0        6.003922   -1.898601    0.036286
     20          1           0        5.005967   -3.193670    0.719068
     21          6           0       -4.667543    1.082227    0.582847
     22          6           0       -4.888696   -0.170204    0.000589
     23          6           0       -3.813467   -1.005537   -0.316668
     24          6           0       -2.524419   -0.554666   -0.036741
     25          6           0       -2.271692    0.687735    0.542792
     26          6           0       -3.362048    1.506452    0.851617
     27          1           0       -5.508682    1.724681    0.826024
     28          1           0       -5.901483   -0.502272   -0.209265
     29          1           0       -3.956100   -1.979919   -0.767949
     30          1           0       -1.250742    0.991268    0.740148
     31          1           0       -3.187302    2.478606    1.303752
     32          7           0       -1.378115   -1.430201   -0.368142
     33          8           0       -0.252047   -1.009776   -0.111533
     34          8           0       -1.627416   -2.520291   -0.878231
 ---------------------------------------------------------------------

 SCF Done:  E(RHF) =  -669.535764006     A.U. after   15 cycles
 E2 =    -0.2091743271D+01 EUMP2 =    -0.67162750727717D+03

 The electronic state is 1-A.
 Alpha  occ. eigenvalues --  -20.60873 -20.60867 -15.85912 -11.31253 -11.27822
 Alpha  occ. eigenvalues --  -11.27816 -11.27557 -11.26830 -11.26820 -11.21048
 Alpha  occ. eigenvalues --  -11.20868 -11.20463 -11.20387 -11.20300 -11.20157
 Alpha  occ. eigenvalues --   -1.59940  -1.39495  -1.19423  -1.08823  -1.07537
 Alpha  occ. eigenvalues --   -1.04823  -1.02765  -0.95665  -0.95239  -0.86276
 Alpha  occ. eigenvalues --   -0.86220  -0.82501  -0.78806  -0.77606  -0.77198
 Alpha  occ. eigenvalues --   -0.72129  -0.71256  -0.70534  -0.65081  -0.64828
 Alpha  occ. eigenvalues --   -0.64179  -0.62174  -0.60180  -0.58626  -0.56812
 Alpha  occ. eigenvalues --   -0.55327  -0.54553  -0.53152  -0.52917  -0.51985
 Alpha  occ. eigenvalues --   -0.51666  -0.49240  -0.48892  -0.48888  -0.47117
 Alpha  occ. eigenvalues --   -0.45820  -0.44979  -0.44731  -0.44698  -0.42966
 Alpha  occ. eigenvalues --   -0.37402  -0.36423
 Alpha virt. eigenvalues --    0.04977   0.11223   0.16472   0.20219   0.23148
 Alpha virt. eigenvalues --    0.24429   0.26117   0.27542   0.27906   0.28737
 Alpha virt. eigenvalues --    0.29381   0.30859   0.31512   0.32314   0.32636

 Mulliken charges:
               1
     1  C   -0.300231
     2  C   -0.299756
     3  C   -0.472693
     4  H    0.154213
     5  H    0.162446
     6  H    0.150453
     7  H    0.148116
     8  H    0.144507
     9  H    0.157479
    10  H    0.157242
    11  C   -0.299041
    12  C   -0.298794
    13  C   -0.475793
    14  H    0.145068
    15  H    0.144360
    16  H    0.156393
    17  H    0.161450
    18  H    0.151201
    19  H    0.151588
    20  H    0.159944
    21  C   -0.170553
    22  C   -0.218659
    23  C   -0.170671
    24  C    0.157499
    25  C   -0.172373
    26  C   -0.219174
    27  H    0.225884
    28  H    0.223663
    29  H    0.275688
    30  H    0.278334
    31  H    0.223938
    32  N    0.493595
    33  O   -0.465498
    34  O   -0.459825
 Sum of Mulliken charges =  -0.00000

 Dipole moment (field-independent basis, Debye):
    X=             -4.2400    Y=              2.9089    Z=              1.1125  Tot=              5.2609
 Quadrupole moment (field-independent basis, Debye-Ang):
   XX=            -74.2934   YY=            -97.1726   ZZ=            -94.1908
   XY=             -2.8989   XZ=             -2.3896   YZ=              1.0199

 Normal termination of Gaussian 16 at Thu May  6 04:16:52 2021.
