 Gaussian 16, Revision A.03,
 Gaussian 16:  EM64L-G16RevA.03 25-Dec-2016

 -------------
 #p 6-31g* mp2
 -------------

 ------------------------------------------------------
 Input file generated by CHIRIPA (05-May-2021 14:55:22)
 ------------------------------------------------------
 Symbolic Z-matrix:
 Charge =  0 Multiplicity = 1

                         Standard orientation:
 ---------------------------------------------------------------------
 Center     Atomic      Atomic             Coordinates (Angstroms)
 Number     Number       Type             X           Y           Z
 ---------------------------------------------------------------------
      1          6           0        5.596301   -1.057153    0.062167
      2          6           0        4.511886   -1.937025    0.142113
      3          6           0        3.200740   -1.453676    0.099471
      4          6           0        3.009641   -0.078369   -0.024229
      5          6           0        4.069338    0.823641   -0.106152
      6          6           0        5.371961    0.317948   -0.061492
      7          1           0        6.611520   -1.441309    0.096077
      8          1           0        4.683113   -3.005432    0.238195
      9          1           0        2.342928   -2.112456    0.159359
     10          1           0        3.867058    1.883556   -0.201448
     11          1           0        6.212214    1.003614   -0.123789
     12          7           0        1.626101    0.445158   -0.070441
     13          8           0        1.484415    1.661134   -0.179829
     14          8           0        0.709566   -0.370390    0.003601
     15          6           0       -3.675456    0.705079   -0.324198
     16          6           0       -3.065841    1.731585    0.631124
     17          6           0       -2.130362    2.713579   -0.074822
     18          1           0       -2.867411    0.151082   -0.821283
     19          1           0       -4.225653    1.232580   -1.115666
     20          1           0       -2.518116    1.202264    1.421336
     21          1           0       -3.875435    2.283071    1.126135
     22          1           0       -2.668017    3.267470   -0.851180
     23          1           0       -1.302987    2.180521   -0.554303
     24          1           0       -1.705727    3.438451    0.626681
     25          6           0       -4.612966   -0.283568    0.366728
     26          6           0       -5.222583   -1.310074   -0.588594
     27          6           0       -6.158061   -2.292068    0.117352
     28          1           0       -4.062770   -0.811069    1.158196
     29          1           0       -5.421012    0.270429    0.863814
     30          1           0       -4.412989   -1.861560   -1.083605
     31          1           0       -5.770307   -0.780754   -1.378806
     32          1           0       -6.985436   -1.759011    0.596833
     33          1           0       -5.620407   -2.845959    0.893711
     34          1           0       -6.582696   -3.016940   -0.584150
 ---------------------------------------------------------------------

 SCF Done:  E(RHF) =  -669.536766323     A.U. after   15 cycles
 E2 =    -0.2091481422D+01 EUMP2 =    -0.67162824774478D+03

 The electronic state is 1-A.
 Alpha  occ. eigenvalues --  -20.61119 -20.61108 -15.86114 -11.31389 -11.27941
 Alpha  occ. eigenvalues --  -11.27936 -11.27669 -11.26935 -11.26925 -11.20689
 Alpha  occ. eigenvalues --  -11.20350 -11.20242 -11.19942 -11.19877 -11.18960
 Alpha  occ. eigenvalues --   -1.60154  -1.39711  -1.19548  -1.08963  -1.07133
 Alpha  occ. eigenvalues --   -1.04935  -1.02178  -0.95813  -0.94619  -0.86338
 Alpha  occ. eigenvalues --   -0.85639  -0.82646  -0.78312  -0.77708  -0.76886
 Alpha  occ. eigenvalues --   -0.72321  -0.71458  -0.70656  -0.65202  -0.64939
 Alpha  occ. eigenvalues --   -0.63758  -0.62282  -0.59563  -0.58089  -0.56231
 Alpha  occ. eigenvalues --   -0.55446  -0.53901  -0.53270  -0.53025  -0.51338
 Alpha  occ. eigenvalues --   -0.51068  -0.49264  -0.49090  -0.48352  -0.46590
 Alpha  occ. eigenvalues --   -0.45321  -0.45134  -0.44433  -0.44261  -0.42442
 Alpha  occ. eigenvalues --   -0.37524  -0.36533
 Alpha virt. eigenvalues --    0.04819   0.11124   0.16331   0.21263   0.24079
 Alpha virt. eigenvalues --    0.25730   0.27188   0.27885   0.28193   0.28741
 Alpha virt. eigenvalues --    0.29419   0.30843   0.32377   0.32750   0.32853

 Mulliken charges:
               1
     1  C   -0.170376
     2  C   -0.218600
     3  C   -0.170688
     4  C    0.158606
     5  C   -0.170633
     6  C   -0.218580
     7  H    0.226349
     8  H    0.224133
     9  H    0.275830
    10  H    0.276232
    11  H    0.224203
    12  N    0.488564
    13  O   -0.457126
    14  O   -0.460759
    15  C   -0.299878
    16  C   -0.296561
    17  C   -0.482326
    18  H    0.159878
    19  H    0.143699
    20  H    0.154646
    21  H    0.142373
    22  H    0.142726
    23  H    0.183418
    24  H    0.154249
    25  C   -0.297327
    26  C   -0.298853
    27  C   -0.474892
    28  H    0.149577
    29  H    0.145686
    30  H    0.152207
    31  H    0.149766
    32  H    0.153554
    33  H    0.153898
    34  H    0.157005
 Sum of Mulliken charges =  -0.00000

 Dipole moment (field-independent basis, Debye):
    X=              5.4060    Y=             -1.9203    Z=              0.1302  Tot=              5.7385
 Quadrupole moment (field-independent basis, Debye-Ang):
   XX=            -66.7904   YY=            -91.0500   ZZ=            -95.8984
   XY=             -4.8880   XZ=              0.6692   YZ=             -0.3232

 Normal termination of Gaussian 16 at Wed May  5 19:03:11 2021.
