 Gaussian 16, Revision A.03,
 Gaussian 16:  EM64L-G16RevA.03 25-Dec-2016

 -------------
 #p 6-31g* mp2
 -------------

 ------------------------------------------------------
 Input file generated by CHIRIPA (05-May-2021 14:53:12)
 ------------------------------------------------------
 Symbolic Z-matrix:
 Charge =  0 Multiplicity = 1

                         Standard orientation:
 ---------------------------------------------------------------------
 Center     Atomic      Atomic             Coordinates (Angstroms)
 Number     Number       Type             X           Y           Z
 ---------------------------------------------------------------------
      1          6           0       -3.440915    0.673990    0.373310
      2          6           0       -3.140411    1.910652   -0.474245
      3          6           0       -2.277434    2.936157    0.261555
      4          1           0       -3.946482    0.984920    1.297793
      5          1           0       -2.493680    0.207113    0.676901
      6          1           0       -4.087951    2.374270   -0.777302
      7          1           0       -2.635673    1.596723   -1.396907
      8          1           0       -1.317585    2.495715    0.550177
      9          1           0       -2.778115    3.277679    1.173302
     10          1           0       -2.074787    3.812049   -0.362630
     11          6           0       -4.302704   -0.360389   -0.348569
     12          6           0       -4.603207   -1.597051    0.498986
     13          6           0       -5.466185   -2.622556   -0.236815
     14          1           0       -5.249938    0.106488   -0.652160
     15          1           0       -3.797137   -0.671319   -1.273052
     16          1           0       -5.107946   -1.283122    1.421647
     17          1           0       -3.655668   -2.060669    0.802043
     18          1           0       -4.965503   -2.964078   -1.148561
     19          1           0       -6.426033   -2.182113   -0.525437
     20          1           0       -5.668831   -3.498448    0.387371
     21          6           0        5.318640   -1.173420   -0.004776
     22          6           0        5.186505    0.218583   -0.042041
     23          6           0        3.920548    0.811786   -0.045106
     24          6           0        2.803096   -0.020901   -0.010137
     25          6           0        2.902051   -1.410897    0.027424
     26          6           0        4.178002   -1.982292    0.029777
     27          1           0        6.305947   -1.625764   -0.002672
     28          1           0        6.070583    0.849241   -0.068926
     29          1           0        3.789406    1.886686   -0.073573
     30          1           0        2.002247   -2.013460    0.053695
     31          1           0        4.277595   -3.063627    0.058757
     32          7           0        1.457594    0.595553   -0.013005
     33          8           0        0.488745   -0.160088    0.018250
     34          8           0        1.397314    1.822698   -0.046452
 ---------------------------------------------------------------------

 SCF Done:  E(RHF) =  -669.537146408     A.U. after   15 cycles
 E2 =    -0.2092090371D+01 EUMP2 =    -0.67162923677955D+03

 The electronic state is 1-A.
 Alpha  occ. eigenvalues --  -20.61231 -20.61224 -15.86212 -11.31448 -11.27993
 Alpha  occ. eigenvalues --  -11.27988 -11.27714 -11.26977 -11.26967 -11.20606
 Alpha  occ. eigenvalues --  -11.20305 -11.20120 -11.19850 -11.19662 -11.18958
 Alpha  occ. eigenvalues --   -1.60256  -1.39814  -1.19601  -1.09024  -1.07009
 Alpha  occ. eigenvalues --   -1.04981  -1.02102  -0.95879  -0.94547  -0.86387
 Alpha  occ. eigenvalues --   -0.85569  -0.82716  -0.78243  -0.77782  -0.76752
 Alpha  occ. eigenvalues --   -0.72420  -0.71552  -0.70709  -0.65257  -0.64986
 Alpha  occ. eigenvalues --   -0.63629  -0.62328  -0.59490  -0.58015  -0.56159
 Alpha  occ. eigenvalues --   -0.55491  -0.53821  -0.53318  -0.53070  -0.51291
 Alpha  occ. eigenvalues --   -0.50991  -0.49299  -0.49201  -0.48345  -0.46523
 Alpha  occ. eigenvalues --   -0.45266  -0.45229  -0.44324  -0.44065  -0.42352
 Alpha  occ. eigenvalues --   -0.37575  -0.36577
 Alpha virt. eigenvalues --    0.04738   0.11080   0.16257   0.21214   0.24190
 Alpha virt. eigenvalues --    0.25818   0.27152   0.27905   0.28237   0.28911
 Alpha virt. eigenvalues --    0.29449   0.30813   0.32332   0.32796   0.32905

 Mulliken charges:
               1
     1  C   -0.305219
     2  C   -0.294680
     3  C   -0.485294
     4  H    0.141888
     5  H    0.170153
     6  H    0.141849
     7  H    0.153125
     8  H    0.184129
     9  H    0.143265
    10  H    0.152451
    11  C   -0.296811
    12  C   -0.298790
    13  C   -0.474769
    14  H    0.144526
    15  H    0.149218
    16  H    0.149323
    17  H    0.152511
    18  H    0.153515
    19  H    0.153467
    20  H    0.156260
    21  C   -0.170216
    22  C   -0.218613
    23  C   -0.170323
    24  C    0.158426
    25  C   -0.170580
    26  C   -0.218610
    27  H    0.226588
    28  H    0.224416
    29  H    0.276369
    30  H    0.275921
    31  H    0.224379
    32  N    0.489930
    33  O   -0.461157
    34  O   -0.456649
 Sum of Mulliken charges =  -0.00000

 Dipole moment (field-independent basis, Debye):
    X=              5.3602    Y=             -2.2452    Z=              0.0160  Tot=              5.8115
 Quadrupole moment (field-independent basis, Debye-Ang):
   XX=            -69.2213   YY=            -91.9154   ZZ=            -95.8792
   XY=             -4.7329   XZ=             -0.6355   YZ=             -0.3336

 Normal termination of Gaussian 16 at Thu May  6 10:23:49 2021.
