 Gaussian 16, Revision A.03,
 Gaussian 16:  EM64L-G16RevA.03 25-Dec-2016

 -------------
 #p 6-31g* mp2
 -------------

 ------------------------------------------------------
 Input file generated by CHIRIPA (05-May-2021 14:53:17)
 ------------------------------------------------------
 Symbolic Z-matrix:
 Charge =  0 Multiplicity = 1

                         Standard orientation:
 ---------------------------------------------------------------------
 Center     Atomic      Atomic             Coordinates (Angstroms)
 Number     Number       Type             X           Y           Z
 ---------------------------------------------------------------------
      1          6           0        3.120145    0.506473    0.002364
      2          6           0        3.389133    2.009439    0.084365
      3          6           0        2.118016    2.846364   -0.062652
      4          1           0        2.638408    0.278523   -0.958320
      5          1           0        2.402766    0.226140    0.786057
      6          1           0        4.106850    2.286615   -0.698369
      7          1           0        3.870459    2.233811    1.044884
      8          1           0        1.400244    2.598545    0.726011
      9          1           0        1.637978    2.651649   -1.027147
     10          1           0        2.333342    3.917669   -0.001003
     11          6           0        4.381188   -0.343468    0.147620
     12          6           0        4.112200   -1.846434    0.065619
     13          6           0        5.383317   -2.683358    0.212635
     14          1           0        5.098568   -0.063135   -0.636073
     15          1           0        4.862925   -0.115517    1.108304
     16          1           0        3.630874   -2.070806   -0.894901
     17          1           0        3.394483   -2.123610    0.848352
     18          1           0        5.863356   -2.488643    1.177130
     19          1           0        6.101089   -2.435539   -0.576028
     20          1           0        5.167991   -3.754663    0.150986
     21          6           0       -4.435280   -2.082035    0.105425
     22          6           0       -3.159326   -2.203963   -0.454572
     23          6           0       -2.316883   -1.092376   -0.550548
     24          6           0       -2.784704    0.131454   -0.074443
     25          6           0       -4.050671    0.284937    0.488637
     26          6           0       -4.876102   -0.840165    0.574416
     27          1           0       -5.083103   -2.950792    0.176020
     28          1           0       -2.814331   -3.167169   -0.819615
     29          1           0       -1.324409   -1.158528   -0.979543
     30          1           0       -4.366689    1.258244    0.843917
     31          1           0       -5.866535   -0.742514    1.009793
     32          7           0       -1.901851    1.315394   -0.170651
     33          8           0       -2.337548    2.382500    0.256069
     34          8           0       -0.790891    1.153843   -0.670955
 ---------------------------------------------------------------------

 SCF Done:  E(RHF) =  -669.535423821     A.U. after   15 cycles
 E2 =    -0.2091634515D+01 EUMP2 =    -0.67162705833614D+03

 The electronic state is 1-A.
 Alpha  occ. eigenvalues --  -20.60902 -20.60897 -15.85937 -11.31274 -11.27840
 Alpha  occ. eigenvalues --  -11.27835 -11.27580 -11.26850 -11.26840 -11.21178
 Alpha  occ. eigenvalues --  -11.20755 -11.20683 -11.20356 -11.20296 -11.19122
 Alpha  occ. eigenvalues --   -1.59968  -1.39524  -1.19445  -1.08847  -1.07570
 Alpha  occ. eigenvalues --   -1.04842  -1.02568  -0.95691  -0.94971  -0.86244
 Alpha  occ. eigenvalues --   -0.85979  -0.82522  -0.78710  -0.77583  -0.77265
 Alpha  occ. eigenvalues --   -0.72154  -0.71287  -0.70553  -0.65100  -0.64845
 Alpha  occ. eigenvalues --   -0.64221  -0.62189  -0.59979  -0.58474  -0.56575
 Alpha  occ. eigenvalues --   -0.55346  -0.54256  -0.53175  -0.52935  -0.51698
 Alpha  occ. eigenvalues --   -0.51418  -0.48947  -0.48921  -0.48876  -0.46880
 Alpha  occ. eigenvalues --   -0.45780  -0.45063  -0.44724  -0.44608  -0.42836
 Alpha  occ. eigenvalues --   -0.37425  -0.36445
 Alpha virt. eigenvalues --    0.04944   0.11210   0.16434   0.21313   0.23581
 Alpha virt. eigenvalues --    0.25309   0.27162   0.27448   0.27840   0.28639
 Alpha virt. eigenvalues --    0.29171   0.30952   0.32256   0.32387   0.32634

 Mulliken charges:
               1
     1  C   -0.294810
     2  C   -0.301876
     3  C   -0.468999
     4  H    0.151749
     5  H    0.148664
     6  H    0.146046
     7  H    0.145660
     8  H    0.161274
     9  H    0.168414
    10  H    0.149900
    11  C   -0.297608
    12  C   -0.298306
    13  C   -0.474897
    14  H    0.147841
    15  H    0.147740
    16  H    0.149082
    17  H    0.149153
    18  H    0.154886
    19  H    0.154981
    20  H    0.156901
    21  C   -0.170654
    22  C   -0.218574
    23  C   -0.171030
    24  C    0.157738
    25  C   -0.170704
    26  C   -0.218609
    27  H    0.225922
    28  H    0.223874
    29  H    0.276076
    30  H    0.275807
    31  H    0.223728
    32  N    0.489564
    33  O   -0.459312
    34  O   -0.459620
 Sum of Mulliken charges =  -0.00000

 Dipole moment (field-independent basis, Debye):
    X=             -3.4537    Y=             -4.1077    Z=              0.2791  Tot=              5.3739
 Quadrupole moment (field-independent basis, Debye-Ang):
   XX=            -77.1775   YY=            -95.6561   ZZ=            -93.6508
   XY=              9.7059   XZ=             -2.8887   YZ=              1.7015

 Normal termination of Gaussian 16 at Wed May  5 15:43:45 2021.
