 Gaussian 16, Revision A.03,
 Gaussian 16:  EM64L-G16RevA.03 25-Dec-2016

 -------------
 #p 6-31g* mp2
 -------------

 ------------------------------------------------------
 Input file generated by CHIRIPA (05-May-2021 14:55:19)
 ------------------------------------------------------
 Symbolic Z-matrix:
 Charge =  0 Multiplicity = 1

                         Standard orientation:
 ---------------------------------------------------------------------
 Center     Atomic      Atomic             Coordinates (Angstroms)
 Number     Number       Type             X           Y           Z
 ---------------------------------------------------------------------
      1          6           0       -0.754873   -1.624956    0.215647
      2          6           0       -0.678959   -0.369256   -0.395887
      3          6           0       -1.821887    0.424223   -0.532470
      4          6           0       -3.029797   -0.071377   -0.043979
      5          6           0       -3.137653   -1.318220    0.570056
      6          6           0       -1.981815   -2.094603    0.695821
      7          1           0        0.137995   -2.234709    0.317546
      8          1           0        0.272557   -0.001962   -0.769729
      9          1           0       -1.791547    1.400088   -1.001710
     10          1           0       -4.100325   -1.657381    0.932894
     11          1           0       -2.043752   -3.069404    1.171186
     12          7           0       -4.246597    0.759594   -0.182846
     13          8           0       -5.298818    0.300194    0.255811
     14          8           0       -4.125064    1.854574   -0.727718
     15          6           0        3.786341    0.982829   -0.181207
     16          6           0        3.169606    2.038504    0.737038
     17          6           0        3.508457    3.466269    0.307550
     18          1           0        4.877076    1.113008   -0.198296
     19          1           0        3.435386    1.150642   -1.208857
     20          1           0        3.520530    1.867906    1.762887
     21          1           0        2.080227    1.905675    0.752094
     22          1           0        3.143574    3.660457   -0.706231
     23          1           0        4.592059    3.622473    0.310305
     24          1           0        3.057524    4.204802    0.977691
     25          6           0        3.456548   -0.449501    0.235202
     26          6           0        4.073282   -1.505176   -0.683044
     27          6           0        3.734431   -2.932941   -0.253555
     28          1           0        3.807503   -0.617314    1.262852
     29          1           0        2.365812   -0.579680    0.252291
     30          1           0        5.162662   -1.372347   -0.698100
     31          1           0        3.722359   -1.334578   -1.708892
     32          1           0        2.650829   -3.089146   -0.256311
     33          1           0        4.099315   -3.127129    0.760225
     34          1           0        4.185364   -3.671474   -0.923697
 ---------------------------------------------------------------------

 SCF Done:  E(RHF) =  -669.535136843     A.U. after   15 cycles
 E2 =    -0.2092488000D+01 EUMP2 =    -0.67162762484220D+03

 The electronic state is 1-A.
 Alpha  occ. eigenvalues --  -20.60759 -20.60754 -15.85813 -11.31183 -11.27758
 Alpha  occ. eigenvalues --  -11.27754 -11.27489 -11.26764 -11.26750 -11.22651
 Alpha  occ. eigenvalues --  -11.22519 -11.22383 -11.22296 -11.22224 -11.21658
 Alpha  occ. eigenvalues --   -1.59835  -1.39388  -1.19358  -1.09431  -1.08750
 Alpha  occ. eigenvalues --   -1.04763  -1.04447  -0.96907  -0.95586  -0.87916
 Alpha  occ. eigenvalues --   -0.86167  -0.82418  -0.80514  -0.79234  -0.77464
 Alpha  occ. eigenvalues --   -0.72032  -0.71158  -0.70480  -0.66186  -0.65008
 Alpha  occ. eigenvalues --   -0.64697  -0.62109  -0.61850  -0.60270  -0.58502
 Alpha  occ. eigenvalues --   -0.56247  -0.55243  -0.53555  -0.53327  -0.53084
 Alpha  occ. eigenvalues --   -0.52852  -0.50861  -0.48820  -0.48791  -0.48784
 Alpha  occ. eigenvalues --   -0.47563  -0.46745  -0.46676  -0.44792  -0.44714
 Alpha  occ. eigenvalues --   -0.37328  -0.36361
 Alpha virt. eigenvalues --    0.05065   0.11194   0.16517   0.18128   0.21652
 Alpha virt. eigenvalues --    0.23524   0.25195   0.25473   0.26468   0.28233
 Alpha virt. eigenvalues --    0.29264   0.30896   0.30995   0.31420   0.32132

 Mulliken charges:
               1
     1  C   -0.175685
     2  C   -0.223784
     3  C   -0.171306
     4  C    0.158381
     5  C   -0.170519
     6  C   -0.219804
     7  H    0.232235
     8  H    0.227917
     9  H    0.275625
    10  H    0.275652
    11  H    0.224013
    12  N    0.488020
    13  O   -0.460370
    14  O   -0.460428
    15  C   -0.299946
    16  C   -0.301217
    17  C   -0.476269
    18  H    0.154400
    19  H    0.147748
    20  H    0.155025
    21  H    0.149175
    22  H    0.155289
    23  H    0.157103
    24  H    0.164102
    25  C   -0.303916
    26  C   -0.300786
    27  C   -0.477550
    28  H    0.154480
    29  H    0.141567
    30  H    0.157406
    31  H    0.152395
    32  H    0.146383
    33  H    0.158796
    34  H    0.165866
 Sum of Mulliken charges =  -0.00000

 Dipole moment (field-independent basis, Debye):
    X=              4.5238    Y=             -2.8772    Z=              0.5285  Tot=              5.3872
 Quadrupole moment (field-independent basis, Debye-Ang):
   XX=           -117.8455   YY=            -92.9256   ZZ=            -94.1309
   XY=             10.6946   XZ=             -2.4935   YZ=             -1.5380

 Normal termination of Gaussian 16 at Wed May  5 18:50:26 2021.
