 Gaussian 16, Revision A.03,
 Gaussian 16:  EM64L-G16RevA.03 25-Dec-2016

 -------------
 #p 6-31g* mp2
 -------------

 ------------------------------------------------------
 Input file generated by CHIRIPA (05-May-2021 14:53:13)
 ------------------------------------------------------
 Symbolic Z-matrix:
 Charge =  0 Multiplicity = 1

                         Standard orientation:
 ---------------------------------------------------------------------
 Center     Atomic      Atomic             Coordinates (Angstroms)
 Number     Number       Type             X           Y           Z
 ---------------------------------------------------------------------
      1          6           0        3.791965   -0.445441    0.256374
      2          6           0        3.086020   -1.746290   -0.127579
      3          6           0        1.628511   -1.786043    0.332726
      4          1           0        3.746746   -0.319199    1.346770
      5          1           0        3.245603    0.402500   -0.179379
      6          1           0        3.634338   -2.591611    0.307617
      7          1           0        3.133092   -1.869545   -1.217170
      8          1           0        1.061415   -0.961962   -0.112127
      9          1           0        1.565509   -1.688130    1.421324
     10          1           0        1.142991   -2.724647    0.047854
     11          6           0        5.249787   -0.390691   -0.196932
     12          6           0        5.955732    0.910158    0.187021
     13          6           0        7.413241    0.949911   -0.273284
     14          1           0        5.796148   -1.238631    0.238821
     15          1           0        5.295006   -0.516933   -1.287327
     16          1           0        5.908659    1.033414    1.276612
     17          1           0        5.407413    1.755479   -0.248175
     18          1           0        7.476243    0.851998   -1.361881
     19          1           0        7.980337    0.125830    0.171569
     20          1           0        7.898760    1.888516    0.011589
     21          6           0       -2.027734    2.350959    0.049811
     22          6           0       -3.417047    2.511652    0.027237
     23          6           0       -4.260133    1.397150   -0.013252
     24          6           0       -3.677354    0.130908   -0.030280
     25          6           0       -2.296892   -0.061815   -0.008580
     26          6           0       -1.473069    1.067002    0.031862
     27          1           0       -1.380286    3.222291    0.081245
     28          1           0       -3.850596    3.507587    0.041096
     29          1           0       -5.338995    1.492770   -0.031427
     30          1           0       -1.894094   -1.067278   -0.023229
     31          1           0       -0.394457    0.939189    0.049321
     32          7           0       -4.559696   -1.056543   -0.073119
     33          8           0       -4.021459   -2.161411   -0.087418
     34          8           0       -5.772805   -0.859914   -0.091586
 ---------------------------------------------------------------------

 SCF Done:  E(RHF) =  -669.535500023     A.U. after   15 cycles
 E2 =    -0.2091096744D+01 EUMP2 =    -0.67162659676614D+03

 The electronic state is 1-A.
 Alpha  occ. eigenvalues --  -20.60703 -20.60698 -15.85756 -11.31109 -11.27687
 Alpha  occ. eigenvalues --  -11.27653 -11.27429 -11.26703 -11.26662 -11.22281
 Alpha  occ. eigenvalues --  -11.22090 -11.22070 -11.21978 -11.21900 -11.21467
 Alpha  occ. eigenvalues --   -1.59778  -1.39332  -1.19283  -1.09038  -1.08683
 Alpha  occ. eigenvalues --   -1.04687  -1.04140  -0.96610  -0.95518  -0.87631
 Alpha  occ. eigenvalues --   -0.86085  -0.82355  -0.80212  -0.78844  -0.77396
 Alpha  occ. eigenvalues --   -0.71975  -0.71101  -0.70395  -0.65673  -0.64937
 Alpha  occ. eigenvalues --   -0.64704  -0.62109  -0.61484  -0.59964  -0.58201
 Alpha  occ. eigenvalues --   -0.55916  -0.55188  -0.53284  -0.53094  -0.53016
 Alpha  occ. eigenvalues --   -0.52719  -0.50547  -0.48739  -0.48729  -0.48512
 Alpha  occ. eigenvalues --   -0.47231  -0.46386  -0.46298  -0.44740  -0.44385
 Alpha  occ. eigenvalues --   -0.37271  -0.36287
 Alpha virt. eigenvalues --    0.05134   0.11364   0.16619   0.19778   0.22478
 Alpha virt. eigenvalues --    0.23716   0.25222   0.26195   0.26800   0.28204
 Alpha virt. eigenvalues --    0.29069   0.29540   0.31193   0.31507   0.32020

 Mulliken charges:
               1
     1  C   -0.298164
     2  C   -0.299981
     3  C   -0.482631
     4  H    0.150656
     5  H    0.143506
     6  H    0.156502
     7  H    0.154668
     8  H    0.145531
     9  H    0.158918
    10  H    0.168274
    11  C   -0.298753
    12  C   -0.299858
    13  C   -0.476034
    14  H    0.151829
    15  H    0.150973
    16  H    0.152376
    17  H    0.150412
    18  H    0.155922
    19  H    0.156460
    20  H    0.161085
    21  C   -0.171025
    22  C   -0.218715
    23  C   -0.170959
    24  C    0.158609
    25  C   -0.173409
    26  C   -0.223586
    27  H    0.225507
    28  H    0.223054
    29  H    0.275310
    30  H    0.278047
    31  H    0.228578
    32  N    0.488140
    33  O   -0.460400
    34  O   -0.460841
 Sum of Mulliken charges =  -0.00000

 Dipole moment (field-independent basis, Debye):
    X=              3.3202    Y=              4.0769    Z=              0.1693  Tot=              5.2606
 Quadrupole moment (field-independent basis, Debye-Ang):
   XX=           -114.9906   YY=            -91.8476   ZZ=            -94.9432
   XY=            -18.4315   XZ=             -0.0908   YZ=             -0.4631

 Normal termination of Gaussian 16 at Wed May  5 23:25:07 2021.
