 Gaussian 16, Revision A.03,
 Gaussian 16:  EM64L-G16RevA.03 25-Dec-2016

 -------------
 #p 6-31g* mp2
 -------------

 ------------------------------------------------------
 Input file generated by CHIRIPA (05-May-2021 14:57:23)
 ------------------------------------------------------
 Symbolic Z-matrix:
 Charge =  0 Multiplicity = 1

                         Standard orientation:
 ---------------------------------------------------------------------
 Center     Atomic      Atomic             Coordinates (Angstroms)
 Number     Number       Type             X           Y           Z
 ---------------------------------------------------------------------
      1          6           0       -4.377936    0.821207   -1.981467
      2          6           0       -4.492588    1.498167   -0.762820
      3          6           0       -3.864488    1.005471    0.384912
      4          6           0       -3.126306   -0.172171    0.277496
      5          6           0       -2.993357   -0.869458   -0.922256
      6          6           0       -3.630005   -0.358366   -2.057162
      7          1           0       -4.869179    1.211090   -2.868071
      8          1           0       -5.072794    2.414460   -0.701074
      9          1           0       -3.936732    1.509419    1.341069
     10          1           0       -2.408158   -1.780522   -0.952621
     11          1           0       -3.539234   -0.886212   -3.002246
     12          7           0       -2.456840   -0.703503    1.485759
     13          8           0       -1.812260   -1.742985    1.364796
     14          8           0       -2.589368   -0.070420    2.530880
     15          6           0        3.018921   -2.396146   -0.483844
     16          6           0        4.081718   -1.684861   -1.050463
     17          6           0        4.212287   -0.310089   -0.832520
     18          6           0        3.257690    0.324430   -0.039159
     19          6           0        2.187636   -0.356603    0.539171
     20          6           0        2.076932   -1.730920    0.307769
     21          1           0        2.925208   -3.463925   -0.658376
     22          1           0        4.814766   -2.198871   -1.665671
     23          1           0        5.025219    0.264950   -1.259005
     24          1           0        1.472559    0.183332    1.147903
     25          1           0        1.250518   -2.280757    0.749088
     26          7           0        3.385402    1.779599    0.198693
     27          8           0        2.531179    2.315355    0.901476
     28          8           0        4.337308    2.356850   -0.322167
 ---------------------------------------------------------------------

 SCF Done:  E(RHF) =  -868.339848785     A.U. after   15 cycles
 E2 =    -0.2598644037D+01 EUMP2 =    -0.87093849282203D+03

 The electronic state is 1-A.
 Alpha  occ. eigenvalues --  -20.61470 -20.61386 -20.60342 -20.60330 -15.86459
 Alpha  occ. eigenvalues --  -15.85383 -11.31555 -11.30637 -11.28134 -11.28061
 Alpha  occ. eigenvalues --  -11.27786 -11.27225 -11.27077 -11.27071 -11.27020
 Alpha  occ. eigenvalues --  -11.26894 -11.26250 -11.25982  -1.60494  -1.59417
 Alpha  occ. eigenvalues --   -1.40055  -1.38972  -1.19704  -1.18784  -1.09148
 Alpha  occ. eigenvalues --   -1.08208  -1.05069  -1.04140  -0.96027  -0.95064
 Alpha  occ. eigenvalues --   -0.86481  -0.85550  -0.82873  -0.81873  -0.77952
 Alpha  occ. eigenvalues --   -0.76933  -0.72687  -0.71802  -0.71603  -0.70814
 Alpha  occ. eigenvalues --   -0.70740  -0.69903  -0.65364  -0.65071  -0.64422
 Alpha  occ. eigenvalues --   -0.64103  -0.62424  -0.61459  -0.55579  -0.54676
 Alpha  occ. eigenvalues --   -0.53406  -0.53161  -0.52521  -0.52193  -0.49457
 Alpha  occ. eigenvalues --   -0.49408  -0.48366  -0.48351  -0.45511  -0.44402
 Alpha  occ. eigenvalues --   -0.37664  -0.36793  -0.36654  -0.35751
 Alpha virt. eigenvalues --    0.04540   0.05551   0.11003   0.11888   0.16065
 Alpha virt. eigenvalues --    0.17075   0.21092   0.22137   0.27015   0.27579
 Alpha virt. eigenvalues --    0.28463   0.28845   0.30714   0.31607   0.32362

 Mulliken charges:
               1
     1  C   -0.169470
     2  C   -0.217956
     3  C   -0.168938
     4  C    0.157693
     5  C   -0.170295
     6  C   -0.218044
     7  H    0.227496
     8  H    0.226034
     9  H    0.277822
    10  H    0.271648
    11  H    0.223850
    12  N    0.488971
    13  O   -0.472511
    14  O   -0.453803
    15  C   -0.172915
    16  C   -0.218787
    17  C   -0.173066
    18  C    0.158099
    19  C   -0.174567
    20  C   -0.226321
    21  H    0.223916
    22  H    0.220493
    23  H    0.273021
    24  H    0.279509
    25  H    0.243576
    26  N    0.487851
    27  O   -0.460163
    28  O   -0.463140
 Sum of Mulliken charges =  -0.00000

 Dipole moment (field-independent basis, Debye):
    X=             -3.1993    Y=             -3.1712    Z=             -5.0177  Tot=              6.7431
 Quadrupole moment (field-independent basis, Debye-Ang):
   XX=            -89.9575   YY=           -106.8958   ZZ=           -104.9180
   XY=            -24.5815   XZ=              6.7052   YZ=              3.4294

 Normal termination of Gaussian 16 at Thu May  6 00:16:46 2021.
