 Gaussian 16, Revision A.03,
 Gaussian 16:  EM64L-G16RevA.03 25-Dec-2016

 -------------
 #p 6-31g* mp2
 -------------

 ------------------------------------------------------
 Input file generated by CHIRIPA (05-May-2021 14:51:12)
 ------------------------------------------------------
 Symbolic Z-matrix:
 Charge =  0 Multiplicity = 1

                         Standard orientation:
 ---------------------------------------------------------------------
 Center     Atomic      Atomic             Coordinates (Angstroms)
 Number     Number       Type             X           Y           Z
 ---------------------------------------------------------------------
      1          6           0       -2.823023    1.210152   -0.383683
      2          6           0       -2.699815    2.181561    0.790698
      3          6           0       -2.526792    3.632872    0.341751
      4          1           0       -1.929493    1.295463   -1.017142
      5          1           0       -3.677790    1.506381   -1.007397
      6          1           0       -1.846373    1.882771    1.412773
      7          1           0       -3.593655    2.093790    1.421539
      8          1           0       -3.382436    3.954321   -0.260865
      9          1           0       -1.625226    3.742103   -0.269681
     10          1           0       -2.440703    4.310170    1.197155
     11          6           0       -2.996544   -0.244610    0.049082
     12          6           0       -3.119753   -1.216018   -1.125298
     13          6           0       -3.292775   -2.667329   -0.676351
     14          1           0       -2.141778   -0.540838    0.672796
     15          1           0       -3.890074   -0.329920    0.682542
     16          1           0       -2.225912   -1.128247   -1.756140
     17          1           0       -3.973194   -0.917228   -1.747374
     18          1           0       -4.194341   -2.776560   -0.064920
     19          1           0       -2.437132   -2.988779   -0.073736
     20          1           0       -3.378864   -3.344627   -1.531756
     21          6           0        3.288337   -0.119573   -0.387872
     22          6           0        4.510396    0.649921    0.114557
     23          6           0        5.257280    1.371249   -1.007782
     24          1           0        3.607834   -0.848499   -1.145193
     25          1           0        2.606777    0.578298   -0.893685
     26          1           0        5.188797   -0.048953    0.620484
     27          1           0        4.187978    1.376967    0.870908
     28          1           0        4.600246    2.090244   -1.507736
     29          1           0        5.606751    0.656221   -1.759583
     30          1           0        6.127254    1.914878   -0.626372
     31          6           0        2.531230   -0.845969    0.722473
     32          6           0        1.309172   -1.615464    0.220044
     33          6           0        0.562287   -2.336791    1.342382
     34          1           0        3.212791   -1.543841    1.228286
     35          1           0        2.211733   -0.117044    1.479793
     36          1           0        1.631589   -2.342511   -0.536307
     37          1           0        0.630771   -0.916589   -0.285884
     38          1           0        0.212817   -1.621764    2.094184
     39          1           0        1.219321   -3.055786    1.842337
     40          1           0       -0.307687   -2.880420    0.960973
 ---------------------------------------------------------------------

 SCF Done:  E(RHF) =  -470.733139984     A.U. after   11 cycles
 E2 =    -0.1583631992D+01 EUMP2 =    -0.47231677197608D+03

 The electronic state is 1-A.
 Alpha  occ. eigenvalues --  -11.21692 -11.21643 -11.21629 -11.21591 -11.21469
 Alpha  occ. eigenvalues --  -11.21408 -11.21406 -11.21330 -11.21154 -11.21103
 Alpha  occ. eigenvalues --  -11.21099 -11.21055  -1.08502  -1.08427  -1.03611
 Alpha  occ. eigenvalues --   -1.03523  -0.96051  -0.95984  -0.87072  -0.86997
 Alpha  occ. eigenvalues --   -0.79676  -0.79583  -0.78305  -0.78244  -0.65246
 Alpha  occ. eigenvalues --   -0.64971  -0.61088  -0.60896  -0.59460  -0.59292
 Alpha  occ. eigenvalues --   -0.57711  -0.57539  -0.55381  -0.55239  -0.52788
 Alpha  occ. eigenvalues --   -0.52680  -0.52514  -0.52331  -0.49995  -0.49923
 Alpha  occ. eigenvalues --   -0.48005  -0.47875  -0.46705  -0.46608  -0.45879
 Alpha  occ. eigenvalues --   -0.45802  -0.45716  -0.45684  -0.43828  -0.43784
 Alpha virt. eigenvalues --    0.19412   0.23086   0.23518   0.24804   0.25692
 Alpha virt. eigenvalues --    0.26496   0.26642   0.27543   0.28254   0.29523
 Alpha virt. eigenvalues --    0.30075   0.31526   0.31665   0.31836   0.32229

 Mulliken charges:
               1
     1  C   -0.298565
     2  C   -0.299450
     3  C   -0.475653
     4  H    0.149067
     5  H    0.149723
     6  H    0.151131
     7  H    0.152225
     8  H    0.155405
     9  H    0.154862
    10  H    0.160284
    11  C   -0.303677
    12  C   -0.299803
    13  C   -0.481804
    14  H    0.155903
    15  H    0.149597
    16  H    0.152544
    17  H    0.151925
    18  H    0.155395
    19  H    0.160280
    20  H    0.160301
    21  C   -0.298231
    22  C   -0.299727
    23  C   -0.475747
    24  H    0.149872
    25  H    0.149185
    26  H    0.152085
    27  H    0.152041
    28  H    0.155205
    29  H    0.155264
    30  H    0.160442
    31  C   -0.298351
    32  C   -0.302216
    33  C   -0.482715
    34  H    0.149997
    35  H    0.149583
    36  H    0.152567
    37  H    0.153358
    38  H    0.155363
    39  H    0.156051
    40  H    0.166285
 Sum of Mulliken charges =  -0.00000

 Dipole moment (field-independent basis, Debye):
    X=              0.0213    Y=             -0.0157    Z=              0.0115  Tot=              0.0289
 Quadrupole moment (field-independent basis, Debye-Ang):
   XX=            -83.7803   YY=            -85.5816   ZZ=            -85.2973
   XY=             -1.1678   XZ=              0.3550   YZ=              0.6883

 Normal termination of Gaussian 16 at Wed May  5 18:20:49 2021.
