 Gaussian 16, Revision A.03,
 Gaussian 16:  EM64L-G16RevA.03 25-Dec-2016

 -------------
 #p 6-31g* mp2
 -------------

 ------------------------------------------------------
 Input file generated by CHIRIPA (05-May-2021 14:55:21)
 ------------------------------------------------------
 Symbolic Z-matrix:
 Charge =  0 Multiplicity = 1

                         Standard orientation:
 ---------------------------------------------------------------------
 Center     Atomic      Atomic             Coordinates (Angstroms)
 Number     Number       Type             X           Y           Z
 ---------------------------------------------------------------------
      1          6           0        5.162703    0.396458    0.271677
      2          6           0        4.768781   -0.278581   -0.888353
      3          6           0        3.458181   -0.744770   -1.028144
      4          6           0        2.563519   -0.517547    0.016480
      5          6           0        2.925708    0.151649    1.184506
      6          6           0        4.241533    0.609043    1.302587
      7          1           0        6.182838    0.755189    0.371838
      8          1           0        5.482035   -0.445103   -1.690590
      9          1           0        3.126498   -1.270328   -1.915383
     10          1           0        2.192167    0.302620    1.967158
     11          1           0        4.544657    1.132976    2.204616
     12          7           0        1.173279   -1.006425   -0.120019
     13          8           0        0.404105   -0.793555    0.814697
     14          8           0        0.879107   -1.593222   -1.159139
     15          6           0       -3.730213   -0.151676    0.181819
     16          6           0       -5.197457   -0.541401   -0.000642
     17          6           0       -5.493159   -1.966615    0.467460
     18          1           0       -3.097896   -0.859483   -0.371472
     19          1           0       -3.460027   -0.253884    1.241983
     20          1           0       -5.465174   -0.437161   -1.059923
     21          1           0       -5.826366    0.167529    0.552991
     22          1           0       -5.253562   -2.080755    1.529612
     23          1           0       -4.890319   -2.688881   -0.092466
     24          1           0       -6.547659   -2.224348    0.327944
     25          6           0       -3.418962    1.270329   -0.281598
     26          6           0       -1.951718    1.660054   -0.099138
     27          6           0       -1.656017    3.085268   -0.567240
     28          1           0       -3.689149    1.372537   -1.341762
     29          1           0       -4.051279    1.978136    0.271693
     30          1           0       -1.322810    0.951124   -0.652770
     31          1           0       -1.684001    1.555814    0.960144
     32          1           0       -2.258856    3.807534   -0.007314
     33          1           0       -1.895613    3.199409   -1.629392
     34          1           0       -0.601517    3.343001   -0.427723
 ---------------------------------------------------------------------

 SCF Done:  E(RHF) =  -669.535851599     A.U. after   15 cycles
 E2 =    -0.2091808100D+01 EUMP2 =    -0.67162765969914D+03

 The electronic state is 1-A.
 Alpha  occ. eigenvalues --  -20.60963 -20.60931 -15.85963 -11.31294 -11.27857
 Alpha  occ. eigenvalues --  -11.27853 -11.27594 -11.26864 -11.26854 -11.20549
 Alpha  occ. eigenvalues --  -11.20285 -11.20234 -11.20199 -11.20111 -11.19994
 Alpha  occ. eigenvalues --   -1.60007  -1.39560  -1.19462  -1.08867  -1.07231
 Alpha  occ. eigenvalues --   -1.04858  -1.02454  -0.95708  -0.94938  -0.86258
 Alpha  occ. eigenvalues --   -0.85954  -0.82544  -0.78486  -0.77597  -0.76994
 Alpha  occ. eigenvalues --   -0.72183  -0.71320  -0.70571  -0.65116  -0.64862
 Alpha  occ. eigenvalues --   -0.63869  -0.62205  -0.59860  -0.58307  -0.56536
 Alpha  occ. eigenvalues --   -0.55363  -0.54236  -0.53192  -0.52950  -0.51678
 Alpha  occ. eigenvalues --   -0.51353  -0.49005  -0.48953  -0.48856  -0.46842
 Alpha  occ. eigenvalues --   -0.45502  -0.45072  -0.44474  -0.44314  -0.42677
 Alpha  occ. eigenvalues --   -0.37438  -0.36459
 Alpha virt. eigenvalues --    0.04912   0.11195   0.16402   0.21316   0.23991
 Alpha virt. eigenvalues --    0.25238   0.27231   0.27818   0.28060   0.28771
 Alpha virt. eigenvalues --    0.29068   0.30919   0.32203   0.32458   0.32707

 Mulliken charges:
               1
     1  C   -0.170560
     2  C   -0.218560
     3  C   -0.170857
     4  C    0.158780
     5  C   -0.170660
     6  C   -0.218573
     7  H    0.226018
     8  H    0.223818
     9  H    0.275749
    10  H    0.275759
    11  H    0.223848
    12  N    0.487376
    13  O   -0.457007
    14  O   -0.461268
    15  C   -0.298483
    16  C   -0.299153
    17  C   -0.474884
    18  H    0.163187
    19  H    0.150780
    20  H    0.149106
    21  H    0.147408
    22  H    0.154280
    23  H    0.157598
    24  H    0.155688
    25  C   -0.298739
    26  C   -0.298562
    27  C   -0.475537
    28  H    0.145629
    29  H    0.143468
    30  H    0.163224
    31  H    0.154500
    32  H    0.151092
    33  H    0.152517
    34  H    0.153016
 Sum of Mulliken charges =  -0.00000

 Dipole moment (field-independent basis, Debye):
    X=              5.1737    Y=              1.5148    Z=              0.5218  Tot=              5.4161
 Quadrupole moment (field-independent basis, Debye-Ang):
   XX=            -71.2503   YY=            -98.2970   ZZ=            -90.0265
   XY=              1.4679   XZ=              0.0948   YZ=              2.5324

 Normal termination of Gaussian 16 at Wed May  5 23:50:37 2021.
