 Gaussian 16, Revision A.03,
 Gaussian 16:  EM64L-G16RevA.03 25-Dec-2016

 -------------
 #p 6-31g* mp2
 -------------

 ------------------------------------------------------
 Input file generated by CHIRIPA (05-May-2021 14:53:16)
 ------------------------------------------------------
 Symbolic Z-matrix:
 Charge =  0 Multiplicity = 1

                         Standard orientation:
 ---------------------------------------------------------------------
 Center     Atomic      Atomic             Coordinates (Angstroms)
 Number     Number       Type             X           Y           Z
 ---------------------------------------------------------------------
      1          6           0        4.062966   -0.280938    0.169471
      2          6           0        3.217559   -0.171686    1.438855
      3          6           0        1.832405   -0.799933    1.282493
      4          1           0        3.530739    0.203301   -0.660705
      5          1           0        4.168403   -1.340345   -0.102436
      6          1           0        3.114907    0.887117    1.709065
      7          1           0        3.751947   -0.656073    2.266149
      8          1           0        1.917268   -1.863238    1.035954
      9          1           0        1.276608   -0.311280    0.475705
     10          1           0        1.244987   -0.710618    2.201636
     11          6           0        5.450458    0.342607    0.310135
     12          6           0        6.295865    0.233356   -0.959249
     13          6           0        7.681019    0.861603   -0.802887
     14          1           0        5.345022    1.402015    0.582042
     15          1           0        5.982685   -0.141631    1.140311
     16          1           0        5.761477    0.717743   -1.786543
     17          1           0        6.398517   -0.825448   -1.229458
     18          1           0        8.236816    0.372949    0.003902
     19          1           0        7.596157    1.924908   -0.556348
     20          1           0        8.268437    0.772288   -1.722029
     21          6           0       -5.445882    1.787599    0.115708
     22          6           0       -4.090019    2.121139    0.032596
     23          6           0       -3.122937    1.125595   -0.135313
     24          6           0       -3.548961   -0.199237   -0.216645
     25          6           0       -4.892252   -0.563321   -0.137265
     26          6           0       -5.841972    0.448794    0.030662
     27          1           0       -6.190391    2.567399    0.246151
     28          1           0       -3.779506    3.160036    0.098329
     29          1           0       -2.066578    1.355776   -0.202680
     30          1           0       -5.171196   -1.607769   -0.206106
     31          1           0       -6.894252    0.186825    0.094892
     32          7           0       -2.534344   -1.261947   -0.394412
     33          8           0       -2.935497   -2.421676   -0.463267
     34          8           0       -1.357146   -0.915047   -0.461525
 ---------------------------------------------------------------------

 SCF Done:  E(RHF) =  -669.535672235     A.U. after   15 cycles
 E2 =    -0.2090744856D+01 EUMP2 =    -0.67162641709080D+03

 The electronic state is 1-A.
 Alpha  occ. eigenvalues --  -20.60838 -20.60829 -15.85880 -11.31240 -11.27811
 Alpha  occ. eigenvalues --  -11.27805 -11.27553 -11.26826 -11.26816 -11.21140
 Alpha  occ. eigenvalues --  -11.20834 -11.20734 -11.20706 -11.20629 -11.19739
 Alpha  occ. eigenvalues --   -1.59902  -1.39458  -1.19413  -1.08809  -1.07771
 Alpha  occ. eigenvalues --   -1.04816  -1.02807  -0.95649  -0.95221  -0.86235
 Alpha  occ. eigenvalues --   -0.86207  -0.82480  -0.78882  -0.77586  -0.77499
 Alpha  occ. eigenvalues --   -0.72106  -0.71220  -0.70523  -0.65069  -0.64819
 Alpha  occ. eigenvalues --   -0.64411  -0.62164  -0.60208  -0.58650  -0.56838
 Alpha  occ. eigenvalues --   -0.55318  -0.54505  -0.53145  -0.52909  -0.51920
 Alpha  occ. eigenvalues --   -0.51624  -0.49177  -0.48861  -0.48829  -0.47169
 Alpha  occ. eigenvalues --   -0.45936  -0.45111  -0.45039  -0.44806  -0.43071
 Alpha  occ. eigenvalues --   -0.37393  -0.36419
 Alpha virt. eigenvalues --    0.05001   0.11235   0.16486   0.21297   0.23468
 Alpha virt. eigenvalues --    0.24975   0.27069   0.27348   0.27834   0.28187
 Alpha virt. eigenvalues --    0.29019   0.30794   0.31901   0.32329   0.32603

 Mulliken charges:
               1
     1  C   -0.297319
     2  C   -0.300827
     3  C   -0.474865
     4  H    0.149726
     5  H    0.150786
     6  H    0.145631
     7  H    0.148141
     8  H    0.158274
     9  H    0.170052
    10  H    0.153438
    11  C   -0.297504
    12  C   -0.299157
    13  C   -0.475285
    14  H    0.146982
    15  H    0.148515
    16  H    0.151321
    17  H    0.152341
    18  H    0.154624
    19  H    0.153816
    20  H    0.159070
    21  C   -0.170760
    22  C   -0.218526
    23  C   -0.170467
    24  C    0.157951
    25  C   -0.170874
    26  C   -0.218537
    27  H    0.225769
    28  H    0.223579
    29  H    0.275213
    30  H    0.275783
    31  H    0.223626
    32  N    0.493267
    33  O   -0.459761
    34  O   -0.464024
 Sum of Mulliken charges =  -0.00000

 Dipole moment (field-independent basis, Debye):
    X=             -3.8220    Y=              3.6725    Z=              0.5485  Tot=              5.3288
 Quadrupole moment (field-independent basis, Debye-Ang):
   XX=            -68.9584   YY=            -93.5079   ZZ=            -96.1510
   XY=            -10.9219   XZ=             -1.5624   YZ=             -1.2061

 Normal termination of Gaussian 16 at Thu May  6 10:38:19 2021.
