 Gaussian 16, Revision A.03,
 Gaussian 16:  EM64L-G16RevA.03 25-Dec-2016

 -------------
 #p 6-31g* mp2
 -------------

 ------------------------------------------------------
 Input file generated by CHIRIPA (05-May-2021 14:57:27)
 ------------------------------------------------------
 Symbolic Z-matrix:
 Charge =  0 Multiplicity = 1

                         Standard orientation:
 ---------------------------------------------------------------------
 Center     Atomic      Atomic             Coordinates (Angstroms)
 Number     Number       Type             X           Y           Z
 ---------------------------------------------------------------------
      1          6           0        3.441140   -1.222649   -1.003139
      2          6           0        2.428501   -1.965181   -0.386916
      3          6           0        1.562197   -1.361044    0.529099
      4          6           0        1.737912   -0.006310    0.806784
      5          6           0        2.737233    0.760256    0.209270
      6          6           0        3.592008    0.135306   -0.703607
      7          1           0        4.109628   -1.700041   -1.713502
      8          1           0        2.308986   -3.019950   -0.617617
      9          1           0        0.769779   -1.912272    1.020668
     10          1           0        2.831616    1.809977    0.459463
     11          1           0        4.377549    0.714441   -1.180653
     12          7           0        0.826897    0.644280    1.774868
     13          8           0        1.002602    1.839259    2.002439
     14          8           0       -0.045611   -0.053086    2.287749
     15          6           0       -0.627810    1.970891   -1.799590
     16          6           0       -0.402829    0.639905   -2.166168
     17          6           0       -1.095419   -0.397312   -1.534464
     18          6           0       -2.009895   -0.066027   -0.535827
     19          6           0       -2.256054    1.250221   -0.148290
     20          6           0       -1.552075    2.271272   -0.793595
     21          1           0       -0.085367    2.770346   -2.295596
     22          1           0        0.314376    0.403665   -2.947099
     23          1           0       -0.940663   -1.436405   -1.798574
     24          1           0       -2.977230    1.454524    0.633748
     25          1           0       -1.728835    3.304023   -0.506843
     26          7           0       -2.749136   -1.155525    0.140128
     27          8           0       -3.549530   -0.837328    1.016917
     28          8           0       -2.514164   -2.307040   -0.219645
 ---------------------------------------------------------------------

 SCF Done:  E(RHF) =  -868.337575814     A.U. after   16 cycles
 E2 =    -0.2607229373D+01 EUMP2 =    -0.87094480518759D+03

 The electronic state is 1-A.
 Alpha  occ. eigenvalues --  -20.61035 -20.61010 -20.60355 -20.60266 -15.86034
 Alpha  occ. eigenvalues --  -15.85355 -11.31376 -11.30732 -11.28057 -11.27921
 Alpha  occ. eigenvalues --  -11.27816 -11.27386 -11.27199 -11.27102 -11.27099
 Alpha  occ. eigenvalues --  -11.26998 -11.26421 -11.26284  -1.60076  -1.59361
 Alpha  occ. eigenvalues --   -1.39638  -1.38923  -1.19627  -1.18943  -1.09018
 Alpha  occ. eigenvalues --   -1.08328  -1.05038  -1.04336  -0.95846  -0.95161
 Alpha  occ. eigenvalues --   -0.86430  -0.85726  -0.82683  -0.81989  -0.77718
 Alpha  occ. eigenvalues --   -0.77024  -0.72296  -0.71592  -0.71507  -0.70750
 Alpha  occ. eigenvalues --   -0.70544  -0.70061  -0.65278  -0.65033  -0.64583
 Alpha  occ. eigenvalues --   -0.64339  -0.62365  -0.61680  -0.55554  -0.54873
 Alpha  occ. eigenvalues --   -0.53764  -0.53112  -0.52422  -0.52302  -0.49050
 Alpha  occ. eigenvalues --   -0.49035  -0.48364  -0.48318  -0.45117  -0.44320
 Alpha  occ. eigenvalues --   -0.37808  -0.37274  -0.36365  -0.35535
 Alpha virt. eigenvalues --    0.04793   0.05510   0.10611   0.12145   0.16248
 Alpha virt. eigenvalues --    0.16982   0.21063   0.21835   0.26858   0.27726
 Alpha virt. eigenvalues --    0.28006   0.28720   0.30682   0.31302   0.32245

 Mulliken charges:
               1
     1  C   -0.173425
     2  C   -0.223923
     3  C   -0.173940
     4  C    0.166675
     5  C   -0.171463
     6  C   -0.221902
     7  H    0.225597
     8  H    0.227211
     9  H    0.284469
    10  H    0.273023
    11  H    0.221884
    12  N    0.489129
    13  O   -0.463455
    14  O   -0.457510
    15  C   -0.175853
    16  C   -0.215683
    17  C   -0.177019
    18  C    0.161419
    19  C   -0.164971
    20  C   -0.214933
    21  H    0.222107
    22  H    0.218433
    23  H    0.268562
    24  H    0.280624
    25  H    0.226627
    26  N    0.491894
    27  O   -0.452051
    28  O   -0.471529
 Sum of Mulliken charges =  -0.00000

 Dipole moment (field-independent basis, Debye):
    X=              5.6160    Y=              1.6225    Z=             -5.4480  Tot=              7.9907
 Quadrupole moment (field-independent basis, Debye-Ang):
   XX=           -102.8251   YY=            -99.7830   ZZ=           -107.6583
   XY=            -11.9517   XZ=             -2.2970   YZ=             -2.2807

 Normal termination of Gaussian 16 at Wed May  5 16:35:20 2021.
