 Gaussian 16, Revision A.03,
 Gaussian 16:  EM64L-G16RevA.03 25-Dec-2016

 -------------
 #p 6-31g* mp2
 -------------

 ------------------------------------------------------
 Input file generated by CHIRIPA (05-May-2021 14:53:17)
 ------------------------------------------------------
 Symbolic Z-matrix:
 Charge =  0 Multiplicity = 1

                         Standard orientation:
 ---------------------------------------------------------------------
 Center     Atomic      Atomic             Coordinates (Angstroms)
 Number     Number       Type             X           Y           Z
 ---------------------------------------------------------------------
      1          6           0        5.432253   -0.440641    0.067454
      2          6           0        6.577555    0.470763   -0.374825
      3          6           0        7.944599   -0.027213    0.095288
      4          1           0        5.437999   -0.520679    1.163130
      5          1           0        5.607996   -1.453422   -0.320855
      6          1           0        6.398997    1.481848    0.013042
      7          1           0        6.568965    0.548793   -1.469564
      8          1           0        8.148519   -1.026356   -0.303122
      9          1           0        7.977586   -0.088001    1.187908
     10          1           0        8.748854    0.639125   -0.231861
     11          6           0        4.059266    0.043962   -0.394924
     12          6           0        2.913964   -0.867442    0.047355
     13          6           0        1.546920   -0.369466   -0.422758
     14          1           0        3.883523    1.056743   -0.006615
     15          1           0        4.053520    0.124000   -1.490600
     16          1           0        2.922554   -0.945472    1.142094
     17          1           0        3.092522   -1.878527   -0.340512
     18          1           0        1.513933   -0.308678   -1.515378
     19          1           0        1.343000    0.629677   -0.024348
     20          1           0        0.742665   -1.035804   -0.095609
     21          6           0       -1.529646    1.231646    0.808406
     22          6           0       -2.515413    1.989929    0.168255
     23          6           0       -3.725978    1.403823   -0.213266
     24          6           0       -3.918183    0.050863    0.062131
     25          6           0       -2.955397   -0.731123    0.698394
     26          6           0       -1.752392   -0.124070    1.070970
     27          1           0       -0.592186    1.695084    1.101306
     28          1           0       -2.345174    3.043002   -0.036931
     29          1           0       -4.506205    1.967486   -0.710204
     30          1           0       -3.154064   -1.778708    0.889486
     31          1           0       -0.988623   -0.715412    1.567977
     32          7           0       -5.195753   -0.580711   -0.337033
     33          8           0       -5.340631   -1.774504   -0.083055
     34          8           0       -6.028044    0.130015   -0.896318
 ---------------------------------------------------------------------

 SCF Done:  E(RHF) =  -669.533817495     A.U. after   15 cycles
 E2 =    -0.2092381254D+01 EUMP2 =    -0.67162619874964D+03

 The electronic state is 1-A.
 Alpha  occ. eigenvalues --  -20.60724 -20.60718 -15.85777 -11.31132 -11.27706
 Alpha  occ. eigenvalues --  -11.27697 -11.27425 -11.26716 -11.26685 -11.22386
 Alpha  occ. eigenvalues --  -11.22074 -11.22060 -11.21993 -11.21916 -11.21465
 Alpha  occ. eigenvalues --   -1.59799  -1.39353  -1.19310  -1.09068  -1.08705
 Alpha  occ. eigenvalues --   -1.04722  -1.04179  -0.96650  -0.95537  -0.87677
 Alpha  occ. eigenvalues --   -0.86103  -0.82381  -0.80254  -0.78855  -0.77426
 Alpha  occ. eigenvalues --   -0.71997  -0.71123  -0.70439  -0.65704  -0.64963
 Alpha  occ. eigenvalues --   -0.64762  -0.62117  -0.61572  -0.60001  -0.58250
 Alpha  occ. eigenvalues --   -0.56003  -0.55183  -0.53582  -0.53103  -0.52872
 Alpha  occ. eigenvalues --   -0.52644  -0.50563  -0.48766  -0.48751  -0.48540
 Alpha  occ. eigenvalues --   -0.47279  -0.46399  -0.46313  -0.44762  -0.44426
 Alpha  occ. eigenvalues --   -0.37228  -0.36291
 Alpha virt. eigenvalues --    0.05092   0.11276   0.16482   0.20110   0.22564
 Alpha virt. eigenvalues --    0.24032   0.25543   0.26254   0.26668   0.27430
 Alpha virt. eigenvalues --    0.29180   0.29921   0.31235   0.31635   0.32459

 Mulliken charges:
               1
     1  C   -0.298622
     2  C   -0.299995
     3  C   -0.476014
     4  H    0.149526
     5  H    0.151182
     6  H    0.151505
     7  H    0.152936
     8  H    0.156150
     9  H    0.155374
    10  H    0.161482
    11  C   -0.298368
    12  C   -0.300966
    13  C   -0.476715
    14  H    0.147237
    15  H    0.151887
    16  H    0.148958
    17  H    0.155627
    18  H    0.161745
    19  H    0.145127
    20  H    0.159843
    21  C   -0.167123
    22  C   -0.219747
    23  C   -0.170779
    24  C    0.158522
    25  C   -0.172999
    26  C   -0.216172
    27  H    0.225766
    28  H    0.223120
    29  H    0.275374
    30  H    0.275201
    31  H    0.224118
    32  N    0.488115
    33  O   -0.460662
    34  O   -0.460631
 Sum of Mulliken charges =  -0.00000

 Dipole moment (field-independent basis, Debye):
    X=              4.6457    Y=              2.2022    Z=              1.3401  Tot=              5.3130
 Quadrupole moment (field-independent basis, Debye-Ang):
   XX=           -130.9342   YY=            -90.6450   ZZ=            -93.9218
   XY=            -10.0653   XZ=             -5.1024   YZ=             -1.1052

 Normal termination of Gaussian 16 at Wed May  5 23:36:51 2021.
