 Gaussian 16, Revision A.03,
 Gaussian 16:  EM64L-G16RevA.03 25-Dec-2016

 -------------
 #p 6-31g* mp2
 -------------

 ------------------------------------------------------
 Input file generated by CHIRIPA (05-May-2021 14:53:15)
 ------------------------------------------------------
 Symbolic Z-matrix:
 Charge =  0 Multiplicity = 1

                         Standard orientation:
 ---------------------------------------------------------------------
 Center     Atomic      Atomic             Coordinates (Angstroms)
 Number     Number       Type             X           Y           Z
 ---------------------------------------------------------------------
      1          6           0       -2.634165   -0.605731   -0.053189
      2          6           0       -3.523988   -1.683624   -0.673145
      3          6           0       -3.212735   -3.083769   -0.143514
      4          1           0       -1.581508   -0.849024   -0.252356
      5          1           0       -2.757476   -0.621580    1.038570
      6          1           0       -3.400079   -1.664822   -1.763516
      7          1           0       -4.574657   -1.437635   -0.472643
      8          1           0       -3.354803   -3.125713    0.941225
      9          1           0       -2.173551   -3.354191   -0.356982
     10          1           0       -3.860392   -3.838803   -0.599940
     11          6           0       -2.933314    0.799390   -0.572683
     12          6           0       -2.043491    1.877283    0.047273
     13          6           0       -2.354744    3.277428   -0.482358
     14          1           0       -2.810003    0.815239   -1.664442
     15          1           0       -3.985971    1.042683   -0.373516
     16          1           0       -0.992822    1.631294   -0.153229
     17          1           0       -2.167400    1.858482    1.137644
     18          1           0       -3.393928    3.547850   -0.268890
     19          1           0       -2.212676    3.319372   -1.567097
     20          1           0       -1.707087    4.032462   -0.025932
     21          6           0        1.030886    0.182301    2.478503
     22          6           0        1.168898    1.286555    1.631098
     23          6           0        1.800944    1.155281    0.391004
     24          6           0        2.285385   -0.100586    0.028504
     25          6           0        2.163205   -1.219661    0.850716
     26          6           0        1.527605   -1.065084    2.086300
     27          1           0        0.538516    0.293329    3.440086
     28          1           0        0.784106    2.256499    1.933075
     29          1           0        1.921310    1.993499   -0.284510
     30          1           0        2.556971   -2.173814    0.522148
     31          1           0        1.421840   -1.924408    2.742363
     32          7           0        2.956387   -0.251895   -1.281940
     33          8           0        3.374580   -1.369066   -1.578049
     34          8           0        3.051418    0.749545   -1.988143
 ---------------------------------------------------------------------

 SCF Done:  E(RHF) =  -669.534349397     A.U. after   15 cycles
 E2 =    -0.2093924840D+01 EUMP2 =    -0.67162827423733D+03

 The electronic state is 1-A.
 Alpha  occ. eigenvalues --  -20.60830 -20.60825 -15.85883 -11.31265 -11.27793
 Alpha  occ. eigenvalues --  -11.27776 -11.27510 -11.26833 -11.26798 -11.21886
 Alpha  occ. eigenvalues --  -11.21775 -11.21632 -11.21568 -11.21459 -11.21282
 Alpha  occ. eigenvalues --   -1.59906  -1.39459  -1.19422  -1.08816  -1.08670
 Alpha  occ. eigenvalues --   -1.04834  -1.03802  -0.96256  -0.95645  -0.87270
 Alpha  occ. eigenvalues --   -0.86212  -0.82486  -0.79886  -0.78505  -0.77515
 Alpha  occ. eigenvalues --   -0.72098  -0.71232  -0.70509  -0.65327  -0.65056
 Alpha  occ. eigenvalues --   -0.64814  -0.62176  -0.61204  -0.59645  -0.57877
 Alpha  occ. eigenvalues --   -0.55533  -0.55302  -0.53295  -0.52912  -0.52888
 Alpha  occ. eigenvalues --   -0.52677  -0.50188  -0.48859  -0.48855  -0.48199
 Alpha  occ. eigenvalues --   -0.46913  -0.46018  -0.45924  -0.44859  -0.44050
 Alpha  occ. eigenvalues --   -0.37376  -0.36283
 Alpha virt. eigenvalues --    0.04973   0.11170   0.16430   0.20745   0.22759
 Alpha virt. eigenvalues --    0.23914   0.26221   0.26510   0.27225   0.28261
 Alpha virt. eigenvalues --    0.28573   0.30358   0.31115   0.31804   0.32047

 Mulliken charges:
               1
     1  C   -0.298488
     2  C   -0.300018
     3  C   -0.475655
     4  H    0.153033
     5  H    0.144539
     6  H    0.154748
     7  H    0.151623
     8  H    0.152119
     9  H    0.155758
    10  H    0.161677
    11  C   -0.298273
    12  C   -0.305251
    13  C   -0.475731
    14  H    0.152871
    15  H    0.149127
    16  H    0.159471
    17  H    0.143279
    18  H    0.156420
    19  H    0.159620
    20  H    0.153732
    21  C   -0.170967
    22  C   -0.211706
    23  C   -0.175790
    24  C    0.159217
    25  C   -0.172707
    26  C   -0.217188
    27  H    0.225676
    28  H    0.225647
    29  H    0.276075
    30  H    0.275674
    31  H    0.223983
    32  N    0.487980
    33  O   -0.460163
    34  O   -0.460330
 Sum of Mulliken charges =  -0.00000

 Dipole moment (field-independent basis, Debye):
    X=             -2.3250    Y=              0.4862    Z=              4.5797  Tot=              5.1591
 Quadrupole moment (field-independent basis, Debye-Ang):
   XX=           -105.9893   YY=            -91.5337   ZZ=            -94.3454
   XY=              0.7590   XZ=             10.4483   YZ=             -1.1327

 Normal termination of Gaussian 16 at Wed May  5 23:30:44 2021.
