 Gaussian 16, Revision A.03,
 Gaussian 16:  EM64L-G16RevA.03 25-Dec-2016

 -------------
 #p 6-31g* mp2
 -------------

 ------------------------------------------------------
 Input file generated by CHIRIPA (05-May-2021 14:57:25)
 ------------------------------------------------------
 Symbolic Z-matrix:
 Charge =  0 Multiplicity = 1

                         Standard orientation:
 ---------------------------------------------------------------------
 Center     Atomic      Atomic             Coordinates (Angstroms)
 Number     Number       Type             X           Y           Z
 ---------------------------------------------------------------------
      1          6           0        2.632203    2.363513    0.859921
      2          6           0        2.009296    1.882512   -0.296430
      3          6           0        2.236792    0.574208   -0.733620
      4          6           0        3.096998   -0.229386    0.013087
      5          6           0        3.732449    0.220831    1.169286
      6          6           0        3.490279    1.532603    1.587804
      7          1           0        2.449779    3.381182    1.192288
      8          1           0        1.342415    2.525564   -0.863702
      9          1           0        1.767647    0.176231   -1.625212
     10          1           0        4.392080   -0.443840    1.713819
     11          1           0        3.975408    1.903471    2.486220
     12          7           0        3.345605   -1.616264   -0.439863
     13          8           0        4.107795   -2.304270    0.235675
     14          8           0        2.773566   -1.989033   -1.461847
     15          6           0       -2.064960    2.062705   -1.151840
     16          6           0       -1.539830    0.800652   -1.448455
     17          6           0       -2.081036   -0.348650   -0.864717
     18          6           0       -3.151836   -0.198524    0.015135
     19          6           0       -3.697071    1.045034    0.330688
     20          6           0       -3.140009    2.180661   -0.264779
     21          1           0       -1.638380    2.950200   -1.609857
     22          1           0       -0.704961    0.706031   -2.136993
     23          1           0       -1.693941   -1.337918   -1.076673
     24          1           0       -4.529601    1.107581    1.020906
     25          1           0       -3.549870    3.159506   -0.032572
     26          7           0       -3.733180   -1.408000    0.639320
     27          8           0       -4.676312   -1.248913    1.411221
     28          8           0       -3.234697   -2.492173    0.344837
 ---------------------------------------------------------------------

 SCF Done:  E(RHF) =  -868.335992405     A.U. after   16 cycles
 E2 =    -0.2601319489D+01 EUMP2 =    -0.87093731189401D+03

 The electronic state is 1-A.
 Alpha  occ. eigenvalues --  -20.61186 -20.61160 -20.60937 -20.60917 -15.86234
 Alpha  occ. eigenvalues --  -15.85990 -11.31698 -11.31534 -11.28378 -11.28211
 Alpha  occ. eigenvalues --  -11.28136 -11.28100 -11.28027 -11.28017 -11.27397
 Alpha  occ. eigenvalues --  -11.27287 -11.27248 -11.27218  -1.60245  -1.60003
 Alpha  occ. eigenvalues --   -1.39800  -1.39549  -1.19876  -1.19747  -1.09246
 Alpha  occ. eigenvalues --   -1.09138  -1.05335  -1.05155  -0.96071  -0.95929
 Alpha  occ. eigenvalues --   -0.86704  -0.86594  -0.82922  -0.82749  -0.77993
 Alpha  occ. eigenvalues --   -0.77714  -0.72451  -0.72205  -0.71566  -0.71329
 Alpha  occ. eigenvalues --   -0.71008  -0.70897  -0.65567  -0.65457  -0.65300
 Alpha  occ. eigenvalues --   -0.65219  -0.62824  -0.62348  -0.55796  -0.55756
 Alpha  occ. eigenvalues --   -0.53715  -0.53514  -0.53351  -0.53218  -0.49217
 Alpha  occ. eigenvalues --   -0.49199  -0.48984  -0.48944  -0.45184  -0.44914
 Alpha  occ. eigenvalues --   -0.37912  -0.37766  -0.37102  -0.36477
 Alpha virt. eigenvalues --    0.04559   0.04804   0.10653   0.10880   0.16030
 Alpha virt. eigenvalues --    0.16237   0.18311   0.22212   0.24661   0.25509
 Alpha virt. eigenvalues --    0.28159   0.29196   0.30486   0.31179   0.33019

 Mulliken charges:
               1
     1  C   -0.170884
     2  C   -0.212390
     3  C   -0.172404
     4  C    0.160465
     5  C   -0.169574
     6  C   -0.217683
     7  H    0.225737
     8  H    0.214064
     9  H    0.268030
    10  H    0.278088
    11  H    0.225755
    12  N    0.488536
    13  O   -0.456492
    14  O   -0.462612
    15  C   -0.174103
    16  C   -0.218447
    17  C   -0.170125
    18  C    0.158978
    19  C   -0.170093
    20  C   -0.218462
    21  H    0.220062
    22  H    0.218355
    23  H    0.283371
    24  H    0.276964
    25  H    0.223405
    26  N    0.487735
    27  O   -0.460344
    28  O   -0.455932
 Sum of Mulliken charges =  -0.00000

 Dipole moment (field-independent basis, Debye):
    X=              1.1835    Y=              8.9455    Z=             -0.3786  Tot=              9.0314
 Quadrupole moment (field-independent basis, Debye-Ang):
   XX=           -119.0932   YY=           -108.1216   ZZ=           -101.6616
   XY=             -1.0238   XZ=             13.2049   YZ=              1.4676

 Normal termination of Gaussian 16 at Wed May  5 19:32:55 2021.
