 Gaussian 16, Revision A.03,
 Gaussian 16:  EM64L-G16RevA.03 25-Dec-2016

 -------------
 #p 6-31g* mp2
 -------------

 ------------------------------------------------------
 Input file generated by CHIRIPA (05-May-2021 14:55:21)
 ------------------------------------------------------
 Symbolic Z-matrix:
 Charge =  0 Multiplicity = 1

                         Standard orientation:
 ---------------------------------------------------------------------
 Center     Atomic      Atomic             Coordinates (Angstroms)
 Number     Number       Type             X           Y           Z
 ---------------------------------------------------------------------
      1          6           0       -0.973832   -2.512602    0.216024
      2          6           0       -2.279411   -2.519850    0.717954
      3          6           0       -3.106023   -1.403104    0.562593
      4          6           0       -2.592334   -0.291109   -0.102901
      5          6           0       -1.296008   -0.253331   -0.614176
      6          6           0       -0.487156   -1.381359   -0.447269
      7          1           0       -0.338598   -3.384499    0.341197
      8          1           0       -2.660034   -3.396992    1.233505
      9          1           0       -4.120689   -1.381754    0.941295
     10          1           0       -0.944653    0.635754   -1.123583
     11          1           0        0.526362   -1.372904   -0.838109
     12          7           0       -3.458030    0.897112   -0.273486
     13          8           0       -2.981772    1.864365   -0.863602
     14          8           0       -4.596430    0.838689    0.186156
     15          6           0        3.144811    1.370968    0.251670
     16          6           0        1.754452    2.007274    0.253369
     17          6           0        1.789404    3.503349    0.566946
     18          1           0        3.615429    1.530804    1.231423
     19          1           0        3.775448    1.886494   -0.485842
     20          1           0        1.126212    1.489799    0.989676
     21          1           0        1.287013    1.845739   -0.726439
     22          1           0        2.393462    4.038077   -0.173177
     23          1           0        2.231747    3.680114    1.552688
     24          1           0        0.784930    3.937947    0.562966
     25          6           0        3.126310   -0.124395   -0.060218
     26          6           0        4.516668   -0.760702   -0.061916
     27          6           0        4.481716   -2.256777   -0.375494
     28          1           0        2.495672   -0.639921    0.677295
     29          1           0        2.655691   -0.284231   -1.039970
     30          1           0        4.984108   -0.599166    0.917890
     31          1           0        5.144909   -0.243226   -0.798224
     32          1           0        4.039374   -2.433542   -1.361236
     33          1           0        3.877659   -2.791504    0.364629
     34          1           0        5.486191   -2.691374   -0.371514
 ---------------------------------------------------------------------

 SCF Done:  E(RHF) =  -669.534849284     A.U. after   15 cycles
 E2 =    -0.2093322000D+01 EUMP2 =    -0.67162817128409D+03

 The electronic state is 1-A.
 Alpha  occ. eigenvalues --  -20.60699 -20.60694 -15.85749 -11.31076 -11.27650
 Alpha  occ. eigenvalues --  -11.27597 -11.27370 -11.26667 -11.26541 -11.22395
 Alpha  occ. eigenvalues --  -11.22321 -11.22107 -11.21988 -11.21942 -11.21232
 Alpha  occ. eigenvalues --   -1.59775  -1.39329  -1.19245  -1.09164  -1.08645
 Alpha  occ. eigenvalues --   -1.04637  -1.04145  -0.96600  -0.95489  -0.87613
 Alpha  occ. eigenvalues --   -0.86038  -0.82333  -0.80252  -0.79066  -0.77326
 Alpha  occ. eigenvalues --   -0.71969  -0.71097  -0.70358  -0.65784  -0.64890
 Alpha  occ. eigenvalues --   -0.64658  -0.62006  -0.61524  -0.59974  -0.58212
 Alpha  occ. eigenvalues --   -0.55896  -0.55152  -0.53253  -0.53150  -0.52965
 Alpha  occ. eigenvalues --   -0.52604  -0.50537  -0.48747  -0.48729  -0.48493
 Alpha  occ. eigenvalues --   -0.47287  -0.46490  -0.46413  -0.44742  -0.44418
 Alpha  occ. eigenvalues --   -0.37231  -0.36198
 Alpha virt. eigenvalues --    0.05135   0.11335   0.16589   0.20164   0.22722
 Alpha virt. eigenvalues --    0.23170   0.24631   0.26301   0.27261   0.27991
 Alpha virt. eigenvalues --    0.29133   0.30395   0.31166   0.31496   0.31978

 Mulliken charges:
               1
     1  C   -0.174068
     2  C   -0.218558
     3  C   -0.171348
     4  C    0.157900
     5  C   -0.174932
     6  C   -0.223017
     7  H    0.225518
     8  H    0.222761
     9  H    0.275025
    10  H    0.278855
    11  H    0.233474
    12  N    0.488055
    13  O   -0.460951
    14  O   -0.460843
    15  C   -0.297345
    16  C   -0.304308
    17  C   -0.477297
    18  H    0.153047
    19  H    0.152215
    20  H    0.156152
    21  H    0.146026
    22  H    0.155876
    23  H    0.155750
    24  H    0.169837
    25  C   -0.305500
    26  C   -0.298774
    27  C   -0.477450
    28  H    0.150596
    29  H    0.142684
    30  H    0.155537
    31  H    0.155388
    32  H    0.153016
    33  H    0.151698
    34  H    0.164981
 Sum of Mulliken charges =  -0.00000

 Dipole moment (field-independent basis, Debye):
    X=              3.2430    Y=             -4.0293    Z=              0.6807  Tot=              5.2168
 Quadrupole moment (field-independent basis, Debye-Ang):
   XX=           -107.6349   YY=            -92.4489   ZZ=            -93.4695
   XY=             12.3087   XZ=             -3.8472   YZ=             -1.4003

 Normal termination of Gaussian 16 at Wed May  5 15:58:33 2021.
