 Gaussian 16, Revision A.03,
 Gaussian 16:  EM64L-G16RevA.03 25-Dec-2016

 -------------
 #p 6-31g* mp2
 -------------

 ------------------------------------------------------
 Input file generated by CHIRIPA (05-May-2021 14:51:08)
 ------------------------------------------------------
 Symbolic Z-matrix:
 Charge =  0 Multiplicity = 1

                         Standard orientation:
 ---------------------------------------------------------------------
 Center     Atomic      Atomic             Coordinates (Angstroms)
 Number     Number       Type             X           Y           Z
 ---------------------------------------------------------------------
      1          6           0        2.366013    1.567351   -0.053547
      2          6           0        1.177935    2.322687    0.543046
      3          6           0        1.435834    3.824367    0.670485
      4          1           0        3.252208    1.736743    0.573280
      5          1           0        2.598226    1.985690   -1.042720
      6          1           0        0.947156    1.902133    1.530209
      7          1           0        0.294421    2.151321   -0.085168
      8          1           0        1.644452    4.264007   -0.310227
      9          1           0        2.300896    4.013402    1.314328
     10          1           0        0.573712    4.344816    1.099132
     11          6           0        2.123415    0.065021   -0.187268
     12          6           0        3.311494   -0.690315   -0.783861
     13          6           0        3.053595   -2.191995   -0.911300
     14          1           0        1.891203   -0.353318    0.801905
     15          1           0        1.237221   -0.104371   -0.814095
     16          1           0        4.195008   -0.518950   -0.155647
     17          1           0        3.542273   -0.269761   -1.771024
     18          1           0        2.188533   -2.381030   -1.555143
     19          1           0        2.844977   -2.631635    0.069412
     20          1           0        3.915717   -2.712444   -1.339947
     21          6           0       -2.649120   -0.483234   -0.435498
     22          6           0       -3.530254    0.664159    0.059557
     23          6           0       -4.333136    1.320219   -1.064169
     24          1           0       -1.963020   -0.104370   -1.205351
     25          1           0       -3.281471   -1.237389   -0.924148
     26          1           0       -2.896591    1.415270    0.548351
     27          1           0       -4.214205    0.282560    0.828457
     28          1           0       -4.988865    0.588472   -1.547042
     29          1           0       -3.663764    1.727618   -1.828740
     30          1           0       -4.956018    2.137788   -0.688061
     31          6           0       -1.840309   -1.149138    0.676313
     32          6           0       -0.959175   -2.296530    0.181258
     33          6           0       -0.156293   -2.952591    1.304984
     34          1           0       -1.207957   -0.394984    1.164962
     35          1           0       -2.526409   -1.528001    1.446166
     36          1           0       -0.275223   -1.914932   -0.587642
     37          1           0       -1.592837   -3.047642   -0.307536
     38          1           0       -0.825665   -3.359990    2.069554
     39          1           0        0.499436   -2.220844    1.787857
     40          1           0        0.466589   -3.770161    0.928876
 ---------------------------------------------------------------------

 SCF Done:  E(RHF) =  -470.732041161     A.U. after   11 cycles
 E2 =    -0.1585943970D+01 EUMP2 =    -0.47231798513030D+03

 The electronic state is 1-A.
 Alpha  occ. eigenvalues --  -11.21708 -11.21648 -11.21574 -11.21476 -11.21455
 Alpha  occ. eigenvalues --  -11.21414 -11.21360 -11.21265 -11.21144 -11.21061
 Alpha  occ. eigenvalues --  -11.21059 -11.20980  -1.08545  -1.08338  -1.03628
 Alpha  occ. eigenvalues --   -1.03439  -0.96048  -0.95919  -0.87074  -0.86931
 Alpha  occ. eigenvalues --   -0.79674  -0.79537  -0.78367  -0.78180  -0.65198
 Alpha  occ. eigenvalues --   -0.64959  -0.61008  -0.60924  -0.59433  -0.59259
 Alpha  occ. eigenvalues --   -0.57751  -0.57436  -0.55338  -0.55216  -0.52730
 Alpha  occ. eigenvalues --   -0.52697  -0.52493  -0.52245  -0.49996  -0.49895
 Alpha  occ. eigenvalues --   -0.48039  -0.47817  -0.46936  -0.46508  -0.46138
 Alpha  occ. eigenvalues --   -0.45943  -0.45402  -0.45183  -0.43849  -0.43716
 Alpha virt. eigenvalues --    0.19791   0.21886   0.23559   0.23853   0.25240
 Alpha virt. eigenvalues --    0.26008   0.26446   0.28122   0.29148   0.29812
 Alpha virt. eigenvalues --    0.30613   0.30779   0.31724   0.31862   0.32564

 Mulliken charges:
               1
     1  C   -0.297530
     2  C   -0.302148
     3  C   -0.475763
     4  H    0.149986
     5  H    0.149712
     6  H    0.152187
     7  H    0.152927
     8  H    0.155502
     9  H    0.155582
    10  H    0.160559
    11  C   -0.305648
    12  C   -0.299731
    13  C   -0.480137
    14  H    0.153497
    15  H    0.152996
    16  H    0.151976
    17  H    0.151762
    18  H    0.156406
    19  H    0.159969
    20  H    0.160037
    21  C   -0.298567
    22  C   -0.300696
    23  C   -0.475557
    24  H    0.148408
    25  H    0.149494
    26  H    0.153009
    27  H    0.152009
    28  H    0.155161
    29  H    0.154661
    30  H    0.160210
    31  C   -0.301287
    32  C   -0.304457
    33  C   -0.478034
    34  H    0.153133
    35  H    0.149206
    36  H    0.158523
    37  H    0.151059
    38  H    0.154307
    39  H    0.155925
    40  H    0.161350
 Sum of Mulliken charges =  -0.00000

 Dipole moment (field-independent basis, Debye):
    X=              0.0563    Y=              0.0132    Z=              0.0052  Tot=              0.0581
 Quadrupole moment (field-independent basis, Debye-Ang):
   XX=            -84.5022   YY=            -85.8924   ZZ=            -84.4228
   XY=              0.7344   XZ=             -0.2015   YZ=              0.0246

 Normal termination of Gaussian 16 at Wed May  5 15:06:20 2021.
