 Gaussian 16, Revision A.03,
 Gaussian 16:  EM64L-G16RevA.03 25-Dec-2016

 -------------
 #p 6-31g* mp2
 -------------

 ------------------------------------------------------
 Input file generated by CHIRIPA (05-May-2021 14:55:23)
 ------------------------------------------------------
 Symbolic Z-matrix:
 Charge =  0 Multiplicity = 1

                         Standard orientation:
 ---------------------------------------------------------------------
 Center     Atomic      Atomic             Coordinates (Angstroms)
 Number     Number       Type             X           Y           Z
 ---------------------------------------------------------------------
      1          6           0        5.653932   -1.029512    0.351664
      2          6           0        5.503668    0.043659   -0.532783
      3          6           0        4.234080    0.551891   -0.823290
      4          6           0        3.131524   -0.039727   -0.208758
      5          6           0        3.248695   -1.109961    0.676770
      6          6           0        4.527951   -1.601887    0.952558
      7          1           0        6.643934   -1.417985    0.571620
      8          1           0        6.376335    0.490148   -1.000911
      9          1           0        4.089036    1.381814   -1.504178
     10          1           0        2.359980   -1.534241    1.127980
     11          1           0        4.641639   -2.435419    1.639832
     12          7           0        1.782350    0.489685   -0.508514
     13          8           0        0.826867   -0.049094    0.045928
     14          8           0        1.705898    1.433392   -1.292228
     15          6           0       -4.617323   -0.528836    0.188647
     16          6           0       -5.909435   -0.574469   -0.627654
     17          6           0       -6.546497   -1.964252   -0.648877
     18          1           0       -3.903843   -1.254526   -0.225196
     19          1           0       -4.830084   -0.851425    1.217269
     20          1           0       -5.694571   -0.250567   -1.654073
     21          1           0       -6.619852    0.151550   -0.211938
     22          1           0       -6.789086   -2.292387    0.367036
     23          1           0       -5.858548   -2.696788   -1.083294
     24          1           0       -7.468875   -1.974124   -1.237926
     25          6           0       -3.968621    0.853905    0.219300
     26          6           0       -2.676508    0.899538    1.035601
     27          6           0       -2.039447    2.289321    1.056824
     28          1           0       -3.755859    1.176494   -0.809322
     29          1           0       -4.682101    1.579595    0.633144
     30          1           0       -1.966091    0.173520    0.619885
     31          1           0       -2.891372    0.575637    2.062021
     32          1           0       -2.727395    3.021857    1.491241
     33          1           0       -1.796857    2.617455    0.040911
     34          1           0       -1.117067    2.299194    1.645873
 ---------------------------------------------------------------------

 SCF Done:  E(RHF) =  -669.536276081     A.U. after   15 cycles
 E2 =    -0.2091176441D+01 EUMP2 =    -0.67162745252152D+03

 The electronic state is 1-A.
 Alpha  occ. eigenvalues --  -20.60996 -20.60985 -15.86022 -11.31325 -11.27885
 Alpha  occ. eigenvalues --  -11.27882 -11.27620 -11.26889 -11.26879 -11.20795
 Alpha  occ. eigenvalues --  -11.20426 -11.20375 -11.20107 -11.19883 -11.19419
 Alpha  occ. eigenvalues --   -1.60047  -1.39605  -1.19491  -1.08899  -1.07271
 Alpha  occ. eigenvalues --   -1.04884  -1.02314  -0.95744  -0.94803  -0.86285
 Alpha  occ. eigenvalues --   -0.85833  -0.82579  -0.78442  -0.77634  -0.77019
 Alpha  occ. eigenvalues --   -0.72246  -0.71360  -0.70599  -0.65148  -0.64888
 Alpha  occ. eigenvalues --   -0.63898  -0.62231  -0.59694  -0.58233  -0.56390
 Alpha  occ. eigenvalues --   -0.55389  -0.54098  -0.53217  -0.52975  -0.51517
 Alpha  occ. eigenvalues --   -0.51234  -0.48997  -0.48992  -0.48762  -0.46743
 Alpha  occ. eigenvalues --   -0.45469  -0.45017  -0.44580  -0.44398  -0.42594
 Alpha  occ. eigenvalues --   -0.37469  -0.36485
 Alpha virt. eigenvalues --    0.04894   0.11171   0.16396   0.21300   0.23959
 Alpha virt. eigenvalues --    0.25551   0.27228   0.27755   0.28179   0.28690
 Alpha virt. eigenvalues --    0.29122   0.30882   0.32359   0.32583   0.32844

 Mulliken charges:
               1
     1  C   -0.170530
     2  C   -0.218614
     3  C   -0.170405
     4  C    0.157433
     5  C   -0.170841
     6  C   -0.218550
     7  H    0.226109
     8  H    0.223924
     9  H    0.275951
    10  H    0.275857
    11  H    0.223959
    12  N    0.492356
    13  O   -0.463349
    14  O   -0.458860
    15  C   -0.297555
    16  C   -0.298779
    17  C   -0.475010
    18  H    0.150754
    19  H    0.146113
    20  H    0.151706
    21  H    0.150057
    22  H    0.153430
    23  H    0.154326
    24  H    0.157695
    25  C   -0.297850
    26  C   -0.306821
    27  C   -0.470378
    28  H    0.150613
    29  H    0.144096
    30  H    0.176809
    31  H    0.141753
    32  H    0.143986
    33  H    0.162073
    34  H    0.158543
 Sum of Mulliken charges =  -0.00000

 Dipole moment (field-independent basis, Debye):
    X=              5.1688    Y=             -1.9084    Z=              0.9456  Tot=              5.5905
 Quadrupole moment (field-independent basis, Debye-Ang):
   XX=            -66.2155   YY=            -93.9284   ZZ=            -93.4614
   XY=             -5.1676   XZ=              0.7462   YZ=             -2.3559

 Normal termination of Gaussian 16 at Thu May  6 06:17:47 2021.
