 Gaussian 16, Revision A.03,
 Gaussian 16:  EM64L-G16RevA.03 25-Dec-2016

 -------------
 #p 6-31g* mp2
 -------------

 ------------------------------------------------------
 Input file generated by CHIRIPA (05-May-2021 14:51:12)
 ------------------------------------------------------
 Symbolic Z-matrix:
 Charge =  0 Multiplicity = 1

                         Standard orientation:
 ---------------------------------------------------------------------
 Center     Atomic      Atomic             Coordinates (Angstroms)
 Number     Number       Type             X           Y           Z
 ---------------------------------------------------------------------
      1          6           0       -3.482657   -0.562723   -0.002213
      2          6           0       -2.274205   -1.471463   -0.229859
      3          6           0       -2.628011   -2.956774   -0.149448
      4          1           0       -3.919950   -0.784244    0.980970
      5          1           0       -4.254857   -0.797547   -0.747839
      6          1           0       -1.503965   -1.234044    0.515110
      7          1           0       -1.839623   -1.247619   -1.212533
      8          1           0       -3.378851   -3.215286   -0.903113
      9          1           0       -3.041285   -3.201634    0.834345
     10          1           0       -1.749587   -3.588258   -0.315153
     11          6           0       -3.144912    0.925121   -0.079523
     12          6           0       -4.353363    1.833861    0.148124
     13          6           0       -3.999558    3.319172    0.067713
     14          1           0       -2.372712    1.159946    0.666104
     15          1           0       -2.707619    1.146642   -1.062705
     16          1           0       -4.787945    1.610018    1.130798
     17          1           0       -5.123604    1.596443   -0.596845
     18          1           0       -3.586284    3.564032   -0.916080
     19          1           0       -3.248718    3.577685    0.821378
     20          1           0       -4.877982    3.950656    0.233418
     21          6           0        2.878407   -0.710382   -0.296541
     22          6           0        2.116279   -1.590561    0.694635
     23          6           0        1.249714   -2.644375    0.004465
     24          1           0        2.160601   -0.216116   -0.965421
     25          1           0        3.509897   -1.347205   -0.931418
     26          1           0        1.487460   -0.952139    1.328371
     27          1           0        2.835971   -2.082640    1.361357
     28          1           0        1.865949   -3.305140   -0.613796
     29          1           0        0.509776   -2.168216   -0.646969
     30          1           0        0.713816   -3.262403    0.731593
     31          6           0        3.749162    0.347983    0.378276
     32          6           0        4.511290    1.228163   -0.612900
     33          6           0        5.377855    2.281977    0.077271
     34          1           0        3.117672    0.984807    1.013153
     35          1           0        4.466968   -0.146282    1.047156
     36          1           0        3.791597    1.720241   -1.279622
     37          1           0        5.140109    0.589741   -1.246636
     38          1           0        6.117793    1.805818    0.728703
     39          1           0        4.761620    2.942741    0.695531
     40          1           0        5.913753    2.900004   -0.649858
 ---------------------------------------------------------------------

 SCF Done:  E(RHF) =  -470.732312660     A.U. after   11 cycles
 E2 =    -0.1583634412D+01 EUMP2 =    -0.47231594707180D+03

 The electronic state is 1-A.
 Alpha  occ. eigenvalues --  -11.21620 -11.21592 -11.21586 -11.21584 -11.21418
 Alpha  occ. eigenvalues --  -11.21391 -11.21352 -11.21331 -11.21092 -11.21064
 Alpha  occ. eigenvalues --  -11.20994 -11.20953  -1.08457  -1.08398  -1.03600
 Alpha  occ. eigenvalues --   -1.03445  -0.96063  -0.95872  -0.87024  -0.86947
 Alpha  occ. eigenvalues --   -0.79669  -0.79526  -0.78287  -0.78203  -0.65108
 Alpha  occ. eigenvalues --   -0.65016  -0.61053  -0.60862  -0.59492  -0.59190
 Alpha  occ. eigenvalues --   -0.57643  -0.57562  -0.55281  -0.55152  -0.52860
 Alpha  occ. eigenvalues --   -0.52555  -0.52385  -0.52267  -0.49922  -0.49876
 Alpha  occ. eigenvalues --   -0.48016  -0.47781  -0.46642  -0.46598  -0.45854
 Alpha  occ. eigenvalues --   -0.45752  -0.45687  -0.45624  -0.43862  -0.43674
 Alpha virt. eigenvalues --    0.21467   0.23150   0.23507   0.24908   0.26032
 Alpha virt. eigenvalues --    0.26349   0.27013   0.27602   0.27968   0.29287
 Alpha virt. eigenvalues --    0.30271   0.30429   0.31244   0.31711   0.32511

 Mulliken charges:
               1
     1  C   -0.297573
     2  C   -0.303121
     3  C   -0.479460
     4  H    0.149669
     5  H    0.149521
     6  H    0.155964
     7  H    0.150378
     8  H    0.154678
     9  H    0.154523
    10  H    0.165968
    11  C   -0.298247
    12  C   -0.299620
    13  C   -0.475702
    14  H    0.148934
    15  H    0.149270
    16  H    0.152041
    17  H    0.152077
    18  H    0.155109
    19  H    0.155038
    20  H    0.160376
    21  C   -0.298510
    22  C   -0.300800
    23  C   -0.482443
    24  H    0.149995
    25  H    0.149505
    26  H    0.151551
    27  H    0.151807
    28  H    0.154228
    29  H    0.164721
    30  H    0.160317
    31  C   -0.298254
    32  C   -0.299648
    33  C   -0.475693
    34  H    0.149393
    35  H    0.149587
    36  H    0.151992
    37  H    0.151887
    38  H    0.155139
    39  H    0.155171
    40  H    0.160231
 Sum of Mulliken charges =  -0.00000

 Dipole moment (field-independent basis, Debye):
    X=             -0.0091    Y=             -0.0098    Z=             -0.0081  Tot=              0.0156
 Quadrupole moment (field-independent basis, Debye-Ang):
   XX=            -84.7403   YY=            -86.2720   ZZ=            -83.9041
   XY=             -1.1398   XZ=             -0.0395   YZ=             -0.2469

 Normal termination of Gaussian 16 at Thu May  6 05:30:31 2021.
