 Gaussian 16, Revision A.03,
 Gaussian 16:  EM64L-G16RevA.03 25-Dec-2016

 -------------
 #p 6-31g* mp2
 -------------

 ------------------------------------------------------
 Input file generated by CHIRIPA (05-May-2021 14:53:15)
 ------------------------------------------------------
 Symbolic Z-matrix:
 Charge =  0 Multiplicity = 1

                         Standard orientation:
 ---------------------------------------------------------------------
 Center     Atomic      Atomic             Coordinates (Angstroms)
 Number     Number       Type             X           Y           Z
 ---------------------------------------------------------------------
      1          6           0       -3.610802    0.797935   -0.047417
      2          6           0       -2.332147    1.362145   -0.667652
      3          6           0       -2.133904    2.847697   -0.364946
      4          1           0       -4.473430    1.367661   -0.419211
      5          1           0       -3.580709    0.950612    1.040323
      6          1           0       -2.364021    1.207208   -1.753743
      7          1           0       -1.472480    0.790887   -0.294486
      8          1           0       -2.076080    3.016374    0.715242
      9          1           0       -2.972687    3.435060   -0.752307
     10          1           0       -1.213955    3.230413   -0.817806
     11          6           0       -3.822919   -0.686118   -0.341219
     12          6           0       -5.101575   -1.250329    0.279015
     13          6           0       -5.299818   -2.735880   -0.023691
     14          1           0       -3.853013   -0.838795   -1.428960
     15          1           0       -2.960291   -1.255844    0.030574
     16          1           0       -5.961242   -0.679070   -0.094150
     17          1           0       -5.069701   -1.095391    1.365107
     18          1           0       -4.461035   -3.323244    0.363670
     19          1           0       -5.357641   -2.904557   -1.103878
     20          1           0       -6.219767   -3.118596    0.429170
     21          6           0        4.696994   -1.563369   -0.765199
     22          6           0        4.304703   -1.671609    0.573050
     23          6           0        3.312161   -0.834821    1.091892
     24          6           0        2.730438    0.103240    0.240465
     25          6           0        3.099655    0.235401   -1.097258
     26          6           0        4.094280   -0.611887   -1.594621
     27          1           0        5.468834   -2.217485   -1.159905
     28          1           0        4.771042   -2.409624    1.219507
     29          1           0        2.989374   -0.897158    2.124046
     30          1           0        2.616488    0.980764   -1.717260
     31          1           0        4.396939   -0.525577   -2.634329
     32          7           0        1.678575    0.994667    0.778369
     33          8           0        1.181524    1.812935    0.007645
     34          8           0        1.371094    0.858223    1.960518
 ---------------------------------------------------------------------

 SCF Done:  E(RHF) =  -669.535870649     A.U. after   15 cycles
 E2 =    -0.2091824413D+01 EUMP2 =    -0.67162769506229D+03

 The electronic state is 1-A.
 Alpha  occ. eigenvalues --  -20.61013 -20.60993 -15.86027 -11.31327 -11.27887
 Alpha  occ. eigenvalues --  -11.27884 -11.27620 -11.26888 -11.26878 -11.20979
 Alpha  occ. eigenvalues --  -11.20609 -11.20601 -11.20294 -11.20147 -11.19320
 Alpha  occ. eigenvalues --   -1.60064  -1.39621  -1.19493  -1.08903  -1.07467
 Alpha  occ. eigenvalues --   -1.04885  -1.02465  -0.95753  -0.94915  -0.86287
 Alpha  occ. eigenvalues --   -0.85949  -0.82583  -0.78607  -0.77641  -0.77226
 Alpha  occ. eigenvalues --   -0.72261  -0.71383  -0.70602  -0.65151  -0.64889
 Alpha  occ. eigenvalues --   -0.64102  -0.62233  -0.59862  -0.58365  -0.56495
 Alpha  occ. eigenvalues --   -0.55390  -0.54230  -0.53216  -0.52976  -0.51597
 Alpha  occ. eigenvalues --   -0.51361  -0.49041  -0.48999  -0.48822  -0.46900
 Alpha  occ. eigenvalues --   -0.45700  -0.45150  -0.44750  -0.44491  -0.42724
 Alpha  occ. eigenvalues --   -0.37469  -0.36484
 Alpha virt. eigenvalues --    0.04865   0.11171   0.16357   0.21291   0.23745
 Alpha virt. eigenvalues --    0.25452   0.27226   0.27514   0.28080   0.28440
 Alpha virt. eigenvalues --    0.29110   0.30862   0.32296   0.32396   0.32578

 Mulliken charges:
               1
     1  C   -0.298264
     2  C   -0.297959
     3  C   -0.470628
     4  H    0.145564
     5  H    0.151253
     6  H    0.142205
     7  H    0.158491
     8  H    0.158483
     9  H    0.142013
    10  H    0.171374
    11  C   -0.297012
    12  C   -0.298879
    13  C   -0.475027
    14  H    0.146123
    15  H    0.147914
    16  H    0.150804
    17  H    0.152242
    18  H    0.153684
    19  H    0.153447
    20  H    0.158363
    21  C   -0.170467
    22  C   -0.218589
    23  C   -0.170645
    24  C    0.157774
    25  C   -0.170452
    26  C   -0.218534
    27  H    0.226158
    28  H    0.223931
    29  H    0.275824
    30  H    0.275863
    31  H    0.224012
    32  N    0.489906
    33  O   -0.459693
    34  O   -0.459279
 Sum of Mulliken charges =  -0.00000

 Dipole moment (field-independent basis, Debye):
    X=              4.0846    Y=             -3.0665    Z=             -1.8044  Tot=              5.4169
 Quadrupole moment (field-independent basis, Debye-Ang):
   XX=            -76.1199   YY=            -96.3356   ZZ=            -91.1726
   XY=             -9.1290   XZ=             -3.9176   YZ=             -3.4418

 Normal termination of Gaussian 16 at Wed May  5 21:53:29 2021.
