 Gaussian 16, Revision A.03,
 Gaussian 16:  EM64L-G16RevA.03 25-Dec-2016

 -------------
 #p 6-31g* mp2
 -------------

 ------------------------------------------------------
 Input file generated by CHIRIPA (05-May-2021 14:57:25)
 ------------------------------------------------------
 Symbolic Z-matrix:
 Charge =  0 Multiplicity = 1

                         Standard orientation:
 ---------------------------------------------------------------------
 Center     Atomic      Atomic             Coordinates (Angstroms)
 Number     Number       Type             X           Y           Z
 ---------------------------------------------------------------------
      1          6           0        3.974824   -1.633721   -0.142060
      2          6           0        3.857871   -1.009199    1.104060
      3          6           0        3.139246    0.182713    1.236240
      4          6           0        2.547695    0.724833    0.096300
      5          6           0        2.646241    0.126459   -1.158900
      6          6           0        3.369702   -1.064901   -1.267579
      7          1           0        4.534948   -2.559413   -0.235612
      8          1           0        4.326767   -1.448676    1.979870
      9          1           0        3.032842    0.687244    2.188891
     10          1           0        2.167764    0.588535   -2.013865
     11          1           0        3.458867   -1.547707   -2.236596
     12          7           0        1.784359    1.986365    0.223793
     13          8           0        1.272537    2.443725   -0.795765
     14          8           0        1.712332    2.493907    1.340865
     15          6           0       -4.645035    1.049990    0.078923
     16          6           0       -4.579454   -0.076061    0.906103
     17          6           0       -3.491826   -0.951112    0.829279
     18          6           0       -2.482902   -0.668400   -0.090196
     19          6           0       -2.519489    0.445250   -0.927893
     20          6           0       -3.616656    1.306599   -0.833826
     21          1           0       -5.493636    1.724429    0.145298
     22          1           0       -5.376656   -0.277849    1.615888
     23          1           0       -3.415686   -1.830154    1.457693
     24          1           0       -1.709523    0.620044   -1.625617
     25          1           0       -3.664928    2.180342   -1.477479
     26          7           0       -1.326429   -1.587525   -0.180653
     27          8           0       -0.450461   -1.316202   -0.999006
     28          8           0       -1.317853   -2.561853    0.568512
 ---------------------------------------------------------------------

 SCF Done:  E(RHF) =  -868.339785853     A.U. after   16 cycles
 E2 =    -0.2599822589D+01 EUMP2 =    -0.87093960844218D+03

 The electronic state is 1-A.
 Alpha  occ. eigenvalues --  -20.60729 -20.60722 -20.60266 -20.60237 -15.85758
 Alpha  occ. eigenvalues --  -15.85285 -11.30846 -11.30195 -11.27435 -11.27333
 Alpha  occ. eigenvalues --  -11.27114 -11.26814 -11.26747 -11.26478 -11.26399
 Alpha  occ. eigenvalues --  -11.26303 -11.25744 -11.25650  -1.59796  -1.59327
 Alpha  occ. eigenvalues --   -1.39360  -1.38895  -1.19004  -1.18355  -1.08459
 Alpha  occ. eigenvalues --   -1.07849  -1.04360  -1.03715  -0.95338  -0.94757
 Alpha  occ. eigenvalues --   -0.85781  -0.85159  -0.82182  -0.81624  -0.77255
 Alpha  occ. eigenvalues --   -0.76702  -0.72015  -0.71534  -0.71122  -0.70610
 Alpha  occ. eigenvalues --   -0.70123  -0.69531  -0.64667  -0.64370  -0.64047
 Alpha  occ. eigenvalues --   -0.63769  -0.61709  -0.61110  -0.54899  -0.54292
 Alpha  occ. eigenvalues --   -0.52713  -0.52457  -0.52016  -0.51855  -0.48758
 Alpha  occ. eigenvalues --   -0.48717  -0.48295  -0.48242  -0.44836  -0.44392
 Alpha  occ. eigenvalues --   -0.36990  -0.36301  -0.35938  -0.35208
 Alpha virt. eigenvalues --    0.05219   0.05843   0.11707   0.12403   0.16813
 Alpha virt. eigenvalues --    0.17389   0.21761   0.22364   0.27568   0.28120
 Alpha virt. eigenvalues --    0.28590   0.29346   0.31203   0.31853   0.32591

 Mulliken charges:
               1
     1  C   -0.167286
     2  C   -0.217606
     3  C   -0.171321
     4  C    0.156216
     5  C   -0.150811
     6  C   -0.211866
     7  H    0.223315
     8  H    0.219858
     9  H    0.271065
    10  H    0.270725
    11  H    0.221697
    12  N    0.488323
    13  O   -0.468903
    14  O   -0.463603
    15  C   -0.169843
    16  C   -0.218705
    17  C   -0.170977
    18  C    0.156260
    19  C   -0.167247
    20  C   -0.217203
    21  H    0.225459
    22  H    0.222063
    23  H    0.273267
    24  H    0.279306
    25  H    0.226653
    26  N    0.490037
    27  O   -0.466795
    28  O   -0.462077
 Sum of Mulliken charges =  -0.00000

 Dipole moment (field-independent basis, Debye):
    X=             -1.4679    Y=             -1.2809    Z=             -0.2761  Tot=              1.9676
 Quadrupole moment (field-independent basis, Debye-Ang):
   XX=            -71.2796   YY=           -115.4839   ZZ=            -98.0928
   XY=            -14.4879   XZ=             -2.0725   YZ=             -3.5227

 Normal termination of Gaussian 16 at Thu May  6 19:43:35 2021.
