 Gaussian 16, Revision A.03,
 Gaussian 16:  EM64L-G16RevA.03 25-Dec-2016

 -------------
 #p 6-31g* mp2
 -------------

 ------------------------------------------------------
 Input file generated by CHIRIPA (05-May-2021 14:57:26)
 ------------------------------------------------------
 Symbolic Z-matrix:
 Charge =  0 Multiplicity = 1

                         Standard orientation:
 ---------------------------------------------------------------------
 Center     Atomic      Atomic             Coordinates (Angstroms)
 Number     Number       Type             X           Y           Z
 ---------------------------------------------------------------------
      1          6           0       -2.477111   -2.267008    1.099325
      2          6           0       -2.648660   -1.196268    1.982845
      3          6           0       -2.843788    0.100307    1.497698
      4          6           0       -2.861864    0.290937    0.116893
      5          6           0       -2.693889   -0.755343   -0.788851
      6          6           0       -2.500232   -2.043522   -0.281269
      7          1           0       -2.326102   -3.270957    1.484913
      8          1           0       -2.631163   -1.366867    3.055521
      9          1           0       -2.979194    0.947349    2.159214
     10          1           0       -2.716167   -0.554062   -1.852998
     11          1           0       -2.367277   -2.873175   -0.969778
     12          7           0       -3.067658    1.659118   -0.408586
     13          8           0       -3.079501    1.800706   -1.629426
     14          8           0       -3.213221    2.564005    0.410334
     15          6           0        4.489353    1.506096    0.862294
     16          6           0        3.305815    2.007573    0.310678
     17          6           0        2.378095    1.146095   -0.282398
     18          6           0        2.667327   -0.217375   -0.306535
     19          6           0        3.837612   -0.747451    0.234523
     20          6           0        4.751012    0.132606    0.822527
     21          1           0        5.204466    2.182528    1.321041
     22          1           0        3.099968    3.073783    0.340130
     23          1           0        1.453984    1.507462   -0.716969
     24          1           0        4.015002   -1.815147    0.190073
     25          1           0        5.669340   -0.259664    1.250131
     26          7           0        1.692771   -1.139216   -0.931714
     27          8           0        1.971064   -2.336345   -0.940238
     28          8           0        0.669074   -0.647171   -1.401366
 ---------------------------------------------------------------------

 SCF Done:  E(RHF) =  -868.339305137     A.U. after   16 cycles
 E2 =    -0.2599838218D+01 EUMP2 =    -0.87093914335431D+03

 The electronic state is 1-A.
 Alpha  occ. eigenvalues --  -20.61116 -20.61069 -20.60125 -20.60095 -15.86119
 Alpha  occ. eigenvalues --  -15.85153 -11.31313 -11.30210 -11.27890 -11.27813
 Alpha  occ. eigenvalues --  -11.27580 -11.26868 -11.26866 -11.26798 -11.26677
 Alpha  occ. eigenvalues --  -11.26498 -11.25840 -11.25604  -1.60161  -1.59198
 Alpha  occ. eigenvalues --   -1.39720  -1.38756  -1.19472  -1.18377  -1.08904
 Alpha  occ. eigenvalues --   -1.07844  -1.04843  -1.03729  -0.95768  -0.94722
 Alpha  occ. eigenvalues --   -0.86251  -0.85162  -0.82604  -0.81560  -0.77666
 Alpha  occ. eigenvalues --   -0.76634  -0.72374  -0.71469  -0.71385  -0.70578
 Alpha  occ. eigenvalues --   -0.70514  -0.69522  -0.65127  -0.64842  -0.64043
 Alpha  occ. eigenvalues --   -0.63756  -0.62185  -0.61096  -0.55359  -0.54295
 Alpha  occ. eigenvalues --   -0.53194  -0.52928  -0.52086  -0.51840  -0.49123
 Alpha  occ. eigenvalues --   -0.49105  -0.48151  -0.48115  -0.45157  -0.44228
 Alpha  occ. eigenvalues --   -0.37455  -0.36442  -0.36374  -0.35222
 Alpha virt. eigenvalues --    0.04823   0.05908   0.11214   0.12356   0.16370
 Alpha virt. eigenvalues --    0.17440   0.21385   0.22378   0.27320   0.28220
 Alpha virt. eigenvalues --    0.28350   0.29230   0.30942   0.31877   0.32484

 Mulliken charges:
               1
     1  C   -0.172183
     2  C   -0.220747
     3  C   -0.174629
     4  C    0.153382
     5  C   -0.151839
     6  C   -0.210277
     7  H    0.223463
     8  H    0.218032
     9  H    0.269890
    10  H    0.277234
    11  H    0.227359
    12  N    0.487165
    13  O   -0.460340
    14  O   -0.467421
    15  C   -0.170535
    16  C   -0.218982
    17  C   -0.171010
    18  C    0.157648
    19  C   -0.171568
    20  C   -0.218881
    21  H    0.226440
    22  H    0.227201
    23  H    0.279844
    24  H    0.274023
    25  H    0.223162
    26  N    0.490144
    27  O   -0.464627
    28  O   -0.461948
 Sum of Mulliken charges =  -0.00000

 Dipole moment (field-independent basis, Debye):
    X=              4.3388    Y=             -1.6624    Z=              3.7970  Tot=              6.0005
 Quadrupole moment (field-independent basis, Debye-Ang):
   XX=            -90.6380   YY=           -106.2488   ZZ=           -102.2860
   XY=             20.2010   XZ=              0.8907   YZ=             -0.3828

 Normal termination of Gaussian 16 at Thu May  6 14:47:32 2021.
