 Gaussian 16, Revision A.03,
 Gaussian 16:  EM64L-G16RevA.03 25-Dec-2016

 -------------
 #p 6-31g* mp2
 -------------

 ------------------------------------------------------
 Input file generated by CHIRIPA (05-May-2021 14:55:20)
 ------------------------------------------------------
 Symbolic Z-matrix:
 Charge =  0 Multiplicity = 1

                         Standard orientation:
 ---------------------------------------------------------------------
 Center     Atomic      Atomic             Coordinates (Angstroms)
 Number     Number       Type             X           Y           Z
 ---------------------------------------------------------------------
      1          6           0       -2.070016    2.123663    0.838034
      2          6           0       -2.617604    1.794054   -0.406164
      3          6           0       -2.722796    0.457975   -0.804128
      4          6           0       -2.268462   -0.527468    0.070955
      5          6           0       -1.718169   -0.230941    1.316964
      6          6           0       -1.622835    1.111897    1.694117
      7          1           0       -1.992130    3.164187    1.139099
      8          1           0       -2.965705    2.577714   -1.073058
      9          1           0       -3.142557    0.174682   -1.761710
     10          1           0       -1.379736   -1.034161    1.960174
     11          1           0       -1.197134    1.364928    2.660968
     12          7           0       -2.374606   -1.945493   -0.339336
     13          8           0       -1.967100   -2.795072    0.449835
     14          8           0       -2.863297   -2.180512   -1.442325
     15          6           0        3.527443   -0.031208   -0.172501
     16          6           0        3.319143   -1.494420    0.219425
     17          6           0        4.621082   -2.296119    0.224625
     18          1           0        3.990808    0.012819   -1.167639
     19          1           0        4.240364    0.430019    0.524929
     20          1           0        2.605769   -1.952375   -0.477704
     21          1           0        2.856045   -1.534965    1.213665
     22          1           0        5.335733   -1.865661    0.933554
     23          1           0        5.084034   -2.285443   -0.767426
     24          1           0        4.449064   -3.339305    0.507524
     25          6           0        2.235036    0.783235   -0.182255
     26          6           0        2.443336    2.246447   -0.574180
     27          6           0        1.141397    3.048146   -0.579379
     28          1           0        1.522115    0.322008   -0.879685
     29          1           0        1.771671    0.739208    0.812884
     30          1           0        2.906434    2.286993   -1.568420
     31          1           0        3.156710    2.704402    0.122949
     32          1           0        0.678444    3.037471    0.412670
     33          1           0        0.426746    2.617689   -1.288309
     34          1           0        1.313415    4.091332   -0.862279
 ---------------------------------------------------------------------

 SCF Done:  E(RHF) =  -669.534716711     A.U. after   15 cycles
 E2 =    -0.2093495766D+01 EUMP2 =    -0.67162821247639D+03

 The electronic state is 1-A.
 Alpha  occ. eigenvalues --  -20.60773 -20.60767 -15.85830 -11.31189 -11.27796
 Alpha  occ. eigenvalues --  -11.27792 -11.27510 -11.26773 -11.26756 -11.21876
 Alpha  occ. eigenvalues --  -11.21534 -11.21519 -11.21459 -11.21409 -11.20960
 Alpha  occ. eigenvalues --   -1.59850  -1.39404  -1.19380  -1.08779  -1.08533
 Alpha  occ. eigenvalues --   -1.04786  -1.03647  -0.96126  -0.95597  -0.87141
 Alpha  occ. eigenvalues --   -0.86183  -0.82439  -0.79726  -0.78331  -0.77482
 Alpha  occ. eigenvalues --   -0.72048  -0.71175  -0.70496  -0.65178  -0.65034
 Alpha  occ. eigenvalues --   -0.64787  -0.62136  -0.61052  -0.59495  -0.57733
 Alpha  occ. eigenvalues --   -0.55482  -0.55224  -0.53281  -0.52878  -0.52814
 Alpha  occ. eigenvalues --   -0.52416  -0.50070  -0.48806  -0.48801  -0.47999
 Alpha  occ. eigenvalues --   -0.46763  -0.45863  -0.45790  -0.44811  -0.43901
 Alpha  occ. eigenvalues --   -0.37243  -0.36363
 Alpha virt. eigenvalues --    0.05038   0.11151   0.16454   0.20923   0.22848
 Alpha virt. eigenvalues --    0.24207   0.26151   0.27092   0.27131   0.27866
 Alpha virt. eigenvalues --    0.28641   0.30640   0.31382   0.31610   0.32029

 Mulliken charges:
               1
     1  C   -0.164647
     2  C   -0.219123
     3  C   -0.171870
     4  C    0.157984
     5  C   -0.168598
     6  C   -0.219179
     7  H    0.226510
     8  H    0.223799
     9  H    0.275625
    10  H    0.275741
    11  H    0.222939
    12  N    0.488002
    13  O   -0.460337
    14  O   -0.460851
    15  C   -0.298712
    16  C   -0.299704
    17  C   -0.476001
    18  H    0.150358
    19  H    0.147944
    20  H    0.157082
    21  H    0.149734
    22  H    0.153465
    23  H    0.155434
    24  H    0.162858
    25  C   -0.297260
    26  C   -0.299828
    27  C   -0.475668
    28  H    0.151916
    29  H    0.145643
    30  H    0.153276
    31  H    0.150844
    32  H    0.148398
    33  H    0.157214
    34  H    0.157014
 Sum of Mulliken charges =  -0.00000

 Dipole moment (field-independent basis, Debye):
    X=              0.3229    Y=              4.9197    Z=              1.4197  Tot=              5.1306
 Quadrupole moment (field-independent basis, Debye-Ang):
   XX=            -97.0809   YY=           -100.9056   ZZ=            -90.0250
   XY=            -12.0515   XZ=             -1.2457   YZ=             -1.4923

 Normal termination of Gaussian 16 at Thu May  6 17:27:19 2021.
