 Gaussian 16, Revision A.03,
 Gaussian 16:  EM64L-G16RevA.03 25-Dec-2016

 -------------
 #p 6-31g* mp2
 -------------

 ------------------------------------------------------
 Input file generated by CHIRIPA (05-May-2021 14:53:13)
 ------------------------------------------------------
 Symbolic Z-matrix:
 Charge =  0 Multiplicity = 1

                         Standard orientation:
 ---------------------------------------------------------------------
 Center     Atomic      Atomic             Coordinates (Angstroms)
 Number     Number       Type             X           Y           Z
 ---------------------------------------------------------------------
      1          6           0       -3.028646   -0.096512    0.840104
      2          6           0       -1.905002   -1.132024    0.784194
      3          6           0       -0.785636   -0.844338    1.785218
      4          1           0       -2.609674    0.900595    0.647268
      5          1           0       -3.443107   -0.070006    1.857412
      6          1           0       -1.493710   -1.157554   -0.233058
      7          1           0       -2.326729   -2.126805    0.976996
      8          1           0       -1.175614   -0.839053    2.808199
      9          1           0       -0.337862    0.135705    1.591269
     10          1           0        0.007094   -1.596795    1.728227
     11          6           0       -4.155053   -0.370520   -0.154810
     12          6           0       -5.278696    0.664992   -0.098900
     13          6           0       -6.398063    0.377306   -1.099924
     14          1           0       -3.740591   -0.397026   -1.172117
     15          1           0       -4.574024   -1.367627    0.038026
     16          1           0       -4.856970    1.659773   -0.291702
     17          1           0       -5.689989    0.690522    0.918353
     18          1           0       -6.845836   -0.602737   -0.905975
     19          1           0       -6.008084    0.372021   -2.122905
     20          1           0       -7.190792    1.129763   -1.042933
     21          6           0        2.492575    2.665965    0.048027
     22          6           0        1.434065    1.880735   -0.420473
     23          6           0        1.596452    0.503695   -0.599183
     24          6           0        2.836446   -0.057665   -0.298215
     25          6           0        3.910159    0.698005    0.170179
     26          6           0        3.725071    2.073139    0.341340
     27          1           0        2.357611    3.734943    0.183921
     28          1           0        0.475781    2.338423   -0.649072
     29          1           0        0.793837   -0.127742   -0.960453
     30          1           0        4.853702    0.213216    0.389548
     31          1           0        4.548889    2.680492    0.705333
     32          7           0        3.020373   -1.514467   -0.483412
     33          8           0        4.122707   -1.984926   -0.211075
     34          8           0        2.058721   -2.158264   -0.897400
 ---------------------------------------------------------------------

 SCF Done:  E(RHF) =  -669.535120109     A.U. after   15 cycles
 E2 =    -0.2093010565D+01 EUMP2 =    -0.67162813067386D+03

 The electronic state is 1-A.
 Alpha  occ. eigenvalues --  -20.60823 -20.60815 -15.85862 -11.31191 -11.27793
 Alpha  occ. eigenvalues --  -11.27779 -11.27543 -11.26791 -11.26778 -11.21828
 Alpha  occ. eigenvalues --  -11.21719 -11.21642 -11.21567 -11.21244 -11.20989
 Alpha  occ. eigenvalues --   -1.59887  -1.39442  -1.19392  -1.08786  -1.08632
 Alpha  occ. eigenvalues --   -1.04806  -1.03672  -0.96123  -0.95618  -0.87134
 Alpha  occ. eigenvalues --   -0.86189  -0.82461  -0.79734  -0.78442  -0.77510
 Alpha  occ. eigenvalues --   -0.72084  -0.71206  -0.70515  -0.65317  -0.65043
 Alpha  occ. eigenvalues --   -0.64789  -0.62217  -0.61023  -0.59465  -0.57706
 Alpha  occ. eigenvalues --   -0.55513  -0.55259  -0.53150  -0.52877  -0.52745
 Alpha  occ. eigenvalues --   -0.52503  -0.50059  -0.48840  -0.48839  -0.48034
 Alpha  occ. eigenvalues --   -0.46795  -0.45976  -0.45929  -0.44850  -0.43924
 Alpha  occ. eigenvalues --   -0.37368  -0.36331
 Alpha virt. eigenvalues --    0.05008   0.11221   0.16409   0.19966   0.22934
 Alpha virt. eigenvalues --    0.23956   0.25947   0.26204   0.27889   0.28091
 Alpha virt. eigenvalues --    0.28944   0.30037   0.31406   0.31556   0.32300

 Mulliken charges:
               1
     1  C   -0.296984
     2  C   -0.302900
     3  C   -0.483380
     4  H    0.140786
     5  H    0.151388
     6  H    0.150297
     7  H    0.157904
     8  H    0.154921
     9  H    0.151547
    10  H    0.170628
    11  C   -0.298223
    12  C   -0.299250
    13  C   -0.475780
    14  H    0.148426
    15  H    0.152668
    16  H    0.148860
    17  H    0.152673
    18  H    0.156703
    19  H    0.155168
    20  H    0.160295
    21  C   -0.170171
    22  C   -0.222224
    23  C   -0.169164
    24  C    0.157218
    25  C   -0.170114
    26  C   -0.219088
    27  H    0.225869
    28  H    0.223671
    29  H    0.282116
    30  H    0.275747
    31  H    0.223533
    32  N    0.487741
    33  O   -0.459887
    34  O   -0.460992
 Sum of Mulliken charges =  -0.00000

 Dipole moment (field-independent basis, Debye):
    X=             -0.6210    Y=              5.0221    Z=              0.6729  Tot=              5.1049
 Quadrupole moment (field-independent basis, Debye-Ang):
   XX=            -94.2792   YY=            -95.4841   ZZ=            -95.4219
   XY=             15.6913   XZ=              2.8427   YZ=             -1.9850

 Normal termination of Gaussian 16 at Thu May  6 10:30:47 2021.
