 Gaussian 16, Revision A.03,
 Gaussian 16:  EM64L-G16RevA.03 25-Dec-2016

 -------------
 #p 6-31g* mp2
 -------------

 ------------------------------------------------------
 Input file generated by CHIRIPA (05-May-2021 14:53:15)
 ------------------------------------------------------
 Symbolic Z-matrix:
 Charge =  0 Multiplicity = 1

                         Standard orientation:
 ---------------------------------------------------------------------
 Center     Atomic      Atomic             Coordinates (Angstroms)
 Number     Number       Type             X           Y           Z
 ---------------------------------------------------------------------
      1          6           0        3.901724    0.413498   -0.128708
      2          6           0        4.004806   -1.096280   -0.347637
      3          6           0        5.450208   -1.594775   -0.358082
      4          1           0        4.463958    0.931247   -0.917868
      5          1           0        4.386950    0.673024    0.822394
      6          1           0        3.518314   -1.353061   -1.297377
      7          1           0        3.442101   -1.610490    0.442025
      8          1           0        5.943063   -1.367244    0.592667
      9          1           0        6.019710   -1.108351   -1.156619
     10          1           0        5.500638   -2.676618   -0.515984
     11          6           0        2.462993    0.926933   -0.115760
     12          6           0        2.359911    2.436711    0.103169
     13          6           0        0.914509    2.935206    0.113614
     14          1           0        1.977767    0.667407   -1.066863
     15          1           0        1.900758    0.409184    0.673400
     16          1           0        2.922616    2.950921   -0.686494
     17          1           0        2.846403    2.693491    1.052909
     18          1           0        0.345007    2.448782    0.912150
     19          1           0        0.421654    2.707675   -0.837135
     20          1           0        0.864079    4.017049    0.271516
     21          6           0       -3.912712    1.501629   -0.383529
     22          6           0       -2.775784    1.621007    0.422490
     23          6           0       -1.978041    0.505604    0.694580
     24          6           0       -2.348309   -0.719398    0.141806
     25          6           0       -3.475054   -0.870409   -0.664998
     26          6           0       -4.258109    0.258493   -0.923747
     27          1           0       -4.526713    2.373343   -0.589713
     28          1           0       -2.505126    2.585187    0.843376
     29          1           0       -1.092572    0.569723    1.315266
     30          1           0       -3.719384   -1.844772   -1.070386
     31          1           0       -5.140507    0.162816   -1.550058
     32          7           0       -1.511549   -1.907370    0.422794
     33          8           0       -1.859265   -2.975439   -0.076165
     34          8           0       -0.523826   -1.747939    1.136671
 ---------------------------------------------------------------------

 SCF Done:  E(RHF) =  -669.535259716     A.U. after   15 cycles
 E2 =    -0.2092625284D+01 EUMP2 =    -0.67162788500070D+03

 The electronic state is 1-A.
 Alpha  occ. eigenvalues --  -20.60807 -20.60801 -15.85845 -11.31155 -11.27727
 Alpha  occ. eigenvalues --  -11.27702 -11.27460 -11.26736 -11.26699 -11.21681
 Alpha  occ. eigenvalues --  -11.21556 -11.21089 -11.21005 -11.20937 -11.20547
 Alpha  occ. eigenvalues --   -1.59869  -1.39425  -1.19329  -1.08733  -1.08166
 Alpha  occ. eigenvalues --   -1.04730  -1.03343  -0.95837  -0.95575  -0.86872
 Alpha  occ. eigenvalues --   -0.86125  -0.82413  -0.79432  -0.77918  -0.77433
 Alpha  occ. eigenvalues --   -0.72068  -0.71183  -0.70454  -0.64988  -0.64837
 Alpha  occ. eigenvalues --   -0.64696  -0.62135  -0.60721  -0.59233  -0.57400
 Alpha  occ. eigenvalues --   -0.55282  -0.55090  -0.53101  -0.52836  -0.52536
 Alpha  occ. eigenvalues --   -0.52217  -0.49809  -0.48820  -0.48817  -0.47718
 Alpha  occ. eigenvalues --   -0.46421  -0.45487  -0.45344  -0.44774  -0.43559
 Alpha  occ. eigenvalues --   -0.37313  -0.36287
 Alpha virt. eigenvalues --    0.05042   0.11295   0.16491   0.20343   0.23088
 Alpha virt. eigenvalues --    0.24227   0.25764   0.26871   0.27518   0.28306
 Alpha virt. eigenvalues --    0.29474   0.30397   0.31510   0.31673   0.32280

 Mulliken charges:
               1
     1  C   -0.298327
     2  C   -0.301394
     3  C   -0.475897
     4  H    0.146941
     5  H    0.148413
     6  H    0.152103
     7  H    0.163422
     8  H    0.153865
     9  H    0.152270
    10  H    0.161587
    11  C   -0.304008
    12  C   -0.299535
    13  C   -0.477049
    14  H    0.148854
    15  H    0.161641
    16  H    0.152544
    17  H    0.152441
    18  H    0.143487
    19  H    0.158235
    20  H    0.158863
    21  C   -0.171348
    22  C   -0.218041
    23  C   -0.170958
    24  C    0.157827
    25  C   -0.171172
    26  C   -0.218829
    27  H    0.225527
    28  H    0.225449
    29  H    0.277593
    30  H    0.275263
    31  H    0.223209
    32  N    0.488959
    33  O   -0.459962
    34  O   -0.461969
 Sum of Mulliken charges =  -0.00000

 Dipole moment (field-independent basis, Debye):
    X=             -2.9386    Y=              4.0657    Z=             -0.9919  Tot=              5.1136
 Quadrupole moment (field-independent basis, Debye-Ang):
   XX=            -80.6482   YY=           -100.0986   ZZ=            -93.1452
   XY=             -5.6224   XZ=              4.0953   YZ=              2.8401

 Normal termination of Gaussian 16 at Wed May  5 15:40:20 2021.
