 Gaussian 16, Revision A.03,
 Gaussian 16:  EM64L-G16RevA.03 25-Dec-2016

 -------------
 #p 6-31g* mp2
 -------------

 ------------------------------------------------------
 Input file generated by CHIRIPA (05-May-2021 14:55:24)
 ------------------------------------------------------
 Symbolic Z-matrix:
 Charge =  0 Multiplicity = 1

                         Standard orientation:
 ---------------------------------------------------------------------
 Center     Atomic      Atomic             Coordinates (Angstroms)
 Number     Number       Type             X           Y           Z
 ---------------------------------------------------------------------
      1          6           0        3.164976    2.304404    1.001066
      2          6           0        4.215842    1.631821    0.368741
      3          6           0        3.985257    0.429242   -0.305931
      4          6           0        2.685601   -0.074420   -0.328478
      5          6           0        1.617750    0.572213    0.291884
      6          6           0        1.871564    1.773389    0.960690
      7          1           0        3.353122    3.238051    1.522889
      8          1           0        5.221339    2.041865    0.398461
      9          1           0        4.780407   -0.112165   -0.803961
     10          1           0        0.626138    0.138706    0.245027
     11          1           0        1.053519    2.293554    1.450871
     12          7           0        2.429196   -1.346794   -1.039618
     13          8           0        1.275148   -1.769622   -1.044935
     14          8           0        3.387127   -1.897161   -1.578227
     15          6           0       -3.589692    0.382845   -0.244039
     16          6           0       -5.054871    0.614091   -0.615199
     17          6           0       -5.234779    1.729480   -1.645410
     18          1           0       -3.165323    1.317494    0.147481
     19          1           0       -3.022570    0.138695   -1.152971
     20          1           0       -5.619325    0.856375    0.294365
     21          1           0       -5.475854   -0.321269   -1.005701
     22          1           0       -4.696594    1.491629   -2.568657
     23          1           0       -4.840880    2.675963   -1.261205
     24          1           0       -6.289710    1.877928   -1.896298
     25          6           0       -3.393630   -0.729169    0.784898
     26          6           0       -1.928450   -0.960414    1.156060
     27          6           0       -1.748543   -2.075803    2.186270
     28          1           0       -3.960751   -0.485019    1.693831
     29          1           0       -3.817998   -1.663819    0.393379
     30          1           0       -1.507467   -0.025055    1.546562
     31          1           0       -1.363997   -1.202698    0.246496
     32          1           0       -2.142441   -3.022287    1.802066
     33          1           0       -2.286727   -1.837952    3.109518
     34          1           0       -0.693612   -2.224251    2.437158
 ---------------------------------------------------------------------

 SCF Done:  E(RHF) =  -669.535669906     A.U. after   15 cycles
 E2 =    -0.2092408457D+01 EUMP2 =    -0.67162807836352D+03

 The electronic state is 1-A.
 Alpha  occ. eigenvalues --  -20.60813 -20.60806 -15.85854 -11.31131 -11.27724
 Alpha  occ. eigenvalues --  -11.27616 -11.27465 -11.26728 -11.26702 -11.21670
 Alpha  occ. eigenvalues --  -11.21635 -11.21463 -11.21387 -11.21106 -11.20966
 Alpha  occ. eigenvalues --   -1.59880  -1.39436  -1.19313  -1.08730  -1.08479
 Alpha  occ. eigenvalues --   -1.04708  -1.03555  -0.95980  -0.95572  -0.86999
 Alpha  occ. eigenvalues --   -0.86114  -0.82409  -0.79682  -0.78368  -0.77414
 Alpha  occ. eigenvalues --   -0.72079  -0.71196  -0.70429  -0.65116  -0.64951
 Alpha  occ. eigenvalues --   -0.64721  -0.62088  -0.60934  -0.59340  -0.57602
 Alpha  occ. eigenvalues --   -0.55251  -0.55223  -0.53045  -0.52842  -0.52643
 Alpha  occ. eigenvalues --   -0.52400  -0.49919  -0.48857  -0.48825  -0.47922
 Alpha  occ. eigenvalues --   -0.46643  -0.45855  -0.45718  -0.44856  -0.43805
 Alpha  occ. eigenvalues --   -0.37307  -0.36306
 Alpha virt. eigenvalues --    0.05057   0.11326   0.16561   0.20738   0.22978
 Alpha virt. eigenvalues --    0.24224   0.25724   0.26347   0.27869   0.28079
 Alpha virt. eigenvalues --    0.29435   0.30217   0.31618   0.31771   0.32145

 Mulliken charges:
               1
     1  C   -0.170145
     2  C   -0.219481
     3  C   -0.169724
     4  C    0.154682
     5  C   -0.177199
     6  C   -0.224509
     7  H    0.225379
     8  H    0.223194
     9  H    0.275283
    10  H    0.293720
    11  H    0.223544
    12  N    0.489658
    13  O   -0.465407
    14  O   -0.459851
    15  C   -0.299771
    16  C   -0.299573
    17  C   -0.475858
    18  H    0.143094
    19  H    0.154125
    20  H    0.151203
    21  H    0.154187
    22  H    0.156870
    23  H    0.153061
    24  H    0.160674
    25  C   -0.295583
    26  C   -0.319103
    27  C   -0.473373
    28  H    0.148160
    29  H    0.154093
    30  H    0.136958
    31  H    0.176685
    32  H    0.160606
    33  H    0.152152
    34  H    0.162249
 Sum of Mulliken charges =  -0.00000

 Dipole moment (field-independent basis, Debye):
    X=              0.8486    Y=              4.3106    Z=              2.4131  Tot=              5.0124
 Quadrupole moment (field-independent basis, Debye-Ang):
   XX=            -85.2026   YY=            -96.0006   ZZ=            -97.0362
   XY=             12.3763   XZ=              5.1030   YZ=             -0.4646

 Normal termination of Gaussian 16 at Thu May  6 07:56:08 2021.
