 Gaussian 16, Revision A.03,
 Gaussian 16:  EM64L-G16RevA.03 25-Dec-2016

 -------------
 #p 6-31g* mp2
 -------------

 ------------------------------------------------------
 Input file generated by CHIRIPA (05-May-2021 14:51:14)
 ------------------------------------------------------
 Symbolic Z-matrix:
 Charge =  0 Multiplicity = 1

                         Standard orientation:
 ---------------------------------------------------------------------
 Center     Atomic      Atomic             Coordinates (Angstroms)
 Number     Number       Type             X           Y           Z
 ---------------------------------------------------------------------
      1          6           0       -3.415256   -0.487150    0.175425
      2          6           0       -3.803409    0.578215   -0.850402
      3          6           0       -5.315481    0.784026   -0.945661
      4          1           0       -3.899965   -1.436612   -0.090137
      5          1           0       -3.809801   -0.199378    1.159761
      6          1           0       -3.407065    0.289211   -1.832239
      7          1           0       -3.317566    1.525203   -0.582474
      8          1           0       -5.723446    1.096185    0.021149
      9          1           0       -5.813453   -0.146830   -1.235717
     10          1           0       -5.570637    1.549844   -1.684768
     11          6           0       -1.906886   -0.704298    0.282163
     12          6           0       -1.518732   -1.769663    1.307990
     13          6           0       -0.006660   -1.975474    1.403250
     14          1           0       -1.512340   -0.992070   -0.702173
     15          1           0       -1.422176    0.245164    0.547726
     16          1           0       -2.004576   -2.716651    1.040062
     17          1           0       -1.915077   -1.480659    2.289827
     18          1           0        0.491312   -1.044618    1.693305
     19          1           0        0.401304   -2.287633    0.436439
     20          1           0        0.248495   -2.741292    2.142356
     21          6           0        2.237324    1.221485   -0.339674
     22          6           0        2.437983    2.288323    0.737163
     23          6           0        1.583486    3.534157    0.501526
     24          1           0        2.476515    1.651508   -1.321923
     25          1           0        1.176068    0.938535   -0.372382
     26          1           0        3.498784    2.568176    0.768776
     27          1           0        2.198470    1.855655    1.716983
     28          1           0        0.519758    3.275366    0.491005
     29          1           0        1.827460    3.991935   -0.462589
     30          1           0        1.742557    4.283772    1.282957
     31          6           0        3.084818   -0.030037   -0.117915
     32          6           0        2.884159   -1.096875   -1.194751
     33          6           0        3.738656   -2.342710   -0.959115
     34          1           0        4.146074    0.252913   -0.085207
     35          1           0        2.845626   -0.460059    0.864334
     36          1           0        3.123672   -0.664206   -2.174571
     37          1           0        1.823357   -1.376727   -1.226364
     38          1           0        3.494681   -2.800487    0.005001
     39          1           0        4.802384   -2.083918   -0.948594
     40          1           0        3.579584   -3.092323   -1.740545
 ---------------------------------------------------------------------

 SCF Done:  E(RHF) =  -470.732633282     A.U. after   11 cycles
 E2 =    -0.1584709508D+01 EUMP2 =    -0.47231734279001D+03

 The electronic state is 1-A.
 Alpha  occ. eigenvalues --  -11.21691 -11.21646 -11.21585 -11.21503 -11.21500
 Alpha  occ. eigenvalues --  -11.21428 -11.21307 -11.21241 -11.21147 -11.21102
 Alpha  occ. eigenvalues --  -11.21075 -11.21006  -1.08522  -1.08353  -1.03612
 Alpha  occ. eigenvalues --   -1.03474  -0.96059  -0.95927  -0.87094  -0.86929
 Alpha  occ. eigenvalues --   -0.79677  -0.79546  -0.78361  -0.78147  -0.65157
 Alpha  occ. eigenvalues --   -0.65018  -0.61135  -0.60796  -0.59422  -0.59292
 Alpha  occ. eigenvalues --   -0.57658  -0.57525  -0.55498  -0.55080  -0.52745
 Alpha  occ. eigenvalues --   -0.52630  -0.52483  -0.52355  -0.50016  -0.49861
 Alpha  occ. eigenvalues --   -0.48054  -0.47812  -0.46860  -0.46452  -0.46117
 Alpha  occ. eigenvalues --   -0.45763  -0.45604  -0.45351  -0.43857  -0.43722
 Alpha virt. eigenvalues --    0.19842   0.22566   0.23234   0.24399   0.25688
 Alpha virt. eigenvalues --    0.25951   0.26823   0.27568   0.28369   0.30218
 Alpha virt. eigenvalues --    0.30667   0.31110   0.31638   0.31893   0.32317

 Mulliken charges:
               1
     1  C   -0.298296
     2  C   -0.299728
     3  C   -0.475778
     4  H    0.150042
     5  H    0.149822
     6  H    0.152257
     7  H    0.151907
     8  H    0.155264
     9  H    0.155256
    10  H    0.160557
    11  C   -0.301304
    12  C   -0.299884
    13  C   -0.483332
    14  H    0.149962
    15  H    0.151119
    16  H    0.152387
    17  H    0.152173
    18  H    0.158074
    19  H    0.161069
    20  H    0.160545
    21  C   -0.303956
    22  C   -0.299870
    23  C   -0.475600
    24  H    0.149456
    25  H    0.155101
    26  H    0.152172
    27  H    0.150858
    28  H    0.154314
    29  H    0.155507
    30  H    0.160121
    31  C   -0.300182
    32  C   -0.302368
    33  C   -0.477060
    34  H    0.149043
    35  H    0.153329
    36  H    0.151646
    37  H    0.154167
    38  H    0.156608
    39  H    0.155159
    40  H    0.159445
 Sum of Mulliken charges =  -0.00000

 Dipole moment (field-independent basis, Debye):
    X=             -0.0456    Y=             -0.0275    Z=              0.0112  Tot=              0.0544
 Quadrupole moment (field-independent basis, Debye-Ang):
   XX=            -85.6807   YY=            -85.1097   ZZ=            -84.0202
   XY=              1.1720   XZ=             -0.5292   YZ=              0.3303

 Normal termination of Gaussian 16 at Wed May  5 15:23:41 2021.
