 Gaussian 16, Revision A.03,
 Gaussian 16:  EM64L-G16RevA.03 25-Dec-2016

 -------------
 #p 6-31g* mp2
 -------------

 ------------------------------------------------------
 Input file generated by CHIRIPA (05-May-2021 14:57:24)
 ------------------------------------------------------
 Symbolic Z-matrix:
 Charge =  0 Multiplicity = 1

                         Standard orientation:
 ---------------------------------------------------------------------
 Center     Atomic      Atomic             Coordinates (Angstroms)
 Number     Number       Type             X           Y           Z
 ---------------------------------------------------------------------
      1          6           0       -2.133856   -0.618224    1.032344
      2          6           0       -2.537920   -1.199387   -0.174098
      3          6           0       -3.797553   -0.917561   -0.711171
      4          6           0       -4.631460   -0.046182   -0.012181
      5          6           0       -4.257635    0.548583    1.191896
      6          6           0       -2.993488    0.252371    1.710296
      7          1           0       -1.153589   -0.842741    1.442302
      8          1           0       -1.872405   -1.875871   -0.702781
      9          1           0       -4.135737   -1.353591   -1.643333
     10          1           0       -4.943044    1.219053    1.695981
     11          1           0       -2.682346    0.705165    2.647426
     12          7           0       -5.967366    0.259790   -0.570871
     13          8           0       -6.683473    1.030753    0.064301
     14          8           0       -6.273048   -0.277147   -1.633366
     15          6           0        1.897160    0.203700    0.103467
     16          6           0        2.622988    1.347599   -0.244656
     17          6           0        4.016308    1.299891   -0.349201
     18          6           0        4.654342    0.086256   -0.097625
     19          6           0        3.959125   -1.070588    0.251190
     20          6           0        2.566365   -0.999621    0.349845
     21          1           0        0.815013    0.249795    0.182393
     22          1           0        2.105928    2.283478   -0.436560
     23          1           0        4.602874    2.170328   -0.616967
     24          1           0        4.502535   -1.989157    0.436542
     25          1           0        2.005263   -1.889575    0.620384
     26          7           0        6.129092    0.023439   -0.205185
     27          8           0        6.667578   -1.057901    0.021476
     28          8           0        6.718590    1.056730   -0.514115
 ---------------------------------------------------------------------

 SCF Done:  E(RHF) =  -868.336689904     A.U. after   16 cycles
 E2 =    -0.2600068140D+01 EUMP2 =    -0.87093675804418D+03

 The electronic state is 1-A.
 Alpha  occ. eigenvalues --  -20.61458 -20.61453 -20.61277 -20.61271 -15.86516
 Alpha  occ. eigenvalues --  -15.86335 -11.32087 -11.31837 -11.28644 -11.28626
 Alpha  occ. eigenvalues --  -11.28551 -11.28444 -11.28392 -11.28255 -11.27794
 Alpha  occ. eigenvalues --  -11.27742 -11.27564 -11.27447  -1.60528  -1.60349
 Alpha  occ. eigenvalues --   -1.40076  -1.39898  -1.20280  -1.20034  -1.09674
 Alpha  occ. eigenvalues --   -1.09422  -1.05692  -1.05455  -0.96474  -0.96223
 Alpha  occ. eigenvalues --   -0.87098  -0.86862  -0.83284  -0.83047  -0.78262
 Alpha  occ. eigenvalues --   -0.78062  -0.72731  -0.72552  -0.71853  -0.71674
 Alpha  occ. eigenvalues --   -0.71641  -0.71016  -0.65938  -0.65721  -0.65682
 Alpha  occ. eigenvalues --   -0.65471  -0.63016  -0.62796  -0.56492  -0.55825
 Alpha  occ. eigenvalues --   -0.54010  -0.53789  -0.53776  -0.53558  -0.49507
 Alpha  occ. eigenvalues --   -0.49473  -0.49322  -0.49296  -0.45435  -0.45273
 Alpha  occ. eigenvalues --   -0.38323  -0.38053  -0.37280  -0.37052
 Alpha virt. eigenvalues --    0.04192   0.04469   0.10329   0.10578   0.15446
 Alpha virt. eigenvalues --    0.15906   0.18342   0.21910   0.25226   0.26507
 Alpha virt. eigenvalues --    0.26961   0.29427   0.30140   0.30592   0.31614

 Mulliken charges:
               1
     1  C   -0.177969
     2  C   -0.219001
     3  C   -0.169949
     4  C    0.160159
     5  C   -0.170403
     6  C   -0.218582
     7  H    0.219955
     8  H    0.223301
     9  H    0.278665
    10  H    0.278602
    11  H    0.226315
    12  N    0.487797
    13  O   -0.457884
    14  O   -0.457920
    15  C   -0.176413
    16  C   -0.218975
    17  C   -0.169856
    18  C    0.159023
    19  C   -0.169761
    20  C   -0.220058
    21  H    0.223237
    22  H    0.226510
    23  H    0.277994
    24  H    0.277199
    25  H    0.217605
    26  N    0.487938
    27  O   -0.459154
    28  O   -0.458378
 Sum of Mulliken charges =  -0.00000

 Dipole moment (field-independent basis, Debye):
    X=             -0.6157    Y=             -0.7536    Z=              2.2861  Tot=              2.4846
 Quadrupole moment (field-independent basis, Debye-Ang):
   XX=           -195.5969   YY=            -98.6053   ZZ=           -102.6222
   XY=              4.9559   XZ=             -7.8843   YZ=              1.3479

 Normal termination of Gaussian 16 at Fri May  7 00:21:21 2021.
