 Gaussian 16, Revision A.03,
 Gaussian 16:  EM64L-G16RevA.03 25-Dec-2016

 -------------
 #p 6-31g* mp2
 -------------

 ------------------------------------------------------
 Input file generated by CHIRIPA (05-May-2021 14:55:23)
 ------------------------------------------------------
 Symbolic Z-matrix:
 Charge =  0 Multiplicity = 1

                         Standard orientation:
 ---------------------------------------------------------------------
 Center     Atomic      Atomic             Coordinates (Angstroms)
 Number     Number       Type             X           Y           Z
 ---------------------------------------------------------------------
      1          6           0       -4.279705   -0.323746   -1.772084
      2          6           0       -4.287319   -1.294616   -0.765170
      3          6           0       -3.431600   -1.183450    0.334800
      4          6           0       -2.577422   -0.083487    0.396049
      5          6           0       -2.546394    0.900297   -0.591116
      6          6           0       -3.410798    0.768686   -1.682002
      7          1           0       -4.947821   -0.418044   -2.623038
      8          1           0       -4.961056   -2.144081   -0.832493
      9          1           0       -3.416810   -1.920521    1.128479
     10          1           0       -1.863537    1.735834   -0.496229
     11          1           0       -3.402717    1.524201   -2.462500
     12          7           0       -1.666913    0.045021    1.555730
     13          8           0       -0.923873    1.023590    1.586238
     14          8           0       -1.713538   -0.835256    2.412220
     15          6           0        3.472531   -0.592047   -0.025700
     16          6           0        4.439873   -1.501842   -0.783663
     17          6           0        4.390993   -2.951142   -0.298965
     18          1           0        3.707916   -0.629651    1.046738
     19          1           0        2.451143   -0.982085   -0.135394
     20          1           0        5.458960   -1.109428   -0.673724
     21          1           0        4.202280   -1.461920   -1.854445
     22          1           0        3.385397   -3.365516   -0.424164
     23          1           0        4.649218   -3.011019    0.763267
     24          1           0        5.090264   -3.583987   -0.854292
     25          6           0        3.509830    0.859994   -0.498894
     26          6           0        2.542490    1.769790    0.259069
     27          6           0        2.591369    3.219090   -0.225630
     28          1           0        4.531219    1.250032   -0.389201
     29          1           0        3.274447    0.897598   -1.571333
     30          1           0        2.780082    1.729868    1.329850
     31          1           0        1.523402    1.377375    0.149129
     32          1           0        2.333143    3.278967   -1.287861
     33          1           0        3.596965    3.633463   -0.100431
     34          1           0        1.892098    3.851934    0.329699
 ---------------------------------------------------------------------

 SCF Done:  E(RHF) =  -669.535925711     A.U. after   15 cycles
 E2 =    -0.2091190188D+01 EUMP2 =    -0.67162711589915D+03

 The electronic state is 1-A.
 Alpha  occ. eigenvalues --  -20.60927 -20.60922 -15.85952 -11.31291 -11.27856
 Alpha  occ. eigenvalues --  -11.27852 -11.27594 -11.26867 -11.26857 -11.21109
 Alpha  occ. eigenvalues --  -11.20731 -11.20667 -11.20633 -11.20542 -11.20378
 Alpha  occ. eigenvalues --   -1.59986  -1.39542  -1.19461  -1.08862  -1.07743
 Alpha  occ. eigenvalues --   -1.04859  -1.02856  -0.95702  -0.95352  -0.86372
 Alpha  occ. eigenvalues --   -0.86259  -0.82536  -0.78907  -0.77625  -0.77470
 Alpha  occ. eigenvalues --   -0.72174  -0.71300  -0.70568  -0.65117  -0.64862
 Alpha  occ. eigenvalues --   -0.64386  -0.62207  -0.60265  -0.58706  -0.56928
 Alpha  occ. eigenvalues --   -0.55362  -0.54668  -0.53191  -0.52950  -0.52052
 Alpha  occ. eigenvalues --   -0.51766  -0.49321  -0.48940  -0.48934  -0.47233
 Alpha  occ. eigenvalues --   -0.45975  -0.45265  -0.45040  -0.44605  -0.43114
 Alpha  occ. eigenvalues --   -0.37441  -0.36462
 Alpha virt. eigenvalues --    0.04908   0.11183   0.16377   0.21202   0.23426
 Alpha virt. eigenvalues --    0.24723   0.26928   0.27417   0.27808   0.28537
 Alpha virt. eigenvalues --    0.28732   0.30723   0.31786   0.32173   0.32562

 Mulliken charges:
               1
     1  C   -0.170662
     2  C   -0.218538
     3  C   -0.170939
     4  C    0.158113
     5  C   -0.171698
     6  C   -0.218547
     7  H    0.226005
     8  H    0.223841
     9  H    0.275880
    10  H    0.276314
    11  H    0.223960
    12  N    0.488732
    13  O   -0.459612
    14  O   -0.458911
    15  C   -0.296702
    16  C   -0.299116
    17  C   -0.475080
    18  H    0.153014
    19  H    0.149139
    20  H    0.150842
    21  H    0.148853
    22  H    0.154361
    23  H    0.156498
    24  H    0.157759
    25  C   -0.298564
    26  C   -0.302582
    27  C   -0.476464
    28  H    0.146695
    29  H    0.143829
    30  H    0.156835
    31  H    0.164616
    32  H    0.147435
    33  H    0.152457
    34  H    0.162236
 Sum of Mulliken charges =  -0.00000

 Dipole moment (field-independent basis, Debye):
    X=             -3.4164    Y=             -0.4847    Z=             -3.9254  Tot=              5.2264
 Quadrupole moment (field-independent basis, Debye-Ang):
   XX=            -78.2074   YY=            -92.8279   ZZ=            -97.4955
   XY=              3.4789   XZ=              9.7349   YZ=             -1.1898

 Normal termination of Gaussian 16 at Wed May  5 22:19:41 2021.
