 Gaussian 16, Revision A.03,
 Gaussian 16:  EM64L-G16RevA.03 25-Dec-2016

 -------------
 #p 6-31g* mp2
 -------------

 ------------------------------------------------------
 Input file generated by CHIRIPA (05-May-2021 14:57:26)
 ------------------------------------------------------
 Symbolic Z-matrix:
 Charge =  0 Multiplicity = 1

                         Standard orientation:
 ---------------------------------------------------------------------
 Center     Atomic      Atomic             Coordinates (Angstroms)
 Number     Number       Type             X           Y           Z
 ---------------------------------------------------------------------
      1          6           0        4.809795   -2.013931    0.053606
      2          6           0        4.900668   -1.054906   -0.960561
      3          6           0        4.165088    0.131509   -0.883824
      4          6           0        3.344842    0.327095    0.226236
      5          6           0        3.232983   -0.609337    1.252819
      6          6           0        3.977709   -1.788483    1.155117
      7          1           0        5.384764   -2.932743   -0.014149
      8          1           0        5.546065   -1.227306   -1.817174
      9          1           0        4.216628    0.890779   -1.654713
     10          1           0        2.581061   -0.409184    2.094457
     11          1           0        3.905163   -2.531510    1.944226
     12          7           0        2.561275    1.579252    0.318571
     13          8           0        1.845862    1.727674    1.306900
     14          8           0        2.677364    2.388560   -0.599133
     15          6           0       -1.133153    0.406002   -0.991401
     16          6           0       -1.935849    1.417306   -0.453384
     17          6           0       -3.234387    1.136925   -0.017798
     18          6           0       -3.700286   -0.171647   -0.135573
     19          6           0       -2.924832   -1.200892   -0.667189
     20          6           0       -1.629332   -0.897571   -1.096402
     21          1           0       -0.125598    0.632718   -1.327300
     22          1           0       -1.553143    2.430584   -0.370622
     23          1           0       -3.877242    1.900733    0.402621
     24          1           0       -3.334065   -2.201437   -0.736864
     25          1           0       -1.008195   -1.684967   -1.513824
     26          7           0       -5.073381   -0.480616    0.322188
     27          8           0       -5.460426   -1.641522    0.207601
     28          8           0       -5.736571    0.443970    0.786901
 ---------------------------------------------------------------------

 SCF Done:  E(RHF) =  -868.339168114     A.U. after   16 cycles
 E2 =    -0.2599147356D+01 EUMP2 =    -0.87093831547023D+03

 The electronic state is 1-A.
 Alpha  occ. eigenvalues --  -20.61887 -20.61857 -20.60327 -20.60314 -15.86895
 Alpha  occ. eigenvalues --  -15.85370 -11.32070 -11.30614 -11.28620 -11.28583
 Alpha  occ. eigenvalues --  -11.28291 -11.27565 -11.27538 -11.27208 -11.27090
 Alpha  occ. eigenvalues --  -11.26831 -11.26221 -11.25994  -1.60963  -1.59401
 Alpha  occ. eigenvalues --   -1.40508  -1.38958  -1.20223  -1.18757  -1.09653
 Alpha  occ. eigenvalues --   -1.08166  -1.05580  -1.04136  -0.96514  -0.95030
 Alpha  occ. eigenvalues --   -0.86985  -0.85528  -0.83338  -0.81866  -0.78418
 Alpha  occ. eigenvalues --   -0.76935  -0.73103  -0.72333  -0.71591  -0.71301
 Alpha  occ. eigenvalues --   -0.70722  -0.69829  -0.65861  -0.65562  -0.64402
 Alpha  occ. eigenvalues --   -0.64112  -0.62917  -0.61481  -0.56072  -0.54620
 Alpha  occ. eigenvalues --   -0.53941  -0.53653  -0.52478  -0.52211  -0.49885
 Alpha  occ. eigenvalues --   -0.49863  -0.48354  -0.48337  -0.45941  -0.44391
 Alpha  occ. eigenvalues --   -0.38197  -0.37181  -0.36713  -0.35734
 Alpha virt. eigenvalues --    0.04071   0.05579   0.10473   0.11926   0.15606
 Alpha virt. eigenvalues --    0.17112   0.20703   0.21967   0.26641   0.27532
 Alpha virt. eigenvalues --    0.28028   0.28418   0.30379   0.31448   0.31848

 Mulliken charges:
               1
     1  C   -0.170230
     2  C   -0.218844
     3  C   -0.173203
     4  C    0.153103
     5  C   -0.170833
     6  C   -0.219027
     7  H    0.228721
     8  H    0.225921
     9  H    0.276016
    10  H    0.278480
    11  H    0.226942
    12  N    0.485097
    13  O   -0.457047
    14  O   -0.463348
    15  C   -0.171304
    16  C   -0.214687
    17  C   -0.172514
    18  C    0.158107
    19  C   -0.172704
    20  C   -0.219830
    21  H    0.226412
    22  H    0.234863
    23  H    0.275136
    24  H    0.272222
    25  H    0.218428
    26  N    0.488121
    27  O   -0.463218
    28  O   -0.460780
 Sum of Mulliken charges =  -0.00000

 Dipole moment (field-independent basis, Debye):
    X=              7.9144    Y=             -3.2368    Z=             -1.8256  Tot=              8.7434
 Quadrupole moment (field-independent basis, Debye-Ang):
   XX=           -122.6040   YY=           -103.4445   ZZ=           -101.2624
   XY=            -19.8961   XZ=              2.7938   YZ=             -1.1463

 Normal termination of Gaussian 16 at Thu May  6 22:54:50 2021.
