 Gaussian 16, Revision A.03,
 Gaussian 16:  EM64L-G16RevA.03 25-Dec-2016

 -------------
 #p 6-31g* mp2
 -------------

 ------------------------------------------------------
 Input file generated by CHIRIPA (05-May-2021 14:53:12)
 ------------------------------------------------------
 Symbolic Z-matrix:
 Charge =  0 Multiplicity = 1

                         Standard orientation:
 ---------------------------------------------------------------------
 Center     Atomic      Atomic             Coordinates (Angstroms)
 Number     Number       Type             X           Y           Z
 ---------------------------------------------------------------------
      1          6           0       -3.968176   -0.730596    0.552885
      2          6           0       -2.632457   -1.128229   -0.076183
      3          6           0       -1.850585   -2.126535    0.778132
      4          1           0       -3.784400   -0.299934    1.546717
      5          1           0       -4.574403   -1.633363    0.710664
      6          1           0       -2.029485   -0.224828   -0.234003
      7          1           0       -2.819419   -1.557818   -1.068713
      8          1           0       -2.429452   -3.044080    0.925185
      9          1           0       -1.635030   -1.703516    1.764637
     10          1           0       -0.899124   -2.397066    0.309735
     11          6           0       -4.761408    0.266920   -0.289417
     12          6           0       -6.097127    0.664554    0.339651
     13          6           0       -6.878999    1.662860   -0.514665
     14          1           0       -4.155181    1.169688   -0.447197
     15          1           0       -4.945184   -0.163741   -1.283249
     16          1           0       -5.910165    1.094143    1.332180
     17          1           0       -6.700099   -0.238847    0.497470
     18          1           0       -7.094554    1.239841   -1.501170
     19          1           0       -6.300132    2.580405   -0.661717
     20          1           0       -7.830460    1.933391   -0.046267
     21          6           0        2.885131   -2.256118   -0.490603
     22          6           0        4.160389   -1.874426   -0.061009
     23          6           0        4.462401   -0.526906    0.156992
     24          6           0        3.460736    0.416746   -0.065437
     25          6           0        2.180733    0.067920   -0.493458
     26          6           0        1.901108   -1.285437   -0.705078
     27          1           0        2.659217   -3.305171   -0.657472
     28          1           0        4.926560   -2.626100    0.106363
     29          1           0        5.441341   -0.203654    0.489564
     30          1           0        1.437693    0.840087   -0.651782
     31          1           0        0.909853   -1.578954   -1.038706
     32          7           0        3.768613    1.846395    0.161973
     33          8           0        2.868651    2.658452   -0.041180
     34          8           0        4.904056    2.127827    0.539066
 ---------------------------------------------------------------------

 SCF Done:  E(RHF) =  -669.535410641     A.U. after   15 cycles
 E2 =    -0.2091102053D+01 EUMP2 =    -0.67162651269435D+03

 The electronic state is 1-A.
 Alpha  occ. eigenvalues --  -20.60760 -20.60755 -15.85813 -11.31177 -11.27747
 Alpha  occ. eigenvalues --  -11.27742 -11.27489 -11.26760 -11.26734 -11.22334
 Alpha  occ. eigenvalues --  -11.21878 -11.21873 -11.21849 -11.21713 -11.21245
 Alpha  occ. eigenvalues --   -1.59835  -1.39389  -1.19349  -1.08887  -1.08745
 Alpha  occ. eigenvalues --   -1.04753  -1.04012  -0.96455  -0.95580  -0.87474
 Alpha  occ. eigenvalues --   -0.86150  -0.82411  -0.80089  -0.78667  -0.77462
 Alpha  occ. eigenvalues --   -0.72032  -0.71158  -0.70458  -0.65508  -0.65001
 Alpha  occ. eigenvalues --   -0.64796  -0.62153  -0.61391  -0.59844  -0.58065
 Alpha  occ. eigenvalues --   -0.55714  -0.55253  -0.53319  -0.53048  -0.52979
 Alpha  occ. eigenvalues --   -0.52604  -0.50374  -0.48791  -0.48786  -0.48398
 Alpha  occ. eigenvalues --   -0.47113  -0.46214  -0.46111  -0.44795  -0.44258
 Alpha  occ. eigenvalues --   -0.37326  -0.36343
 Alpha virt. eigenvalues --    0.05075   0.11214   0.16530   0.19849   0.22679
 Alpha virt. eigenvalues --    0.23875   0.25889   0.26210   0.26864   0.28135
 Alpha virt. eigenvalues --    0.28800   0.30247   0.31077   0.31361   0.32113

 Mulliken charges:
               1
     1  C   -0.298499
     2  C   -0.301562
     3  C   -0.477265
     4  H    0.152479
     5  H    0.150682
     6  H    0.149369
     7  H    0.151156
     8  H    0.158038
     9  H    0.160991
    10  H    0.149959
    11  C   -0.299123
    12  C   -0.300169
    13  C   -0.476134
    14  H    0.151336
    15  H    0.149460
    16  H    0.153321
    17  H    0.151927
    18  H    0.155081
    19  H    0.156643
    20  H    0.161321
    21  C   -0.171756
    22  C   -0.218467
    23  C   -0.170905
    24  C    0.158602
    25  C   -0.172157
    26  C   -0.219829
    27  H    0.225624
    28  H    0.223421
    29  H    0.275581
    30  H    0.275522
    31  H    0.228303
    32  N    0.488089
    33  O   -0.460591
    34  O   -0.460447
 Sum of Mulliken charges =  -0.00000

 Dipole moment (field-independent basis, Debye):
    X=             -1.2236    Y=             -5.0124    Z=             -0.7445  Tot=              5.2131
 Quadrupole moment (field-independent basis, Debye-Ang):
   XX=            -97.5314   YY=            -99.2390   ZZ=            -95.0999
   XY=            -18.6330   XZ=             -1.5417   YZ=              0.3272

 Normal termination of Gaussian 16 at Thu May  6 17:00:59 2021.
