 Gaussian 16, Revision A.03,
 Gaussian 16:  EM64L-G16RevA.03 25-Dec-2016

 -------------
 #p 6-31g* mp2
 -------------

 ------------------------------------------------------
 Input file generated by CHIRIPA (05-May-2021 14:51:14)
 ------------------------------------------------------
 Symbolic Z-matrix:
 Charge =  0 Multiplicity = 1

                         Standard orientation:
 ---------------------------------------------------------------------
 Center     Atomic      Atomic             Coordinates (Angstroms)
 Number     Number       Type             X           Y           Z
 ---------------------------------------------------------------------
      1          6           0        2.344194   -0.499062   -0.210994
      2          6           0        2.284440   -1.541255    0.906256
      3          6           0        2.187196   -2.971888    0.375571
      4          1           0        1.451238   -0.597169   -0.843409
      5          1           0        3.208473   -0.711640   -0.855376
      6          1           0        1.421331   -1.325956    1.549144
      7          1           0        3.177550   -1.440528    1.536197
      8          1           0        3.053912   -3.210764   -0.249203
      9          1           0        1.287715   -3.095541   -0.236183
     10          1           0        2.145666   -3.700638    1.191082
     11          6           0        2.441607    0.935963    0.303732
     12          6           0        2.501361    1.978156   -0.813519
     13          6           0        2.598605    3.408789   -0.282834
     14          1           0        1.577329    1.148542    0.948114
     15          1           0        3.334564    1.034071    0.936146
     16          1           0        1.608252    1.877430   -1.443460
     17          1           0        3.364471    1.762857   -1.456406
     18          1           0        3.498087    3.532443    0.328920
     19          1           0        1.731889    3.647666    0.341940
     20          1           0        2.640135    4.137540   -1.098345
     21          6           0       -2.335643   -0.825799   -0.506022
     22          6           0       -1.665983   -2.028717    0.159207
     23          6           0       -1.558715   -3.235925   -0.772961
     24          1           0       -3.338052   -1.115800   -0.849565
     25          1           0       -1.765937   -0.547726   -1.403522
     26          1           0       -2.235997   -2.303574    1.055953
     27          1           0       -0.665126   -1.735766    0.501376
     28          1           0       -0.971964   -2.984834   -1.662498
     29          1           0       -2.551760   -3.555870   -1.104770
     30          1           0       -1.076975   -4.084435   -0.277160
     31          6           0       -2.450159    0.388898    0.413285
     32          6           0       -3.119818    1.591816   -0.251945
     33          6           0       -3.227086    2.799023    0.680224
     34          1           0       -3.019864    0.110825    1.310784
     35          1           0       -1.447750    0.678898    0.756826
     36          1           0       -4.120676    1.298863   -0.594114
     37          1           0       -2.549804    1.866673   -1.148691
     38          1           0       -2.234041    3.118968    1.012033
     39          1           0       -3.813838    2.547933    1.569761
     40          1           0       -3.708826    3.647533    0.184423
 ---------------------------------------------------------------------

 SCF Done:  E(RHF) =  -470.732054357     A.U. after   11 cycles
 E2 =    -0.1585542667D+01 EUMP2 =    -0.47231759702422D+03

 The electronic state is 1-A.
 Alpha  occ. eigenvalues --  -11.21663 -11.21657 -11.21619 -11.21601 -11.21471
 Alpha  occ. eigenvalues --  -11.21471 -11.21412 -11.21410 -11.21120 -11.21118
 Alpha  occ. eigenvalues --  -11.21117 -11.20990  -1.08554  -1.08430  -1.03679
 Alpha  occ. eigenvalues --   -1.03483  -0.96116  -0.95941  -0.87125  -0.86960
 Alpha  occ. eigenvalues --   -0.79713  -0.79572  -0.78352  -0.78262  -0.65593
 Alpha  occ. eigenvalues --   -0.64747  -0.61517  -0.60524  -0.59383  -0.59364
 Alpha  occ. eigenvalues --   -0.57687  -0.57599  -0.55623  -0.54962  -0.52780
 Alpha  occ. eigenvalues --   -0.52667  -0.52478  -0.52384  -0.50203  -0.49726
 Alpha  occ. eigenvalues --   -0.48052  -0.47855  -0.46848  -0.46471  -0.46099
 Alpha  occ. eigenvalues --   -0.45872  -0.45724  -0.45466  -0.43859  -0.43799
 Alpha virt. eigenvalues --    0.18834   0.22116   0.23756   0.24972   0.25491
 Alpha virt. eigenvalues --    0.26267   0.26503   0.28773   0.29204   0.30217
 Alpha virt. eigenvalues --    0.30688   0.31208   0.31470   0.31959   0.32180

 Mulliken charges:
               1
     1  C   -0.300658
     2  C   -0.303986
     3  C   -0.483872
     4  H    0.150308
     5  H    0.150362
     6  H    0.152905
     7  H    0.153632
     8  H    0.154950
     9  H    0.166499
    10  H    0.159682
    11  C   -0.299966
    12  C   -0.299643
    13  C   -0.475623
    14  H    0.150359
    15  H    0.150333
    16  H    0.151436
    17  H    0.152284
    18  H    0.155472
    19  H    0.154860
    20  H    0.160554
    21  C   -0.297819
    22  C   -0.310845
    23  C   -0.480061
    24  H    0.150080
    25  H    0.149064
    26  H    0.152246
    27  H    0.163911
    28  H    0.154637
    29  H    0.157022
    30  H    0.162433
    31  C   -0.300538
    32  C   -0.299628
    33  C   -0.475593
    34  H    0.149978
    35  H    0.150323
    36  H    0.152344
    37  H    0.151860
    38  H    0.154694
    39  H    0.155382
    40  H    0.160624
 Sum of Mulliken charges =  -0.00000

 Dipole moment (field-independent basis, Debye):
    X=             -0.0062    Y=             -0.0173    Z=             -0.0010  Tot=              0.0184
 Quadrupole moment (field-independent basis, Debye-Ang):
   XX=            -82.8665   YY=            -86.6755   ZZ=            -85.0680
   XY=              0.3538   XZ=             -0.2724   YZ=             -0.8752

 Normal termination of Gaussian 16 at Thu May  6 02:26:33 2021.
