 Gaussian 16, Revision A.03,
 Gaussian 16:  EM64L-G16RevA.03 25-Dec-2016

 -------------
 #p 6-31g* mp2
 -------------

 ------------------------------------------------------
 Input file generated by CHIRIPA (05-May-2021 14:51:11)
 ------------------------------------------------------
 Symbolic Z-matrix:
 Charge =  0 Multiplicity = 1

                         Standard orientation:
 ---------------------------------------------------------------------
 Center     Atomic      Atomic             Coordinates (Angstroms)
 Number     Number       Type             X           Y           Z
 ---------------------------------------------------------------------
      1          6           0       -4.308457    0.348907   -0.355708
      2          6           0       -4.584093    1.447411    0.671570
      3          6           0       -5.917391    2.157310    0.434601
      4          1           0       -4.318259    0.787004   -1.363140
      5          1           0       -5.125920   -0.384757   -0.325941
      6          1           0       -3.765660    2.178054    0.640842
      7          1           0       -4.573444    1.006684    1.676687
      8          1           0       -6.747404    1.445229    0.485784
      9          1           0       -5.935030    2.623254   -0.555947
     10          1           0       -6.094273    2.938687    1.180271
     11          6           0       -2.979202   -0.369970   -0.132045
     12          6           0       -2.703566   -1.468474   -1.159322
     13          6           0       -1.370268   -2.178372   -0.922353
     14          1           0       -2.161739    0.363695   -0.161811
     15          1           0       -2.969400   -0.808066    0.875388
     16          1           0       -2.714215   -1.027746   -2.164440
     17          1           0       -3.521999   -2.199116   -1.128594
     18          1           0       -1.352629   -2.644317    0.068195
     19          1           0       -0.540255   -1.466291   -0.973536
     20          1           0       -1.193386   -2.959749   -1.668023
     21          6           0        3.060742   -0.230922    0.674158
     22          6           0        2.693710   -1.695288    0.431459
     23          6           0        1.525460   -2.163618    1.299591
     24          1           0        3.312029   -0.093442    1.734771
     25          1           0        2.181309    0.397747    0.477261
     26          1           0        3.573963   -2.320882    0.627418
     27          1           0        2.443454   -1.829336   -0.628739
     28          1           0        0.631625   -1.564238    1.098593
     29          1           0        1.768558   -2.058576    2.361886
     30          1           0        1.279846   -3.213173    1.109939
     31          6           0        4.226916    0.251983   -0.186405
     32          6           0        4.593950    1.716350    0.056294
     33          6           0        5.762199    2.184681   -0.811840
     34          1           0        5.106350   -0.376684    0.010491
     35          1           0        3.975630    0.114505   -1.247018
     36          1           0        4.844206    1.850398    1.116491
     37          1           0        3.713695    2.341944   -0.139665
     38          1           0        5.519101    2.079638   -1.874134
     39          1           0        6.656034    1.585300   -0.610841
     40          1           0        6.007814    3.234236   -0.622186
 ---------------------------------------------------------------------

 SCF Done:  E(RHF) =  -470.731987609     A.U. after   11 cycles
 E2 =    -0.1583245375D+01 EUMP2 =    -0.47231523298397D+03

 The electronic state is 1-A.
 Alpha  occ. eigenvalues --  -11.21615 -11.21599 -11.21589 -11.21521 -11.21432
 Alpha  occ. eigenvalues --  -11.21377 -11.21372 -11.21316 -11.21082 -11.21063
 Alpha  occ. eigenvalues --  -11.21023 -11.20849  -1.08454  -1.08387  -1.03575
 Alpha  occ. eigenvalues --   -1.03443  -0.96068  -0.95850  -0.87117  -0.86839
 Alpha  occ. eigenvalues --   -0.79692  -0.79463  -0.78276  -0.78193  -0.65095
 Alpha  occ. eigenvalues --   -0.65018  -0.61005  -0.60860  -0.59370  -0.59286
 Alpha  occ. eigenvalues --   -0.57663  -0.57507  -0.55318  -0.55209  -0.52729
 Alpha  occ. eigenvalues --   -0.52656  -0.52431  -0.52219  -0.49935  -0.49863
 Alpha  occ. eigenvalues --   -0.48008  -0.47714  -0.46648  -0.46535  -0.45844
 Alpha  occ. eigenvalues --   -0.45739  -0.45704  -0.45568  -0.43801  -0.43721
 Alpha virt. eigenvalues --    0.21462   0.23025   0.23648   0.24822   0.26227
 Alpha virt. eigenvalues --    0.26645   0.27193   0.27575   0.27831   0.29349
 Alpha virt. eigenvalues --    0.30122   0.31454   0.31489   0.31971   0.32323

 Mulliken charges:
               1
     1  C   -0.298089
     2  C   -0.299687
     3  C   -0.475734
     4  H    0.149673
     5  H    0.149732
     6  H    0.151856
     7  H    0.152105
     8  H    0.155236
     9  H    0.155161
    10  H    0.160331
    11  C   -0.298846
    12  C   -0.300209
    13  C   -0.477852
    14  H    0.148576
    15  H    0.149998
    16  H    0.151497
    17  H    0.151893
    18  H    0.159225
    19  H    0.156857
    20  H    0.159745
    21  C   -0.298344
    22  C   -0.301407
    23  C   -0.477377
    24  H    0.149812
    25  H    0.148500
    26  H    0.151680
    27  H    0.152407
    28  H    0.160897
    29  H    0.153060
    30  H    0.159653
    31  C   -0.298216
    32  C   -0.299568
    33  C   -0.475676
    34  H    0.149614
    35  H    0.149409
    36  H    0.151979
    37  H    0.151629
    38  H    0.155090
    39  H    0.155220
    40  H    0.160171
 Sum of Mulliken charges =  -0.00000

 Dipole moment (field-independent basis, Debye):
    X=             -0.0386    Y=             -0.0210    Z=             -0.0034  Tot=              0.0441
 Quadrupole moment (field-independent basis, Debye-Ang):
   XX=            -85.7853   YY=            -84.8285   ZZ=            -84.2801
   XY=              0.3460   XZ=              0.5525   YZ=             -0.3149

 Normal termination of Gaussian 16 at Wed May  5 19:50:48 2021.
