 Gaussian 16, Revision A.03,
 Gaussian 16:  EM64L-G16RevA.03 25-Dec-2016

 -------------
 #p 6-31g* mp2
 -------------

 ------------------------------------------------------
 Input file generated by CHIRIPA (05-May-2021 14:51:14)
 ------------------------------------------------------
 Symbolic Z-matrix:
 Charge =  0 Multiplicity = 1

                         Standard orientation:
 ---------------------------------------------------------------------
 Center     Atomic      Atomic             Coordinates (Angstroms)
 Number     Number       Type             X           Y           Z
 ---------------------------------------------------------------------
      1          6           0       -2.845065   -0.429080   -0.300450
      2          6           0       -2.446089   -1.500556   -1.315705
      3          6           0       -3.022171   -2.876554   -0.980217
      4          1           0       -2.507156   -0.735921    0.698855
      5          1           0       -3.941187   -0.367430   -0.254502
      6          1           0       -1.351032   -1.559203   -1.360736
      7          1           0       -2.784819   -1.191038   -2.312739
      8          1           0       -4.116089   -2.840456   -0.954866
      9          1           0       -2.674155   -3.210712    0.002547
     10          1           0       -2.724529   -3.627355   -1.718842
     11          6           0       -2.276789    0.951949   -0.622236
     12          6           0       -2.675765    2.023425    0.393019
     13          6           0       -2.099683    3.399423    0.057531
     14          1           0       -1.180667    0.890299   -0.668184
     15          1           0       -2.614698    1.258790   -1.621541
     16          1           0       -2.337035    1.713907    1.390053
     17          1           0       -3.770822    2.082072    0.438050
     18          1           0       -2.447699    3.733581   -0.925233
     19          1           0       -1.005765    3.363325    0.032180
     20          1           0       -2.397325    4.150224    0.796156
     21          6           0        2.921823    0.254450    0.028851
     22          6           0        4.059986   -0.339975   -0.801348
     23          6           0        4.772348    0.704438   -1.661311
     24          1           0        2.197336    0.733603   -0.643813
     25          1           0        3.323334    1.049041    0.672906
     26          1           0        3.656688   -1.134149   -1.442640
     27          1           0        4.781749   -0.817935   -0.126643
     28          1           0        5.201444    1.492356   -1.033885
     29          1           0        4.069990    1.174346   -2.357359
     30          1           0        5.582319    0.257898   -2.246468
     31          6           0        2.200031   -0.777319    0.893836
     32          6           0        1.061868   -0.182895    1.724034
     33          6           0        0.349506   -1.227307    2.583997
     34          1           0        1.798520   -1.571911    0.249780
     35          1           0        2.924518   -1.256473    1.566499
     36          1           0        0.340105    0.295067    1.049329
     37          1           0        1.465166    0.611279    2.365325
     38          1           0        1.051864   -1.697215    3.280044
     39          1           0       -0.079590   -2.015224    1.956570
     40          1           0       -0.460465   -0.780768    3.169154
 ---------------------------------------------------------------------

 SCF Done:  E(RHF) =  -470.733252670     A.U. after   11 cycles
 E2 =    -0.1584232245D+01 EUMP2 =    -0.47231748491504D+03

 The electronic state is 1-A.
 Alpha  occ. eigenvalues --  -11.21659 -11.21645 -11.21641 -11.21617 -11.21471
 Alpha  occ. eigenvalues --  -11.21423 -11.21412 -11.21361 -11.21169 -11.21105
 Alpha  occ. eigenvalues --  -11.21095 -11.21074  -1.08523  -1.08433  -1.03592
 Alpha  occ. eigenvalues --   -1.03553  -0.96049  -0.95994  -0.87067  -0.87009
 Alpha  occ. eigenvalues --   -0.79663  -0.79613  -0.78345  -0.78237  -0.65451
 Alpha  occ. eigenvalues --   -0.64829  -0.60971  -0.60956  -0.59404  -0.59369
 Alpha  occ. eigenvalues --   -0.57653  -0.57609  -0.55402  -0.55211  -0.52737
 Alpha  occ. eigenvalues --   -0.52694  -0.52466  -0.52422  -0.50080  -0.49875
 Alpha  occ. eigenvalues --   -0.47997  -0.47927  -0.46769  -0.46626  -0.46077
 Alpha  occ. eigenvalues --   -0.45808  -0.45748  -0.45391  -0.43844  -0.43807
 Alpha virt. eigenvalues --    0.18716   0.22733   0.23020   0.24795   0.25179
 Alpha virt. eigenvalues --    0.26245   0.27225   0.27735   0.29420   0.29958
 Alpha virt. eigenvalues --    0.30092   0.31371   0.31722   0.31831   0.32386

 Mulliken charges:
               1
     1  C   -0.302013
     2  C   -0.299868
     3  C   -0.476232
     4  H    0.154188
     5  H    0.149823
     6  H    0.151029
     7  H    0.152166
     8  H    0.155548
     9  H    0.155474
    10  H    0.160294
    11  C   -0.302403
    12  C   -0.300820
    13  C   -0.475940
    14  H    0.151509
    15  H    0.150455
    16  H    0.152990
    17  H    0.152237
    18  H    0.155115
    19  H    0.155562
    20  H    0.160371
    21  C   -0.299039
    22  C   -0.299683
    23  C   -0.475819
    24  H    0.149334
    25  H    0.149862
    26  H    0.152099
    27  H    0.152153
    28  H    0.155249
    29  H    0.155425
    30  H    0.160428
    31  C   -0.298315
    32  C   -0.308917
    33  C   -0.476648
    34  H    0.149507
    35  H    0.150147
    36  H    0.160809
    37  H    0.152356
    38  H    0.155817
    39  H    0.155553
    40  H    0.160200
 Sum of Mulliken charges =  -0.00000

 Dipole moment (field-independent basis, Debye):
    X=              0.0028    Y=              0.0030    Z=              0.0128  Tot=              0.0134
 Quadrupole moment (field-independent basis, Debye-Ang):
   XX=            -84.0264   YY=            -86.2282   ZZ=            -84.3472
   XY=             -0.8069   XZ=              1.4195   YZ=              0.5655

 Normal termination of Gaussian 16 at Wed May  5 16:54:16 2021.
