 Gaussian 16, Revision A.03,
 Gaussian 16:  EM64L-G16RevA.03 25-Dec-2016

 -------------
 #p 6-31g* mp2
 -------------

 ------------------------------------------------------
 Input file generated by CHIRIPA (05-May-2021 14:57:26)
 ------------------------------------------------------
 Symbolic Z-matrix:
 Charge =  0 Multiplicity = 1

                         Standard orientation:
 ---------------------------------------------------------------------
 Center     Atomic      Atomic             Coordinates (Angstroms)
 Number     Number       Type             X           Y           Z
 ---------------------------------------------------------------------
      1          6           0       -3.106049    2.483850   -0.090682
      2          6           0       -4.454936    2.212322   -0.342269
      3          6           0       -4.930452    0.897787   -0.321525
      4          6           0       -4.025322   -0.125573   -0.044461
      5          6           0       -2.675672    0.112870    0.210252
      6          6           0       -2.222280    1.435106    0.184290
      7          1           0       -2.745249    3.508004   -0.108823
      8          1           0       -5.143559    3.024799   -0.556104
      9          1           0       -5.969668    0.659266   -0.512721
     10          1           0       -2.013202   -0.718030    0.420390
     11          1           0       -1.174187    1.643011    0.380051
     12          7           0       -4.517019   -1.521289   -0.019739
     13          8           0       -3.699351   -2.405156    0.226907
     14          8           0       -5.710769   -1.704956   -0.247475
     15          6           0        1.526842   -0.174406    0.767561
     16          6           0        2.533657    0.032074    1.716355
     17          6           0        3.876457    0.072686    1.329333
     18          6           0        4.177994   -0.097695   -0.020977
     19          6           0        3.197551   -0.305170   -0.989983
     20          6           0        1.861412   -0.342073   -0.580203
     21          1           0        0.486309   -0.204513    1.077050
     22          1           0        2.276767    0.162595    2.763741
     23          1           0        4.675903    0.230988    2.042945
     24          1           0        3.484626   -0.432035   -2.026763
     25          1           0        1.081602   -0.502591   -1.319241
     26          7           0        5.596030   -0.056665   -0.442746
     27          8           0        5.835518   -0.209510   -1.638540
     28          8           0        6.441149    0.127563    0.430449
 ---------------------------------------------------------------------

 SCF Done:  E(RHF) =  -868.336649823     A.U. after   16 cycles
 E2 =    -0.2600481472D+01 EUMP2 =    -0.87093713129458D+03

 The electronic state is 1-A.
 Alpha  occ. eigenvalues --  -20.61512 -20.61497 -20.61157 -20.61151 -15.86566
 Alpha  occ. eigenvalues --  -15.86212 -11.32058 -11.31721 -11.28749 -11.28564
 Alpha  occ. eigenvalues --  -11.28333 -11.28265 -11.28261 -11.28178 -11.27718
 Alpha  occ. eigenvalues --  -11.27577 -11.27380 -11.27366  -1.60580  -1.60228
 Alpha  occ. eigenvalues --   -1.40131  -1.39777  -1.20227  -1.19905  -1.09580
 Alpha  occ. eigenvalues --   -1.09308  -1.05674  -1.05309  -0.96407  -0.96117
 Alpha  occ. eigenvalues --   -0.87042  -0.86718  -0.83274  -0.82915  -0.78307
 Alpha  occ. eigenvalues --   -0.77921  -0.72780  -0.72429  -0.71906  -0.71550
 Alpha  occ. eigenvalues --   -0.71403  -0.71031  -0.65884  -0.65674  -0.65564
 Alpha  occ. eigenvalues --   -0.65314  -0.63032  -0.62632  -0.56182  -0.55823
 Alpha  occ. eigenvalues --   -0.53959  -0.53828  -0.53580  -0.53402  -0.49547
 Alpha  occ. eigenvalues --   -0.49528  -0.49200  -0.49174  -0.45511  -0.45150
 Alpha  occ. eigenvalues --   -0.38169  -0.37941  -0.37277  -0.36893
 Alpha virt. eigenvalues --    0.04258   0.04543   0.10383   0.10737   0.15726
 Alpha virt. eigenvalues --    0.15868   0.18046   0.21980   0.24777   0.26877
 Alpha virt. eigenvalues --    0.27193   0.29781   0.29921   0.30836   0.31893

 Mulliken charges:
               1
     1  C   -0.170358
     2  C   -0.217863
     3  C   -0.169736
     4  C    0.161127
     5  C   -0.178638
     6  C   -0.222058
     7  H    0.229205
     8  H    0.227034
     9  H    0.278493
    10  H    0.269722
    11  H    0.221313
    12  N    0.488445
    13  O   -0.461330
    14  O   -0.456957
    15  C   -0.178509
    16  C   -0.218606
    17  C   -0.170457
    18  C    0.159795
    19  C   -0.170223
    20  C   -0.219604
    21  H    0.221778
    22  H    0.225937
    23  H    0.277567
    24  H    0.278063
    25  H    0.225420
    26  N    0.487809
    27  O   -0.458579
    28  O   -0.458790
 Sum of Mulliken charges =  -0.00000

 Dipole moment (field-independent basis, Debye):
    X=             -3.2933    Y=              4.8398    Z=              1.3241  Tot=              6.0019
 Quadrupole moment (field-independent basis, Debye-Ang):
   XX=           -154.2769   YY=           -106.4515   ZZ=           -100.8806
   XY=            -22.1599   XZ=              9.4654   YZ=              0.0721

 Normal termination of Gaussian 16 at Thu May  6 02:02:04 2021.
