 Gaussian 16, Revision A.03,
 Gaussian 16:  EM64L-G16RevA.03 25-Dec-2016

 -------------
 #p 6-31g* mp2
 -------------

 ------------------------------------------------------
 Input file generated by CHIRIPA (05-May-2021 14:57:21)
 ------------------------------------------------------
 Symbolic Z-matrix:
 Charge =  0 Multiplicity = 1

                         Standard orientation:
 ---------------------------------------------------------------------
 Center     Atomic      Atomic             Coordinates (Angstroms)
 Number     Number       Type             X           Y           Z
 ---------------------------------------------------------------------
      1          6           0        0.805198   -1.265255    1.977829
      2          6           0        1.312935   -2.108917    0.984371
      3          6           0        2.261631   -1.639587    0.070996
      4          6           0        2.682265   -0.315070    0.180593
      5          6           0        2.195232    0.549979    1.159255
      6          6           0        1.247188    0.059166    2.061952
      7          1           0        0.068481   -1.638186    2.683213
      8          1           0        0.971505   -3.137938    0.916655
      9          1           0        2.671326   -2.271114   -0.707940
     10          1           0        2.554816    1.570921    1.201630
     11          1           0        0.854615    0.716629    2.832453
     12          7           0        3.686263    0.193160   -0.780703
     13          8           0        4.040608    1.364146   -0.662934
     14          8           0        4.099840   -0.589098   -1.633735
     15          6           0       -0.823795    2.257769   -0.129196
     16          6           0       -0.547121    1.146336   -0.932121
     17          6           0       -1.477792    0.110425   -1.055765
     18          6           0       -2.680467    0.219118   -0.359313
     19          6           0       -2.985337    1.313614    0.448415
     20          6           0       -2.039876    2.337719    0.557300
     21          1           0       -0.095082    3.057905   -0.038878
     22          1           0        0.396477    1.081560   -1.466417
     23          1           0       -1.289379   -0.761351   -1.670523
     24          1           0       -3.934671    1.349887    0.968864
     25          1           0       -2.257445    3.199684    1.181579
     26          7           0       -3.673557   -0.871307   -0.482396
     27          8           0       -4.725763   -0.751657    0.141448
     28          8           0       -3.380928   -1.824985   -1.200384
 ---------------------------------------------------------------------

 SCF Done:  E(RHF) =  -868.336739842     A.U. after   16 cycles
 E2 =    -0.2604497453D+01 EUMP2 =    -0.87094123729509D+03

 The electronic state is 1-A.
 Alpha  occ. eigenvalues --  -20.61541 -20.61520 -20.61161 -20.61156 -15.86579
 Alpha  occ. eigenvalues --  -15.86210 -11.31822 -11.31507 -11.28387 -11.28336
 Alpha  occ. eigenvalues --  -11.28081 -11.27993 -11.27980 -11.27754 -11.27316
 Alpha  occ. eigenvalues --  -11.27287 -11.27098 -11.26958  -1.60623  -1.60242
 Alpha  occ. eigenvalues --   -1.40174  -1.39796  -1.20000  -1.19648  -1.09374
 Alpha  occ. eigenvalues --   -1.09079  -1.05356  -1.05042  -0.96236  -0.95919
 Alpha  occ. eigenvalues --   -0.86752  -0.86450  -0.83065  -0.82747  -0.78148
 Alpha  occ. eigenvalues --   -0.77813  -0.72781  -0.72427  -0.71983  -0.71573
 Alpha  occ. eigenvalues --   -0.71055  -0.70757  -0.65609  -0.65338  -0.65292
 Alpha  occ. eigenvalues --   -0.65056  -0.62702  -0.62406  -0.55793  -0.55559
 Alpha  occ. eigenvalues --   -0.54413  -0.53420  -0.53162  -0.52665  -0.49558
 Alpha  occ. eigenvalues --   -0.49529  -0.49188  -0.49178  -0.45592  -0.45216
 Alpha  occ. eigenvalues --   -0.38203  -0.37868  -0.36746  -0.36237
 Alpha virt. eigenvalues --    0.04219   0.04791   0.10553   0.11129   0.15693
 Alpha virt. eigenvalues --    0.16389   0.20473   0.21371   0.26265   0.26720
 Alpha virt. eigenvalues --    0.27515   0.28624   0.30424   0.30677   0.32060

 Mulliken charges:
               1
     1  C   -0.169443
     2  C   -0.218004
     3  C   -0.176244
     4  C    0.153571
     5  C   -0.176360
     6  C   -0.208866
     7  H    0.230537
     8  H    0.230026
     9  H    0.277508
    10  H    0.270785
    11  H    0.223080
    12  N    0.486376
    13  O   -0.462922
    14  O   -0.457402
    15  C   -0.174014
    16  C   -0.210553
    17  C   -0.170958
    18  C    0.156160
    19  C   -0.173672
    20  C   -0.221876
    21  H    0.226769
    22  H    0.227498
    23  H    0.275004
    24  H    0.274786
    25  H    0.222561
    26  N    0.487482
    27  O   -0.460809
    28  O   -0.461021
 Sum of Mulliken charges =  -0.00000

 Dipole moment (field-independent basis, Debye):
    X=             -0.0021    Y=              1.8833    Z=              3.8916  Tot=              4.3233
 Quadrupole moment (field-independent basis, Debye-Ang):
   XX=           -142.6280   YY=            -97.2151   ZZ=           -101.8628
   XY=            -15.3438   XZ=              3.8342   YZ=              1.0910

 Normal termination of Gaussian 16 at Thu May  6 19:27:15 2021.
