 Gaussian 16, Revision A.03,
 Gaussian 16:  EM64L-G16RevA.03 25-Dec-2016

 -------------
 #p 6-31g* mp2
 -------------

 ------------------------------------------------------
 Input file generated by CHIRIPA (05-May-2021 14:51:13)
 ------------------------------------------------------
 Symbolic Z-matrix:
 Charge =  0 Multiplicity = 1

                         Standard orientation:
 ---------------------------------------------------------------------
 Center     Atomic      Atomic             Coordinates (Angstroms)
 Number     Number       Type             X           Y           Z
 ---------------------------------------------------------------------
      1          6           0        3.325558    0.173779   -0.119967
      2          6           0        3.069285   -1.055860   -0.991918
      3          6           0        4.195131   -2.086790   -0.905618
      4          1           0        4.274097    0.638436   -0.422146
      5          1           0        3.452432   -0.145472    0.923765
      6          1           0        2.941557   -0.734244   -2.033486
      7          1           0        2.121150   -1.517533   -0.687755
      8          1           0        4.319661   -2.435909    0.124532
      9          1           0        5.144729   -1.648169   -1.228845
     10          1           0        3.991397   -2.957521   -1.536634
     11          6           0        2.208845    1.213472   -0.195598
     12          6           0        2.465118    2.443110    0.676352
     13          6           0        1.339273    3.474041    0.590053
     14          1           0        2.081971    1.532723   -1.239330
     15          1           0        1.260306    0.748815    0.106580
     16          1           0        3.413253    2.904783    0.372190
     17          1           0        2.592846    2.121495    1.717920
     18          1           0        0.389674    3.035420    0.913279
     19          1           0        1.214742    3.823159   -0.440098
     20          1           0        1.543006    4.344771    1.221069
     21          6           0       -2.122365   -0.800259    0.553063
     22          6           0       -1.665861   -2.259187    0.586500
     23          6           0       -0.374488   -2.456466    1.381001
     24          1           0       -1.324537   -0.182941    0.117939
     25          1           0       -2.266318   -0.444691    1.582746
     26          1           0       -1.524145   -2.612313   -0.442982
     27          1           0       -2.464943   -2.873131    1.021420
     28          1           0       -0.506509   -2.130703    2.417846
     29          1           0        0.439635   -1.868404    0.945125
     30          1           0       -0.066316   -3.506595    1.391951
     31          6           0       -3.412039   -0.586992   -0.237498
     32          6           0       -3.868542    0.871936   -0.270934
     33          6           0       -5.159916    1.069215   -1.065435
     34          1           0       -3.268086   -0.942559   -1.267180
     35          1           0       -4.209866   -1.204310    0.197627
     36          1           0       -3.069459    1.485880   -0.705854
     37          1           0       -4.010257    1.225063    0.758548
     38          1           0       -5.974038    0.481154   -0.629559
     39          1           0       -5.027894    0.743453   -2.102282
     40          1           0       -5.468087    2.119345   -1.076386
 ---------------------------------------------------------------------

 SCF Done:  E(RHF) =  -470.733216622     A.U. after   11 cycles
 E2 =    -0.1583698396D+01 EUMP2 =    -0.47231691501771D+03

 The electronic state is 1-A.
 Alpha  occ. eigenvalues --  -11.21647 -11.21608 -11.21608 -11.21603 -11.21439
 Alpha  occ. eigenvalues --  -11.21425 -11.21375 -11.21365 -11.21122 -11.21073
 Alpha  occ. eigenvalues --  -11.21068 -11.21067  -1.08476  -1.08434  -1.03568
 Alpha  occ. eigenvalues --   -1.03528  -0.96014  -0.95984  -0.87045  -0.86987
 Alpha  occ. eigenvalues --   -0.79646  -0.79584  -0.78353  -0.78190  -0.65249
 Alpha  occ. eigenvalues --   -0.64947  -0.61077  -0.60828  -0.59379  -0.59355
 Alpha  occ. eigenvalues --   -0.57620  -0.57596  -0.55329  -0.55252  -0.52703
 Alpha  occ. eigenvalues --   -0.52679  -0.52466  -0.52384  -0.50080  -0.49824
 Alpha  occ. eigenvalues --   -0.47997  -0.47883  -0.46807  -0.46578  -0.46110
 Alpha  occ. eigenvalues --   -0.45770  -0.45757  -0.45254  -0.43814  -0.43792
 Alpha virt. eigenvalues --    0.19770   0.23038   0.23681   0.24226   0.25560
 Alpha virt. eigenvalues --    0.26940   0.27119   0.27488   0.28169   0.29750
 Alpha virt. eigenvalues --    0.30561   0.31597   0.31703   0.31830   0.32170

 Mulliken charges:
               1
     1  C   -0.297905
     2  C   -0.306367
     3  C   -0.475297
     4  H    0.149998
     5  H    0.150055
     6  H    0.151827
     7  H    0.157481
     8  H    0.155641
     9  H    0.155161
    10  H    0.160201
    11  C   -0.305810
    12  C   -0.299220
    13  C   -0.476307
    14  H    0.149321
    15  H    0.155429
    16  H    0.152051
    17  H    0.152299
    18  H    0.155974
    19  H    0.154873
    20  H    0.160354
    21  C   -0.303740
    22  C   -0.299297
    23  C   -0.484046
    24  H    0.154136
    25  H    0.149342
    26  H    0.152243
    27  H    0.152392
    28  H    0.155312
    29  H    0.162226
    30  H    0.160700
    31  C   -0.298072
    32  C   -0.299988
    33  C   -0.475732
    34  H    0.149798
    35  H    0.149811
    36  H    0.152525
    37  H    0.151826
    38  H    0.155134
    39  H    0.155254
    40  H    0.160419
 Sum of Mulliken charges =  -0.00000

 Dipole moment (field-independent basis, Debye):
    X=             -0.0064    Y=             -0.0031    Z=              0.0033  Tot=              0.0079
 Quadrupole moment (field-independent basis, Debye-Ang):
   XX=            -85.6018   YY=            -85.3366   ZZ=            -83.7377
   XY=              1.1911   XZ=             -1.2740   YZ=             -0.3519

 Normal termination of Gaussian 16 at Wed May  5 15:21:41 2021.
