 Gaussian 16, Revision A.03,
 Gaussian 16:  EM64L-G16RevA.03 25-Dec-2016

 -------------
 #p 6-31g* mp2
 -------------

 ------------------------------------------------------
 Input file generated by CHIRIPA (05-May-2021 14:55:19)
 ------------------------------------------------------
 Symbolic Z-matrix:
 Charge =  0 Multiplicity = 1

                         Standard orientation:
 ---------------------------------------------------------------------
 Center     Atomic      Atomic             Coordinates (Angstroms)
 Number     Number       Type             X           Y           Z
 ---------------------------------------------------------------------
      1          6           0        3.996451   -1.697817    0.226083
      2          6           0        4.345632   -0.682758   -0.670716
      3          6           0        3.616360    0.509271   -0.712867
      4          6           0        2.538953    0.653271    0.159916
      5          6           0        2.166329   -0.339612    1.064694
      6          6           0        2.909829   -1.523312    1.089404
      7          1           0        4.568493   -2.620578    0.252052
      8          1           0        5.189034   -0.815518   -1.342351
      9          1           0        3.864867    1.311371   -1.397190
     10          1           0        1.320496   -0.178166    1.721899
     11          1           0        2.636364   -2.309914    1.786912
     12          7           0        1.759374    1.910810    0.124524
     13          8           0        0.814474    2.013102    0.903843
     14          8           0        2.108001    2.770364   -0.681864
     15          6           0       -4.050958   -0.491806    0.202413
     16          6           0       -5.035639    0.519527   -0.385462
     17          6           0       -6.304313    0.666684    0.455137
     18          1           0       -4.547671   -1.467510    0.293085
     19          1           0       -3.782557   -0.181766    1.221840
     20          1           0       -5.301034    0.208415   -1.403986
     21          1           0       -4.536465    1.492891   -0.474923
     22          1           0       -6.058443    0.999933    1.468592
     23          1           0       -6.827356   -0.291840    0.534251
     24          1           0       -6.994227    1.394462    0.016710
     25          6           0       -2.777682   -0.649989   -0.626729
     26          6           0       -1.793000   -1.661320   -0.038854
     27          6           0       -0.524327   -1.808478   -0.879452
     28          1           0       -3.046083   -0.960027   -1.646156
     29          1           0       -2.280969    0.325716   -0.717401
     30          1           0       -2.292175   -2.634684    0.050606
     31          1           0       -1.527605   -1.350210    0.979670
     32          1           0       -0.001284   -0.849954   -0.958567
     33          1           0       -0.770197   -2.141726   -1.892909
     34          1           0        0.165587   -2.536256   -0.441026
 ---------------------------------------------------------------------

 SCF Done:  E(RHF) =  -669.535056258     A.U. after   15 cycles
 E2 =    -0.2092919411D+01 EUMP2 =    -0.67162797566885D+03

 The electronic state is 1-A.
 Alpha  occ. eigenvalues --  -20.60862 -20.60856 -15.85906 -11.31202 -11.27801
 Alpha  occ. eigenvalues --  -11.27791 -11.27541 -11.26786 -11.26775 -11.21509
 Alpha  occ. eigenvalues --  -11.21197 -11.21050 -11.20997 -11.20990 -11.20720
 Alpha  occ. eigenvalues --   -1.59934  -1.39488  -1.19401  -1.08804  -1.08127
 Alpha  occ. eigenvalues --   -1.04799  -1.03286  -0.95749  -0.95628  -0.86756
 Alpha  occ. eigenvalues --   -0.86197  -0.82477  -0.79356  -0.77926  -0.77530
 Alpha  occ. eigenvalues --   -0.72124  -0.71264  -0.70515  -0.65055  -0.64831
 Alpha  occ. eigenvalues --   -0.64717  -0.62154  -0.60688  -0.59126  -0.57348
 Alpha  occ. eigenvalues --   -0.55316  -0.55080  -0.53188  -0.52886  -0.52344
 Alpha  occ. eigenvalues --   -0.52160  -0.49641  -0.48885  -0.48878  -0.47678
 Alpha  occ. eigenvalues --   -0.46381  -0.45483  -0.45376  -0.44876  -0.43523
 Alpha  occ. eigenvalues --   -0.37356  -0.36326
 Alpha virt. eigenvalues --    0.04984   0.11192   0.16439   0.20909   0.23073
 Alpha virt. eigenvalues --    0.24302   0.26455   0.27241   0.27617   0.28270
 Alpha virt. eigenvalues --    0.28701   0.30133   0.31499   0.31628   0.32167

 Mulliken charges:
               1
     1  C   -0.170553
     2  C   -0.218456
     3  C   -0.171106
     4  C    0.157607
     5  C   -0.166859
     6  C   -0.217619
     7  H    0.225842
     8  H    0.223555
     9  H    0.275751
    10  H    0.276059
    11  H    0.223503
    12  N    0.488048
    13  O   -0.461522
    14  O   -0.459858
    15  C   -0.298217
    16  C   -0.300470
    17  C   -0.475704
    18  H    0.146634
    19  H    0.151206
    20  H    0.150481
    21  H    0.156983
    22  H    0.155867
    23  H    0.153200
    24  H    0.160060
    25  C   -0.300533
    26  C   -0.299379
    27  C   -0.476272
    28  H    0.147884
    29  H    0.160462
    30  H    0.149715
    31  H    0.148096
    32  H    0.157244
    33  H    0.154751
    34  H    0.153599
 Sum of Mulliken charges =  -0.00000

 Dipole moment (field-independent basis, Debye):
    X=              2.8233    Y=             -4.3213    Z=              0.1168  Tot=              5.1631
 Quadrupole moment (field-independent basis, Debye-Ang):
   XX=            -80.2893   YY=           -100.2995   ZZ=            -92.4828
   XY=             -8.2813   XZ=             -1.0262   YZ=             -1.8740

 Normal termination of Gaussian 16 at Thu May  6 06:05:42 2021.
