 Gaussian 16, Revision A.03,
 Gaussian 16:  EM64L-G16RevA.03 25-Dec-2016

 -------------
 #p 6-31g* mp2
 -------------

 ------------------------------------------------------
 Input file generated by CHIRIPA (05-May-2021 14:51:10)
 ------------------------------------------------------
 Symbolic Z-matrix:
 Charge =  0 Multiplicity = 1

                         Standard orientation:
 ---------------------------------------------------------------------
 Center     Atomic      Atomic             Coordinates (Angstroms)
 Number     Number       Type             X           Y           Z
 ---------------------------------------------------------------------
      1          6           0        3.305969   -0.396039    0.123020
      2          6           0        2.585946   -1.743669    0.181716
      3          6           0        1.084189   -1.601165    0.431141
      4          1           0        3.138910    0.143108    1.065547
      5          1           0        2.857943    0.216887   -0.671328
      6          1           0        3.036109   -2.354397    0.974799
      7          1           0        2.754898   -2.279751   -0.760986
      8          1           0        0.615477   -1.013752   -0.365009
      9          1           0        0.898286   -1.088821    1.380638
     10          1           0        0.589239   -2.576574    0.469381
     11          6           0        4.807962   -0.522004   -0.125733
     12          6           0        5.527985    0.825626   -0.184429
     13          6           0        7.029742    0.683123   -0.433854
     14          1           0        5.255989   -1.134930    0.668616
     15          1           0        4.975022   -1.061150   -1.068260
     16          1           0        5.359033    1.361708    0.758273
     17          1           0        5.077822    1.436354   -0.977511
     18          1           0        7.215645    0.170779   -1.383351
     19          1           0        7.498455    0.095709    0.362296
     20          1           0        7.524693    1.658531   -0.472094
     21          6           0       -3.312870    0.417676    0.168824
     22          6           0       -2.605563    1.772627    0.126278
     23          6           0       -1.117535    1.673550    0.463549
     24          1           0       -3.190444   -0.021474    1.168375
     25          1           0       -2.821045   -0.267135   -0.535830
     26          1           0       -3.099445    2.455098    0.829791
     27          1           0       -2.729851    2.208689   -0.873231
     28          1           0       -0.605126    1.014178   -0.244453
     29          1           0       -0.976820    1.261986    1.468245
     30          1           0       -0.631539    2.653524    0.427229
     31          6           0       -4.801061    0.500367   -0.166111
     32          6           0       -5.508368   -0.854584   -0.123565
     33          6           0       -6.996396   -0.755507   -0.460836
     34          1           0       -5.292886    1.185177    0.538543
     35          1           0       -4.923487    0.939517   -1.165663
     36          1           0       -5.384081   -1.290646    0.875944
     37          1           0       -5.014487   -1.537055   -0.827078
     38          1           0       -7.137111   -0.343944   -1.465532
     39          1           0       -7.508804   -0.096134    0.247165
     40          1           0       -7.482392   -1.735481   -0.424516
 ---------------------------------------------------------------------

 SCF Done:  E(RHF) =  -470.732857589     A.U. after   11 cycles
 E2 =    -0.1582684158D+01 EUMP2 =    -0.47231554174798D+03

 The electronic state is 1-A.
 Alpha  occ. eigenvalues --  -11.21577 -11.21571 -11.21559 -11.21541 -11.21371
 Alpha  occ. eigenvalues --  -11.21360 -11.21311 -11.21298 -11.21053 -11.21048
 Alpha  occ. eigenvalues --  -11.20994 -11.20957  -1.08401  -1.08379  -1.03519
 Alpha  occ. eigenvalues --   -1.03459  -0.95988  -0.95887  -0.87029  -0.86880
 Alpha  occ. eigenvalues --   -0.79654  -0.79455  -0.78240  -0.78157  -0.65054
 Alpha  occ. eigenvalues --   -0.64994  -0.60984  -0.60805  -0.59327  -0.59291
 Alpha  occ. eigenvalues --   -0.57725  -0.57392  -0.55364  -0.55099  -0.52647
 Alpha  occ. eigenvalues --   -0.52636  -0.52608  -0.52106  -0.50042  -0.49730
 Alpha  occ. eigenvalues --   -0.48122  -0.47600  -0.46715  -0.46452  -0.45847
 Alpha  occ. eigenvalues --   -0.45707  -0.45657  -0.45523  -0.43752  -0.43735
 Alpha virt. eigenvalues --    0.21965   0.23036   0.23539   0.24833   0.25579
 Alpha virt. eigenvalues --    0.26621   0.27029   0.27533   0.27916   0.29386
 Alpha virt. eigenvalues --    0.29559   0.31586   0.31876   0.32073   0.32286

 Mulliken charges:
               1
     1  C   -0.298143
     2  C   -0.300016
     3  C   -0.477344
     4  H    0.150092
     5  H    0.149366
     6  H    0.151640
     7  H    0.151421
     8  H    0.157269
     9  H    0.156742
    10  H    0.159591
    11  C   -0.298249
    12  C   -0.299602
    13  C   -0.475686
    14  H    0.149449
    15  H    0.149448
    16  H    0.152006
    17  H    0.151919
    18  H    0.155095
    19  H    0.155132
    20  H    0.160180
    21  C   -0.298134
    22  C   -0.299948
    23  C   -0.478012
    24  H    0.149831
    25  H    0.149628
    26  H    0.151481
    27  H    0.151317
    28  H    0.159530
    29  H    0.155159
    30  H    0.159293
    31  C   -0.298249
    32  C   -0.299585
    33  C   -0.475675
    34  H    0.149418
    35  H    0.149413
    36  H    0.151953
    37  H    0.151919
    38  H    0.155085
    39  H    0.155119
    40  H    0.160148
 Sum of Mulliken charges =  -0.00000

 Dipole moment (field-independent basis, Debye):
    X=              0.0086    Y=             -0.0062    Z=              0.0104  Tot=              0.0148
 Quadrupole moment (field-independent basis, Debye-Ang):
   XX=            -87.3064   YY=            -84.8918   ZZ=            -82.8171
   XY=             -0.1408   XZ=             -0.0912   YZ=              0.0826

 Normal termination of Gaussian 16 at Wed May  5 15:10:02 2021.
