 Gaussian 16, Revision A.03,
 Gaussian 16:  EM64L-G16RevA.03 25-Dec-2016

 -------------
 #p 6-31g* mp2
 -------------

 ------------------------------------------------------
 Input file generated by CHIRIPA (05-May-2021 14:57:25)
 ------------------------------------------------------
 Symbolic Z-matrix:
 Charge =  0 Multiplicity = 1

                         Standard orientation:
 ---------------------------------------------------------------------
 Center     Atomic      Atomic             Coordinates (Angstroms)
 Number     Number       Type             X           Y           Z
 ---------------------------------------------------------------------
      1          6           0        2.925775    2.498258    0.504755
      2          6           0        1.626876    2.048321    0.246033
      3          6           0        1.396262    0.720397   -0.125429
      4          6           0        2.492658   -0.134280   -0.229032
      5          6           0        3.798491    0.284024    0.022193
      6          6           0        4.005534    1.616229    0.392207
      7          1           0        3.095766    3.531484    0.792753
      8          1           0        0.786415    2.731086    0.332650
      9          1           0        0.401027    0.345616   -0.331499
     10          1           0        4.616221   -0.420089   -0.072466
     11          1           0        5.015359    1.962884    0.592528
     12          7           0        2.260994   -1.542359   -0.621516
     13          8           0        3.243875   -2.275492   -0.705770
     14          8           0        1.100922   -1.886217   -0.837459
     15          6           0       -3.345079    1.944556   -1.073299
     16          6           0       -3.259993    0.714011   -1.732876
     17          6           0       -2.810230   -0.424200   -1.057054
     18          6           0       -2.452121   -0.295235    0.283996
     19          6           0       -2.525808    0.916795    0.968718
     20          6           0       -2.978362    2.041848    0.273019
     21          1           0       -3.695550    2.823636   -1.606014
     22          1           0       -3.544119    0.635490   -2.778415
     23          1           0       -2.734576   -1.389193   -1.543350
     24          1           0       -2.235501    0.963853    2.011275
     25          1           0       -3.043416    2.996211    0.787805
     26          7           0       -1.974500   -1.493244    1.009980
     27          8           0       -1.664980   -1.353272    2.191184
     28          8           0       -1.918704   -2.549531    0.384056
 ---------------------------------------------------------------------

 SCF Done:  E(RHF) =  -868.336317850     A.U. after   16 cycles
 E2 =    -0.2603435697D+01 EUMP2 =    -0.87093975354721D+03

 The electronic state is 1-A.
 Alpha  occ. eigenvalues --  -20.60513 -20.60376 -20.60344 -20.60302 -15.85507
 Alpha  occ. eigenvalues --  -15.85370 -11.31347 -11.30907 -11.28041 -11.27887
 Alpha  occ. eigenvalues --  -11.27787 -11.27502 -11.27495 -11.27316 -11.27137
 Alpha  occ. eigenvalues --  -11.26994 -11.26596 -11.26565  -1.59503  -1.59386
 Alpha  occ. eigenvalues --   -1.39044  -1.38938  -1.19597  -1.19107  -1.08880
 Alpha  occ. eigenvalues --   -1.08478  -1.05031  -1.04543  -0.95625  -0.95281
 Alpha  occ. eigenvalues --   -0.86388  -0.85945  -0.82445  -0.82113  -0.77413
 Alpha  occ. eigenvalues --   -0.77143  -0.71758  -0.71633  -0.70859  -0.70628
 Alpha  occ. eigenvalues --   -0.70608  -0.70234  -0.65195  -0.64995  -0.64764
 Alpha  occ. eigenvalues --   -0.64572  -0.62333  -0.61923  -0.55485  -0.55090
 Alpha  occ. eigenvalues --   -0.53401  -0.53084  -0.52854  -0.52587  -0.48526
 Alpha  occ. eigenvalues --   -0.48457  -0.48359  -0.48343  -0.44483  -0.44125
 Alpha  occ. eigenvalues --   -0.37601  -0.37104  -0.36695  -0.36121
 Alpha virt. eigenvalues --    0.05107   0.05412   0.10942   0.11514   0.16477
 Alpha virt. eigenvalues --    0.16872   0.21085   0.21543   0.26764   0.27416
 Alpha virt. eigenvalues --    0.28175   0.28277   0.30381   0.31290   0.32375

 Mulliken charges:
               1
     1  C   -0.170844
     2  C   -0.221952
     3  C   -0.172218
     4  C    0.159562
     5  C   -0.169702
     6  C   -0.218733
     7  H    0.223115
     8  H    0.218025
     9  H    0.278609
    10  H    0.275922
    11  H    0.222556
    12  N    0.488621
    13  O   -0.460763
    14  O   -0.457516
    15  C   -0.172854
    16  C   -0.218406
    17  C   -0.169004
    18  C    0.150078
    19  C   -0.179384
    20  C   -0.222753
    21  H    0.225732
    22  H    0.226202
    23  H    0.284573
    24  H    0.276310
    25  H    0.221618
    26  N    0.492311
    27  O   -0.465633
    28  O   -0.443474
 Sum of Mulliken charges =  -0.00000

 Dipole moment (field-independent basis, Debye):
    X=             -0.9844    Y=              8.7238    Z=             -1.3049  Tot=              8.8756
 Quadrupole moment (field-independent basis, Debye-Ang):
   XX=            -88.1887   YY=           -107.9134   ZZ=           -104.5701
   XY=              2.1591   XZ=             10.4880   YZ=              3.2565

 Normal termination of Gaussian 16 at Thu May  6 01:59:42 2021.
