 Gaussian 16, Revision A.03,
 Gaussian 16:  EM64L-G16RevA.03 25-Dec-2016

 -------------
 #p 6-31g* mp2
 -------------

 ------------------------------------------------------
 Input file generated by CHIRIPA (05-May-2021 14:51:12)
 ------------------------------------------------------
 Symbolic Z-matrix:
 Charge =  0 Multiplicity = 1

                         Standard orientation:
 ---------------------------------------------------------------------
 Center     Atomic      Atomic             Coordinates (Angstroms)
 Number     Number       Type             X           Y           Z
 ---------------------------------------------------------------------
      1          6           0       -2.362012   -0.626015    0.785951
      2          6           0       -1.555320    0.278271    1.718421
      3          6           0       -0.463895   -0.477738    2.476732
      4          1           0       -2.815554   -1.436214    1.373165
      5          1           0       -1.679819   -1.103630    0.069089
      6          1           0       -2.239012    0.755107    2.432429
      7          1           0       -1.103802    1.086521    1.128947
      8          1           0        0.240969   -0.940015    1.778113
      9          1           0       -0.900691   -1.273312    3.089000
     10          1           0        0.100447    0.187745    3.137422
     11          6           0       -3.456923    0.115298    0.020867
     12          6           0       -4.263615   -0.788987   -0.911604
     13          6           0       -5.355040   -0.032978   -1.669915
     14          1           0       -4.139116    0.592914    0.737729
     15          1           0       -3.003381    0.925498   -0.566348
     16          1           0       -4.715132   -1.597238   -0.322130
     17          1           0       -3.579922   -1.265824   -1.625611
     18          1           0       -4.918244    0.762596   -2.282183
     19          1           0       -6.059903    0.429299   -0.971295
     20          1           0       -5.919382   -0.698461   -2.330604
     21          6           0        2.914609   -0.456651   -0.126916
     22          6           0        3.772498   -1.419828   -0.948077
     23          6           0        3.772749   -2.840325   -0.382407
     24          1           0        3.281590   -0.440479    0.908462
     25          1           0        1.884401   -0.836797   -0.087489
     26          1           0        4.800474   -1.037262   -0.987104
     27          1           0        3.403552   -1.433563   -1.981666
     28          1           0        2.756079   -3.245829   -0.358969
     29          1           0        4.160939   -2.847275    0.641245
     30          1           0        4.392175   -3.512190   -0.984710
     31          6           0        2.904326    0.967368   -0.679901
     32          6           0        2.046437    1.930544    0.141260
     33          6           0        2.046186    3.351041   -0.424411
     34          1           0        3.934534    1.347513   -0.719329
     35          1           0        2.537346    0.951196   -1.715279
     36          1           0        2.415383    1.944280    1.174848
     37          1           0        1.018460    1.547978    0.180287
     38          1           0        1.657996    3.357992   -1.448062
     39          1           0        3.062855    3.756545   -0.447849
     40          1           0        1.426761    4.022906    0.177892
 ---------------------------------------------------------------------

 SCF Done:  E(RHF) =  -470.732788515     A.U. after   11 cycles
 E2 =    -0.1584004240D+01 EUMP2 =    -0.47231679275510D+03

 The electronic state is 1-A.
 Alpha  occ. eigenvalues --  -11.21629 -11.21619 -11.21599 -11.21570 -11.21438
 Alpha  occ. eigenvalues --  -11.21422 -11.21379 -11.21363 -11.21094 -11.21090
 Alpha  occ. eigenvalues --  -11.21085 -11.20979  -1.08484  -1.08420  -1.03572
 Alpha  occ. eigenvalues --   -1.03507  -0.96010  -0.95965  -0.87027  -0.86979
 Alpha  occ. eigenvalues --   -0.79682  -0.79531  -0.78291  -0.78251  -0.65259
 Alpha  occ. eigenvalues --   -0.64937  -0.61082  -0.60814  -0.59421  -0.59287
 Alpha  occ. eigenvalues --   -0.57693  -0.57509  -0.55329  -0.55242  -0.52702
 Alpha  occ. eigenvalues --   -0.52646  -0.52486  -0.52344  -0.50044  -0.49840
 Alpha  occ. eigenvalues --   -0.47997  -0.47926  -0.46880  -0.46399  -0.45989
 Alpha  occ. eigenvalues --   -0.45779  -0.45653  -0.45459  -0.43809  -0.43777
 Alpha virt. eigenvalues --    0.20349   0.23325   0.23761   0.24007   0.25887
 Alpha virt. eigenvalues --    0.26592   0.26792   0.27798   0.28158   0.29659
 Alpha virt. eigenvalues --    0.30409   0.31189   0.31721   0.32053   0.32110

 Mulliken charges:
               1
     1  C   -0.298283
     2  C   -0.305476
     3  C   -0.480076
     4  H    0.150061
     5  H    0.148082
     6  H    0.152228
     7  H    0.156333
     8  H    0.160953
     9  H    0.154469
    10  H    0.160396
    11  C   -0.298220
    12  C   -0.299621
    13  C   -0.475716
    14  H    0.149813
    15  H    0.149295
    16  H    0.152065
    17  H    0.151681
    18  H    0.155149
    19  H    0.155280
    20  H    0.160293
    21  C   -0.302273
    22  C   -0.299291
    23  C   -0.475827
    24  H    0.150716
    25  H    0.152363
    26  H    0.152171
    27  H    0.151721
    28  H    0.154932
    29  H    0.155556
    30  H    0.160427
    31  C   -0.297719
    32  C   -0.307399
    33  C   -0.475589
    34  H    0.149757
    35  H    0.149095
    36  H    0.152399
    37  H    0.159779
    38  H    0.154751
    39  H    0.155398
    40  H    0.160330
 Sum of Mulliken charges =  -0.00000

 Dipole moment (field-independent basis, Debye):
    X=              0.0256    Y=              0.0024    Z=              0.0085  Tot=              0.0271
 Quadrupole moment (field-independent basis, Debye-Ang):
   XX=            -84.3177   YY=            -86.0345   ZZ=            -84.3719
   XY=              0.7427   XZ=             -0.5303   YZ=              0.5587

 Normal termination of Gaussian 16 at Wed May  5 15:16:08 2021.
