 Gaussian 16, Revision A.03,
 Gaussian 16:  EM64L-G16RevA.03 25-Dec-2016

 -------------
 #p 6-31g* mp2
 -------------

 ------------------------------------------------------
 Input file generated by CHIRIPA (05-May-2021 14:57:21)
 ------------------------------------------------------
 Symbolic Z-matrix:
 Charge =  0 Multiplicity = 1

                         Standard orientation:
 ---------------------------------------------------------------------
 Center     Atomic      Atomic             Coordinates (Angstroms)
 Number     Number       Type             X           Y           Z
 ---------------------------------------------------------------------
      1          6           0       -0.900303   -2.240462    0.570396
      2          6           0       -0.732658   -0.996883    1.188399
      3          6           0       -1.676929    0.018311    1.008724
      4          6           0       -2.781881   -0.245627    0.200820
      5          6           0       -2.976984   -1.474179   -0.428373
      6          6           0       -2.019957   -2.474728   -0.234598
      7          1           0       -0.161816   -3.023401    0.715448
      8          1           0        0.135900   -0.812125    1.814110
      9          1           0       -1.571916    0.990274    1.475282
     10          1           0       -3.853124   -1.628599   -1.046395
     11          1           0       -2.152749   -3.439541   -0.715792
     12          7           0       -3.788290    0.821361    0.003143
     13          8           0       -4.753043    0.563711   -0.713450
     14          8           0       -3.593305    1.895114    0.568540
     15          6           0        3.684554   -1.860344   -0.101398
     16          6           0        2.551543   -1.662961   -0.897545
     17          6           0        1.951192   -0.402954   -0.978212
     18          6           0        2.512710    0.642077   -0.246161
     19          6           0        3.640880    0.477047    0.555890
     20          6           0        4.224653   -0.791595    0.621504
     21          1           0        4.144482   -2.842502   -0.044581
     22          1           0        2.129931   -2.491136   -1.460052
     23          1           0        1.073457   -0.222239   -1.586770
     24          1           0        4.038357    1.321900    1.105120
     25          1           0        5.104501   -0.941960    1.240618
     26          7           0        1.885920    1.980561   -0.323592
     27          8           0        2.399874    2.884952    0.331059
     28          8           0        0.892555    2.099930   -1.037465
 ---------------------------------------------------------------------

 SCF Done:  E(RHF) =  -868.336214329     A.U. after   16 cycles
 E2 =    -0.2603465993D+01 EUMP2 =    -0.87093968032165D+03

 The electronic state is 1-A.
 Alpha  occ. eigenvalues --  -20.61259 -20.61228 -20.60458 -20.60413 -15.86297
 Alpha  occ. eigenvalues --  -15.85500 -11.31800 -11.31071 -11.28442 -11.28398
 Alpha  occ. eigenvalues --  -11.28234 -11.27720 -11.27606 -11.27536 -11.27452
 Alpha  occ. eigenvalues --  -11.27435 -11.26821 -11.26712  -1.60323  -1.59507
 Alpha  occ. eigenvalues --   -1.39867  -1.39054  -1.20046  -1.19294  -1.09403
 Alpha  occ. eigenvalues --   -1.08669  -1.05452  -1.04723  -0.96197  -0.95454
 Alpha  occ. eigenvalues --   -0.86837  -0.86110  -0.83016  -0.82279  -0.78033
 Alpha  occ. eigenvalues --   -0.77271  -0.72499  -0.71724  -0.71677  -0.71121
 Alpha  occ. eigenvalues --   -0.70824  -0.70423  -0.65669  -0.65434  -0.64945
 Alpha  occ. eigenvalues --   -0.64742  -0.62773  -0.62053  -0.55951  -0.55272
 Alpha  occ. eigenvalues --   -0.53998  -0.53527  -0.52925  -0.52751  -0.49275
 Alpha  occ. eigenvalues --   -0.49252  -0.48500  -0.48454  -0.45235  -0.44414
 Alpha  occ. eigenvalues --   -0.38133  -0.37855  -0.36758  -0.35978
 Alpha virt. eigenvalues --    0.04448   0.05258   0.10308   0.11524   0.15766
 Alpha virt. eigenvalues --    0.16837   0.20517   0.21501   0.26358   0.27172
 Alpha virt. eigenvalues --    0.27639   0.28384   0.30301   0.31029   0.32077

 Mulliken charges:
               1
     1  C   -0.174674
     2  C   -0.221507
     3  C   -0.165349
     4  C    0.159407
     5  C   -0.171206
     6  C   -0.222275
     7  H    0.219871
     8  H    0.224674
     9  H    0.282162
    10  H    0.275769
    11  H    0.220404
    12  N    0.488494
    13  O   -0.462530
    14  O   -0.454165
    15  C   -0.173275
    16  C   -0.225147
    17  C   -0.164263
    18  C    0.152315
    19  C   -0.172535
    20  C   -0.220411
    21  H    0.226210
    22  H    0.221869
    23  H    0.280892
    24  H    0.277848
    25  H    0.225347
    26  N    0.486294
    27  O   -0.458927
    28  O   -0.455290
 Sum of Mulliken charges =  -0.00000

 Dipole moment (field-independent basis, Debye):
    X=              5.7140    Y=             -8.1429    Z=              0.9495  Tot=              9.9929
 Quadrupole moment (field-independent basis, Debye-Ang):
   XX=           -110.4272   YY=           -107.8404   ZZ=           -101.9612
   XY=              2.1015   XZ=              3.0818   YZ=              3.8174

 Normal termination of Gaussian 16 at Thu May  6 21:04:23 2021.
