 Gaussian 16, Revision A.03,
 Gaussian 16:  EM64L-G16RevA.03 25-Dec-2016

 -------------
 #p 6-31g* mp2
 -------------

 ------------------------------------------------------
 Input file generated by CHIRIPA (05-May-2021 14:57:25)
 ------------------------------------------------------
 Symbolic Z-matrix:
 Charge =  0 Multiplicity = 1

                         Standard orientation:
 ---------------------------------------------------------------------
 Center     Atomic      Atomic             Coordinates (Angstroms)
 Number     Number       Type             X           Y           Z
 ---------------------------------------------------------------------
      1          6           0        1.559541    0.284182    1.752562
      2          6           0        1.814671    1.158119    0.690647
      3          6           0        2.921179    0.961137   -0.140849
      4          6           0        3.755496   -0.124865    0.119543
      5          6           0        3.527945   -1.013070    1.169592
      6          6           0        2.415483   -0.796718    1.988230
      7          1           0        0.697666    0.444726    2.393494
      8          1           0        1.151643    1.998399    0.505257
      9          1           0        3.142200    1.622286   -0.969975
     10          1           0        4.206894   -1.841858    1.329458
     11          1           0        2.219810   -1.477045    2.812191
     12          7           0        4.930059   -0.343654   -0.753918
     13          8           0        5.649888   -1.307890   -0.503456
     14          8           0        5.108611    0.453238   -1.672460
     15          6           0       -1.859489    1.946565   -0.391587
     16          6           0       -3.037100    2.125578    0.341700
     17          6           0       -3.987377    1.103101    0.419585
     18          6           0       -3.726499   -0.090795   -0.251118
     19          6           0       -2.562816   -0.299514   -0.989745
     20          6           0       -1.626517    0.736723   -1.053801
     21          1           0       -1.126721    2.746194   -0.446719
     22          1           0       -3.220690    3.064093    0.856995
     23          1           0       -4.907514    1.214894    0.980181
     24          1           0       -2.407836   -1.246279   -1.492772
     25          1           0       -0.712857    0.594892   -1.624025
     26          7           0       -4.725115   -1.180529   -0.175984
     27          8           0       -4.471615   -2.222893   -0.775860
     28          8           0       -5.742421   -0.971664    0.481359
 ---------------------------------------------------------------------

 SCF Done:  E(RHF) =  -868.336893206     A.U. after   16 cycles
 E2 =    -0.2600787448D+01 EUMP2 =    -0.87093768065406D+03

 The electronic state is 1-A.
 Alpha  occ. eigenvalues --  -20.61332 -20.61325 -20.61283 -20.61270 -15.86386
 Alpha  occ. eigenvalues --  -15.86339 -11.31899 -11.31799 -11.28453 -11.28452
 Alpha  occ. eigenvalues --  -11.28414 -11.28347 -11.28317 -11.28121 -11.27562
 Alpha  occ. eigenvalues --  -11.27510 -11.27504 -11.27337  -1.60403  -1.60354
 Alpha  occ. eigenvalues --   -1.39951  -1.39905  -1.20085  -1.19990  -1.09489
 Alpha  occ. eigenvalues --   -1.09345  -1.05491  -1.05415  -0.96289  -0.96167
 Alpha  occ. eigenvalues --   -0.86920  -0.86774  -0.83100  -0.83007  -0.78111
 Alpha  occ. eigenvalues --   -0.78041  -0.72600  -0.72552  -0.71730  -0.71682
 Alpha  occ. eigenvalues --   -0.71269  -0.71056  -0.65760  -0.65639  -0.65577
 Alpha  occ. eigenvalues --   -0.65314  -0.62843  -0.62731  -0.56115  -0.55836
 Alpha  occ. eigenvalues --   -0.53951  -0.53698  -0.53525  -0.53451  -0.49372
 Alpha  occ. eigenvalues --   -0.49347  -0.49319  -0.49302  -0.45323  -0.45290
 Alpha  occ. eigenvalues --   -0.38287  -0.37849  -0.37181  -0.36857
 Alpha virt. eigenvalues --    0.04370   0.04495   0.10132   0.11025   0.15668
 Alpha virt. eigenvalues --    0.15924   0.19058   0.21773   0.25045   0.26646
 Alpha virt. eigenvalues --    0.27766   0.28595   0.29668   0.31506   0.31938

 Mulliken charges:
               1
     1  C   -0.169617
     2  C   -0.220554
     3  C   -0.174977
     4  C    0.159004
     5  C   -0.169724
     6  C   -0.218743
     7  H    0.229191
     8  H    0.215527
     9  H    0.274413
    10  H    0.278202
    11  H    0.227125
    12  N    0.488055
    13  O   -0.457906
    14  O   -0.460650
    15  C   -0.179534
    16  C   -0.219296
    17  C   -0.171770
    18  C    0.159163
    19  C   -0.171868
    20  C   -0.215496
    21  H    0.220184
    22  H    0.224649
    23  H    0.277411
    24  H    0.278892
    25  H    0.227521
    26  N    0.487744
    27  O   -0.457959
    28  O   -0.458987
 Sum of Mulliken charges =  -0.00000

 Dipole moment (field-independent basis, Debye):
    X=             -0.6650    Y=              4.3687    Z=              2.8746  Tot=              5.2717
 Quadrupole moment (field-independent basis, Debye-Ang):
   XX=           -160.4256   YY=           -101.7029   ZZ=           -101.6386
   XY=            -14.5209   XZ=             10.2924   YZ=             -1.8794

 Normal termination of Gaussian 16 at Wed May  5 21:10:08 2021.
