 Gaussian 16, Revision A.03,
 Gaussian 16:  EM64L-G16RevA.03 25-Dec-2016

 -------------
 #p 6-31g* mp2
 -------------

 ------------------------------------------------------
 Input file generated by CHIRIPA (05-May-2021 14:53:16)
 ------------------------------------------------------
 Symbolic Z-matrix:
 Charge =  0 Multiplicity = 1

                         Standard orientation:
 ---------------------------------------------------------------------
 Center     Atomic      Atomic             Coordinates (Angstroms)
 Number     Number       Type             X           Y           Z
 ---------------------------------------------------------------------
      1          6           0       -4.625772   -0.325234   -0.086713
      2          6           0       -5.802031   -0.263876   -1.061719
      3          6           0       -6.380811   -1.643433   -1.377359
      4          1           0       -3.840077   -0.966017   -0.509827
      5          1           0       -4.954895   -0.807534    0.844126
      6          1           0       -5.471149    0.219412   -1.989925
      7          1           0       -6.584938    0.376990   -0.636321
      8          1           0       -6.737700   -2.129710   -0.463703
      9          1           0       -5.617583   -2.288183   -1.824998
     10          1           0       -7.220507   -1.576224   -2.076111
     11          6           0       -4.036389    1.046087    0.238609
     12          6           0       -2.860131    0.984729    1.213615
     13          6           0       -2.281350    2.364286    1.529255
     14          1           0       -3.707267    1.528386   -0.692229
     15          1           0       -4.822085    1.686870    0.661723
     16          1           0       -2.077224    0.343863    0.788217
     17          1           0       -3.191012    0.501441    2.141821
     18          1           0       -3.044579    3.009036    1.976894
     19          1           0       -1.924462    2.850562    0.615599
     20          1           0       -1.441655    2.297076    2.228007
     21          6           0        1.675414   -1.695828    1.143887
     22          6           0        1.277619   -0.529412    0.482256
     23          6           0        2.215493    0.261870   -0.187680
     24          6           0        3.548803   -0.144860   -0.175657
     25          6           0        3.976225   -1.301568    0.474439
     26          6           0        3.021075   -2.077510    1.137879
     27          1           0        0.940141   -2.304556    1.661785
     28          1           0        0.233245   -0.230547    0.485257
     29          1           0        1.934965    1.169650   -0.707926
     30          1           0        5.024525   -1.573716    0.453896
     31          1           0        3.332883   -2.982862    1.650868
     32          7           0        4.550833    0.684716   -0.881450
     33          8           0        5.719389    0.304626   -0.856039
     34          8           0        4.148695    1.699318   -1.446695
 ---------------------------------------------------------------------

 SCF Done:  E(RHF) =  -669.535546977     A.U. after   15 cycles
 E2 =    -0.2091009159D+01 EUMP2 =    -0.67162655613615D+03

 The electronic state is 1-A.
 Alpha  occ. eigenvalues --  -20.60739 -20.60734 -15.85792 -11.31153 -11.27724
 Alpha  occ. eigenvalues --  -11.27716 -11.27460 -11.26739 -11.26707 -11.22615
 Alpha  occ. eigenvalues --  -11.22137 -11.22117 -11.22029 -11.21873 -11.21523
 Alpha  occ. eigenvalues --   -1.59815  -1.39368  -1.19325  -1.09154  -1.08721
 Alpha  occ. eigenvalues --   -1.04729  -1.04235  -0.96650  -0.95556  -0.87665
 Alpha  occ. eigenvalues --   -0.86129  -0.82390  -0.80322  -0.78956  -0.77437
 Alpha  occ. eigenvalues --   -0.72011  -0.71138  -0.70433  -0.65817  -0.64976
 Alpha  occ. eigenvalues --   -0.64734  -0.62139  -0.61578  -0.60029  -0.58265
 Alpha  occ. eigenvalues --   -0.55929  -0.55226  -0.53351  -0.53075  -0.53050
 Alpha  occ. eigenvalues --   -0.52831  -0.50589  -0.48785  -0.48766  -0.48603
 Alpha  occ. eigenvalues --   -0.47357  -0.46491  -0.46400  -0.44775  -0.44478
 Alpha  occ. eigenvalues --   -0.37307  -0.36331
 Alpha virt. eigenvalues --    0.05097   0.11316   0.16586   0.19382   0.22577
 Alpha virt. eigenvalues --    0.23638   0.25228   0.26438   0.27219   0.28373
 Alpha virt. eigenvalues --    0.28527   0.30168   0.31014   0.31252   0.32011

 Mulliken charges:
               1
     1  C   -0.298536
     2  C   -0.300245
     3  C   -0.476116
     4  H    0.147108
     5  H    0.149915
     6  H    0.153454
     7  H    0.153480
     8  H    0.155347
     9  H    0.155134
    10  H    0.162347
    11  C   -0.297905
    12  C   -0.305705
    13  C   -0.477590
    14  H    0.151450
    15  H    0.153292
    16  H    0.142848
    17  H    0.154643
    18  H    0.160348
    19  H    0.156606
    20  H    0.161060
    21  C   -0.173760
    22  C   -0.227624
    23  C   -0.173784
    24  C    0.158951
    25  C   -0.171271
    26  C   -0.218557
    27  H    0.226055
    28  H    0.237348
    29  H    0.276027
    30  H    0.275456
    31  H    0.223271
    32  N    0.488054
    33  O   -0.460629
    34  O   -0.460474
 Sum of Mulliken charges =  -0.00000

 Dipole moment (field-independent basis, Debye):
    X=             -3.7413    Y=             -2.8571    Z=              2.5039  Tot=              5.3320
 Quadrupole moment (field-independent basis, Debye-Ang):
   XX=           -116.5512   YY=            -92.9079   ZZ=            -95.4215
   XY=            -13.3963   XZ=              9.9396   YZ=             -1.0462

 Normal termination of Gaussian 16 at Thu May  6 01:08:14 2021.
