 Gaussian 16, Revision A.03,
 Gaussian 16:  EM64L-G16RevA.03 25-Dec-2016

 -------------
 #p 6-31g* mp2
 -------------

 ------------------------------------------------------
 Input file generated by CHIRIPA (05-May-2021 14:53:14)
 ------------------------------------------------------
 Symbolic Z-matrix:
 Charge =  0 Multiplicity = 1

                         Standard orientation:
 ---------------------------------------------------------------------
 Center     Atomic      Atomic             Coordinates (Angstroms)
 Number     Number       Type             X           Y           Z
 ---------------------------------------------------------------------
      1          6           0       -2.395460    1.567861   -0.052019
      2          6           0       -1.308296    2.229019    0.795877
      3          6           0       -1.262002    3.747019    0.618888
      4          1           0       -2.224502    1.810061   -1.109875
      5          1           0       -3.370692    1.998829    0.213657
      6          1           0       -0.335571    1.795948    0.529659
      7          1           0       -1.481752    1.985059    1.851819
      8          1           0       -2.218474    4.197382    0.903378
      9          1           0       -1.065781    4.007197   -0.426294
     10          1           0       -0.477794    4.199197    1.234042
     11          6           0       -2.454217    0.050401    0.114089
     12          6           0       -3.541381   -0.610757   -0.733808
     13          6           0       -3.587675   -2.128757   -0.556819
     14          1           0       -1.478985   -0.380567   -0.151588
     15          1           0       -2.625175   -0.191799    1.171944
     16          1           0       -3.367925   -0.366797   -1.789750
     17          1           0       -4.514106   -0.177686   -0.467590
     18          1           0       -3.783895   -2.388935    0.488363
     19          1           0       -2.631202   -2.579120   -0.841309
     20          1           0       -4.371882   -2.580935   -1.171973
     21          6           0        0.618588   -2.535825    1.031298
     22          6           0        1.418402   -1.705127    1.822979
     23          6           0        2.129730   -0.647322    1.248865
     24          6           0        2.017747   -0.448092   -0.126292
     25          6           0        1.229191   -1.258398   -0.941689
     26          6           0        0.526697   -2.310207   -0.346082
     27          1           0        0.069442   -3.355225    1.485631
     28          1           0        1.491654   -1.877982    2.892933
     29          1           0        2.756259    0.011076    1.838266
     30          1           0        1.176080   -1.061180   -2.005504
     31          1           0       -0.093679   -2.953735   -0.963374
     32          7           0        2.766121    0.668585   -0.745458
     33          8           0        2.650652    0.823078   -1.959309
     34          8           0        3.453996    1.368200   -0.005184
 ---------------------------------------------------------------------

 SCF Done:  E(RHF) =  -669.534107463     A.U. after   15 cycles
 E2 =    -0.2095392212D+01 EUMP2 =    -0.67162949967477D+03

 The electronic state is 1-A.
 Alpha  occ. eigenvalues --  -20.60872 -20.60865 -15.85928 -11.31323 -11.27878
 Alpha  occ. eigenvalues --  -11.27865 -11.27588 -11.26879 -11.26860 -11.21927
 Alpha  occ. eigenvalues --  -11.21725 -11.21499 -11.21386 -11.21323 -11.20809
 Alpha  occ. eigenvalues --   -1.59949  -1.39500  -1.19498  -1.08878  -1.08513
 Alpha  occ. eigenvalues --   -1.04902  -1.03662  -0.96110  -0.95702  -0.87137
 Alpha  occ. eigenvalues --   -0.86287  -0.82537  -0.79740  -0.78310  -0.77583
 Alpha  occ. eigenvalues --   -0.72140  -0.71279  -0.70568  -0.65221  -0.65131
 Alpha  occ. eigenvalues --   -0.64871  -0.62255  -0.61063  -0.59501  -0.57714
 Alpha  occ. eigenvalues --   -0.55485  -0.55332  -0.53359  -0.53000  -0.52778
 Alpha  occ. eigenvalues --   -0.52504  -0.50076  -0.48903  -0.48895  -0.48064
 Alpha  occ. eigenvalues --   -0.46795  -0.45823  -0.45669  -0.44895  -0.43867
 Alpha  occ. eigenvalues --   -0.37419  -0.36381
 Alpha virt. eigenvalues --    0.04932   0.11034   0.16378   0.20339   0.22939
 Alpha virt. eigenvalues --    0.24034   0.25759   0.26772   0.27364   0.28014
 Alpha virt. eigenvalues --    0.28798   0.29847   0.31378   0.32006   0.32114

 Mulliken charges:
               1
     1  C   -0.298235
     2  C   -0.299702
     3  C   -0.475954
     4  H    0.151260
     5  H    0.148577
     6  H    0.151290
     7  H    0.148636
     8  H    0.153055
     9  H    0.159119
    10  H    0.162818
    11  C   -0.307419
    12  C   -0.299280
    13  C   -0.475446
    14  H    0.161245
    15  H    0.145225
    16  H    0.152151
    17  H    0.153581
    18  H    0.154203
    19  H    0.143948
    20  H    0.162324
    21  C   -0.167439
    22  C   -0.217208
    23  C   -0.170955
    24  C    0.162002
    25  C   -0.174911
    26  C   -0.220762
    27  H    0.227065
    28  H    0.224177
    29  H    0.276349
    30  H    0.276146
    31  H    0.226343
    32  N    0.488028
    33  O   -0.460430
    34  O   -0.459802
 Sum of Mulliken charges =  -0.00000

 Dipole moment (field-independent basis, Debye):
    X=             -2.5006    Y=             -3.9087    Z=              2.2054  Tot=              5.1376
 Quadrupole moment (field-independent basis, Debye-Ang):
   XX=           -105.2645   YY=            -92.6694   ZZ=            -90.8062
   XY=             -6.6154   XZ=              6.2716   YZ=              0.6755

 Normal termination of Gaussian 16 at Wed May  5 18:36:46 2021.
