 Gaussian 16, Revision A.03,
 Gaussian 16:  EM64L-G16RevA.03 25-Dec-2016

 -------------
 #p 6-31g* mp2
 -------------

 ------------------------------------------------------
 Input file generated by CHIRIPA (05-May-2021 14:51:13)
 ------------------------------------------------------
 Symbolic Z-matrix:
 Charge =  0 Multiplicity = 1

                         Standard orientation:
 ---------------------------------------------------------------------
 Center     Atomic      Atomic             Coordinates (Angstroms)
 Number     Number       Type             X           Y           Z
 ---------------------------------------------------------------------
      1          6           0        2.873282    0.965511   -0.244533
      2          6           0        3.001329    2.393440    0.287077
      3          6           0        1.847598    3.294344   -0.154591
      4          1           0        2.826507    0.992374   -1.341818
      5          1           0        1.920960    0.537988    0.098542
      6          1           0        3.953760    2.817658   -0.055751
      7          1           0        3.047998    2.363160    1.383217
      8          1           0        0.891087    2.897215    0.200340
      9          1           0        1.801995    3.354295   -1.246803
     10          1           0        1.959210    4.310406    0.236586
     11          6           0        4.019228    0.052817    0.188511
     12          6           0        3.891181   -1.375111   -0.343099
     13          6           0        5.044911   -2.276015    0.098570
     14          1           0        4.971550    0.480341   -0.154564
     15          1           0        4.066003    0.025955    1.285797
     16          1           0        3.844512   -1.344832   -1.439238
     17          1           0        2.938750   -1.799329   -0.000271
     18          1           0        5.090514   -2.335966    1.190782
     19          1           0        6.001423   -1.878887   -0.256362
     20          1           0        4.933300   -3.292077   -0.292608
     21          6           0       -4.087223   -0.350783   -0.356056
     22          6           0       -5.216768    0.165374    0.535961
     23          6           0       -6.492447    0.477804   -0.246872
     24          1           0       -3.869728    0.396969   -1.130981
     25          1           0       -4.427351   -1.254517   -0.880435
     26          1           0       -4.874139    1.067078    1.059554
     27          1           0       -5.431469   -0.583610    1.308969
     28          1           0       -6.860959   -0.418375   -0.756444
     29          1           0       -6.300461    1.241693   -1.007277
     30          1           0       -7.286842    0.845302    0.410198
     31          6           0       -2.805287   -0.667546    0.412078
     32          6           0       -1.675742   -1.183703   -0.479940
     33          6           0       -0.400063   -1.496133    0.302894
     34          1           0       -2.465159    0.236188    0.936457
     35          1           0       -3.022782   -1.415298    1.187003
     36          1           0       -1.461041   -0.434719   -1.252947
     37          1           0       -2.018371   -2.085407   -1.003532
     38          1           0       -0.592049   -2.260022    1.063299
     39          1           0       -0.031551   -0.599954    0.812466
     40          1           0        0.394332   -1.863631   -0.354176
 ---------------------------------------------------------------------

 SCF Done:  E(RHF) =  -470.732757296     A.U. after   11 cycles
 E2 =    -0.1583404798D+01 EUMP2 =    -0.47231616209340D+03

 The electronic state is 1-A.
 Alpha  occ. eigenvalues --  -11.21638 -11.21615 -11.21571 -11.21534 -11.21433
 Alpha  occ. eigenvalues --  -11.21371 -11.21331 -11.21252 -11.21120 -11.21084
 Alpha  occ. eigenvalues --  -11.21080 -11.21028  -1.08462  -1.08375  -1.03563
 Alpha  occ. eigenvalues --   -1.03494  -0.96028  -0.95934  -0.87044  -0.86959
 Alpha  occ. eigenvalues --   -0.79643  -0.79557  -0.78288  -0.78166  -0.65152
 Alpha  occ. eigenvalues --   -0.64969  -0.61001  -0.60871  -0.59428  -0.59267
 Alpha  occ. eigenvalues --   -0.57629  -0.57553  -0.55435  -0.55127  -0.52782
 Alpha  occ. eigenvalues --   -0.52596  -0.52473  -0.52342  -0.50079  -0.49802
 Alpha  occ. eigenvalues --   -0.48007  -0.47816  -0.46758  -0.46551  -0.45862
 Alpha  occ. eigenvalues --   -0.45768  -0.45715  -0.45443  -0.43783  -0.43707
 Alpha virt. eigenvalues --    0.21271   0.23089   0.23901   0.24133   0.26072
 Alpha virt. eigenvalues --    0.26712   0.26911   0.27506   0.28019   0.28969
 Alpha virt. eigenvalues --    0.29960   0.31576   0.31802   0.31936   0.32253

 Mulliken charges:
               1
     1  C   -0.307249
     2  C   -0.299220
     3  C   -0.475372
     4  H    0.148694
     5  H    0.159951
     6  H    0.151816
     7  H    0.151537
     8  H    0.153704
     9  H    0.155188
    10  H    0.160275
    11  C   -0.297267
    12  C   -0.305478
    13  C   -0.475368
    14  H    0.149119
    15  H    0.149235
    16  H    0.151129
    17  H    0.158323
    18  H    0.155161
    19  H    0.154985
    20  H    0.159910
    21  C   -0.298332
    22  C   -0.299665
    23  C   -0.475734
    24  H    0.149928
    25  H    0.149604
    26  H    0.151982
    27  H    0.151916
    28  H    0.155191
    29  H    0.155298
    30  H    0.160306
    31  C   -0.298658
    32  C   -0.300217
    33  C   -0.482363
    34  H    0.149324
    35  H    0.149691
    36  H    0.153004
    37  H    0.152258
    38  H    0.155362
    39  H    0.156851
    40  H    0.165178
 Sum of Mulliken charges =  -0.00000

 Dipole moment (field-independent basis, Debye):
    X=             -0.0420    Y=             -0.0276    Z=             -0.0026  Tot=              0.0503
 Quadrupole moment (field-independent basis, Debye-Ang):
   XX=            -86.1539   YY=            -84.5086   ZZ=            -84.3097
   XY=              1.2953   XZ=             -1.0484   YZ=             -0.0699

 Normal termination of Gaussian 16 at Wed May  5 21:34:18 2021.
