 Gaussian 16, Revision A.03,
 Gaussian 16:  EM64L-G16RevA.03 25-Dec-2016

 -------------
 #p 6-31g* mp2
 -------------

 ------------------------------------------------------
 Input file generated by CHIRIPA (05-May-2021 14:53:12)
 ------------------------------------------------------
 Symbolic Z-matrix:
 Charge =  0 Multiplicity = 1

                         Standard orientation:
 ---------------------------------------------------------------------
 Center     Atomic      Atomic             Coordinates (Angstroms)
 Number     Number       Type             X           Y           Z
 ---------------------------------------------------------------------
      1          6           0       -3.140267    0.574577   -0.204641
      2          6           0       -3.290407   -0.739341    0.562864
      3          6           0       -4.737103   -1.231404    0.615193
      4          1           0       -3.772791    1.340398    0.264802
      5          1           0       -3.519767    0.439400   -1.226943
      6          1           0       -2.909462   -0.602116    1.582995
      7          1           0       -2.657305   -1.502073    0.091655
      8          1           0       -5.124754   -1.396194   -0.395337
      9          1           0       -5.378344   -0.491124    1.104476
     10          1           0       -4.821489   -2.171934    1.168493
     11          6           0       -1.699700    1.079324   -0.265661
     12          6           0       -1.549560    2.393242   -1.033166
     13          6           0       -0.102864    2.885304   -1.085495
     14          1           0       -1.320200    1.214501    0.756642
     15          1           0       -1.067176    0.313503   -0.735103
     16          1           0       -2.182662    3.155974   -0.561957
     17          1           0       -1.930505    2.256017   -2.053296
     18          1           0        0.538376    2.145025   -1.574777
     19          1           0        0.284787    3.050095   -0.074964
     20          1           0       -0.018479    3.825835   -1.638795
     21          6           0        1.004298   -2.732176   -0.924652
     22          6           0        0.446955   -2.288280    0.279027
     23          6           0        0.930089   -1.133728    0.902036
     24          6           0        1.976298   -0.444376    0.290864
     25          6           0        2.552491   -0.861305   -0.908077
     26          6           0        2.053439   -2.018530   -1.513325
     27          1           0        0.622806   -3.630099   -1.401722
     28          1           0       -0.367907   -2.840503    0.738480
     29          1           0        0.517051   -0.767723    1.834161
     30          1           0        3.363883   -0.289701   -1.342048
     31          1           0        2.488212   -2.360923   -2.448090
     32          7           0        2.496196    0.779311    0.941014
     33          8           0        3.418669    1.368799    0.382279
     34          8           0        1.971375    1.125779    1.997025
 ---------------------------------------------------------------------

 SCF Done:  E(RHF) =  -669.534992825     A.U. after   15 cycles
 E2 =    -0.2095518522D+01 EUMP2 =    -0.67163051134682D+03

 The electronic state is 1-A.
 Alpha  occ. eigenvalues --  -20.60819 -20.60813 -15.85850 -11.31182 -11.27799
 Alpha  occ. eigenvalues --  -11.27752 -11.27545 -11.26799 -11.26751 -11.22053
 Alpha  occ. eigenvalues --  -11.21534 -11.21469 -11.21381 -11.21234 -11.20631
 Alpha  occ. eigenvalues --   -1.59875  -1.39432  -1.19393  -1.08784  -1.08510
 Alpha  occ. eigenvalues --   -1.04791  -1.03586  -0.96004  -0.95618  -0.87026
 Alpha  occ. eigenvalues --   -0.86182  -0.82455  -0.79706  -0.78344  -0.77473
 Alpha  occ. eigenvalues --   -0.72076  -0.71180  -0.70501  -0.65183  -0.65036
 Alpha  occ. eigenvalues --   -0.64759  -0.62146  -0.60974  -0.59425  -0.57631
 Alpha  occ. eigenvalues --   -0.55324  -0.55248  -0.53271  -0.52901  -0.52689
 Alpha  occ. eigenvalues --   -0.52350  -0.49947  -0.48836  -0.48833  -0.47992
 Alpha  occ. eigenvalues --   -0.46758  -0.45827  -0.45695  -0.44786  -0.43817
 Alpha  occ. eigenvalues --   -0.37358  -0.36284
 Alpha virt. eigenvalues --    0.05014   0.11109   0.16414   0.20663   0.22999
 Alpha virt. eigenvalues --    0.24024   0.25426   0.26177   0.27804   0.28114
 Alpha virt. eigenvalues --    0.29325   0.30406   0.31359   0.31767   0.32026

 Mulliken charges:
               1
     1  C   -0.296783
     2  C   -0.302715
     3  C   -0.475199
     4  H    0.151678
     5  H    0.148850
     6  H    0.149155
     7  H    0.146174
     8  H    0.155777
     9  H    0.158363
    10  H    0.157586
    11  C   -0.307761
    12  C   -0.298409
    13  C   -0.482705
    14  H    0.153149
    15  H    0.154474
    16  H    0.152446
    17  H    0.148877
    18  H    0.150464
    19  H    0.168950
    20  H    0.161172
    21  C   -0.172171
    22  C   -0.218382
    23  C   -0.167596
    24  C    0.160771
    25  C   -0.172270
    26  C   -0.219080
    27  H    0.225807
    28  H    0.225465
    29  H    0.275754
    30  H    0.275984
    31  H    0.223531
    32  N    0.490023
    33  O   -0.459386
    34  O   -0.461995
 Sum of Mulliken charges =  -0.00000

 Dipole moment (field-independent basis, Debye):
    X=             -1.7437    Y=             -4.2246    Z=             -2.2436  Tot=              5.0913
 Quadrupole moment (field-independent basis, Debye-Ang):
   XX=           -101.3055   YY=            -91.3012   ZZ=            -93.1128
   XY=             -7.9673   XZ=             -7.9712   YZ=              0.0034

 Normal termination of Gaussian 16 at Thu May  6 17:02:43 2021.
