 Gaussian 16, Revision A.03,
 Gaussian 16:  EM64L-G16RevA.03 25-Dec-2016

 -------------
 #p 6-31g* mp2
 -------------

 ------------------------------------------------------
 Input file generated by CHIRIPA (05-May-2021 14:53:16)
 ------------------------------------------------------
 Symbolic Z-matrix:
 Charge =  0 Multiplicity = 1

                         Standard orientation:
 ---------------------------------------------------------------------
 Center     Atomic      Atomic             Coordinates (Angstroms)
 Number     Number       Type             X           Y           Z
 ---------------------------------------------------------------------
      1          6           0        3.833068    0.947742    0.062256
      2          6           0        2.442451    1.361954   -0.420028
      3          6           0        2.207457    2.869577   -0.321818
      4          1           0        3.965491    1.273895    1.102945
      5          1           0        4.591862    1.477412   -0.530262
      6          1           0        1.686516    0.830611    0.172300
      7          1           0        2.313252    1.034609   -1.459628
      8          1           0        2.939642    3.413824   -0.927046
      9          1           0        2.309345    3.208668    0.714154
     10          1           0        1.207278    3.143623   -0.671677
     11          6           0        4.083046   -0.556509   -0.029778
     12          6           0        5.473662   -0.970721    0.452505
     13          6           0        5.708657   -2.478344    0.354296
     14          1           0        3.324252   -1.086179    0.562739
     15          1           0        3.950623   -0.882662   -1.070467
     16          1           0        5.602862   -0.643376    1.492105
     17          1           0        6.229598   -0.439378   -0.139822
     18          1           0        5.606769   -2.817435   -0.681676
     19          1           0        4.976471   -3.022591    0.959524
     20          1           0        6.708836   -2.752390    0.704154
     21          6           0       -2.352039    2.251470    0.180707
     22          6           0       -3.543271    1.835086    0.784123
     23          6           0       -3.963170    0.505386    0.683478
     24          6           0       -3.163791   -0.385264   -0.031384
     25          6           0       -1.971884   -0.000904   -0.643686
     26          6           0       -1.571524    1.333764   -0.530020
     27          1           0       -2.033440    3.286343    0.263948
     28          1           0       -4.151440    2.545599    1.336707
     29          1           0       -4.880924    0.156128    1.140824
     30          1           0       -1.386811   -0.732259   -1.187954
     31          1           0       -0.645929    1.654313   -0.999668
     32          7           0       -3.597978   -1.795588   -0.144825
     33          8           0       -2.875842   -2.560764   -0.780170
     34          8           0       -4.652206   -2.109118    0.403752
 ---------------------------------------------------------------------

 SCF Done:  E(RHF) =  -669.535394984     A.U. after   15 cycles
 E2 =    -0.2091627470D+01 EUMP2 =    -0.67162702245376D+03

 The electronic state is 1-A.
 Alpha  occ. eigenvalues --  -20.60734 -20.60729 -15.85787 -11.31144 -11.27718
 Alpha  occ. eigenvalues --  -11.27700 -11.27448 -11.26733 -11.26670 -11.22504
 Alpha  occ. eigenvalues --  -11.22167 -11.22009 -11.21904 -11.21785 -11.21251
 Alpha  occ. eigenvalues --   -1.59810  -1.39363  -1.19316  -1.09009  -1.08711
 Alpha  occ. eigenvalues --   -1.04720  -1.04138  -0.96587  -0.95548  -0.87600
 Alpha  occ. eigenvalues --   -0.86115  -0.82381  -0.80232  -0.78769  -0.77427
 Alpha  occ. eigenvalues --   -0.72005  -0.71133  -0.70424  -0.65630  -0.64966
 Alpha  occ. eigenvalues --   -0.64774  -0.62146  -0.61509  -0.59963  -0.58176
 Alpha  occ. eigenvalues --   -0.55837  -0.55211  -0.53356  -0.53086  -0.53044
 Alpha  occ. eigenvalues --   -0.52643  -0.50499  -0.48761  -0.48760  -0.48543
 Alpha  occ. eigenvalues --   -0.47241  -0.46314  -0.46196  -0.44771  -0.44384
 Alpha  occ. eigenvalues --   -0.37296  -0.36309
 Alpha virt. eigenvalues --    0.05094   0.11293   0.16532   0.19708   0.22607
 Alpha virt. eigenvalues --    0.23968   0.25959   0.26199   0.26480   0.28106
 Alpha virt. eigenvalues --    0.28827   0.30599   0.30874   0.31280   0.32109

 Mulliken charges:
               1
     1  C   -0.298354
     2  C   -0.306417
     3  C   -0.477134
     4  H    0.151658
     5  H    0.151230
     6  H    0.154375
     7  H    0.150562
     8  H    0.160878
     9  H    0.159645
    10  H    0.147673
    11  C   -0.299581
    12  C   -0.300240
    13  C   -0.476265
    14  H    0.151876
    15  H    0.150475
    16  H    0.152472
    17  H    0.152119
    18  H    0.156117
    19  H    0.157090
    20  H    0.161275
    21  C   -0.173083
    22  C   -0.218573
    23  C   -0.171262
    24  C    0.158829
    25  C   -0.173527
    26  C   -0.224015
    27  H    0.225545
    28  H    0.223227
    29  H    0.275428
    30  H    0.276122
    31  H    0.234957
    32  N    0.487985
    33  O   -0.460443
    34  O   -0.460644
 Sum of Mulliken charges =  -0.00000

 Dipole moment (field-independent basis, Debye):
    X=              1.7326    Y=              4.9274    Z=              0.4504  Tot=              5.2425
 Quadrupole moment (field-independent basis, Debye-Ang):
   XX=           -100.6396   YY=           -100.1226   ZZ=            -93.0422
   XY=            -17.0724   XZ=             -4.1641   YZ=              0.3181

 Normal termination of Gaussian 16 at Thu May  6 15:32:58 2021.
