 Gaussian 16, Revision A.03,
 Gaussian 16:  EM64L-G16RevA.03 25-Dec-2016

 -------------
 #p 6-31g* mp2
 -------------

 ------------------------------------------------------
 Input file generated by CHIRIPA (05-May-2021 14:57:25)
 ------------------------------------------------------
 Symbolic Z-matrix:
 Charge =  0 Multiplicity = 1

                         Standard orientation:
 ---------------------------------------------------------------------
 Center     Atomic      Atomic             Coordinates (Angstroms)
 Number     Number       Type             X           Y           Z
 ---------------------------------------------------------------------
      1          6           0       -2.793520    2.086697    0.140149
      2          6           0       -2.175799    0.838957    0.274633
      3          6           0       -2.924211   -0.337933    0.177896
      4          6           0       -4.294382   -0.229690   -0.054924
      5          6           0       -4.938802    0.998655   -0.193415
      6          6           0       -4.170623    2.162430   -0.093035
      7          1           0       -2.204458    2.995839    0.216711
      8          1           0       -1.106496    0.777109    0.455772
      9          1           0       -2.471553   -1.316958    0.278037
     10          1           0       -6.006559    1.028355   -0.373502
     11          1           0       -4.653033    3.130072   -0.197893
     12          7           0       -5.097156   -1.468669   -0.159263
     13          8           0       -6.302740   -1.346330   -0.364783
     14          8           0       -4.505586   -2.538658   -0.033548
     15          6           0        2.419081    1.827837    0.319584
     16          6           0        3.612312    2.107298   -0.354674
     17          6           0        4.585111    1.116370   -0.516753
     18          6           0        4.330582   -0.148752    0.010479
     19          6           0        3.151734   -0.458082    0.687180
     20          6           0        2.192999    0.548296    0.837446
     21          1           0        1.668850    2.603615    0.440903
     22          1           0        3.790598    3.100108   -0.757894
     23          1           0        5.517692    1.305457   -1.034399
     24          1           0        3.002544   -1.457234    1.078144
     25          1           0        1.267245    0.328405    1.361539
     26          7           0        5.352997   -1.205981   -0.154855
     27          8           0        5.104666   -2.312559    0.318911
     28          8           0        6.383336   -0.908041   -0.755079
 ---------------------------------------------------------------------

 SCF Done:  E(RHF) =  -868.336246423     A.U. after   16 cycles
 E2 =    -0.2599869173D+01 EUMP2 =    -0.87093611559610D+03

 The electronic state is 1-A.
 Alpha  occ. eigenvalues --  -20.61255 -20.61250 -20.61225 -20.61220 -15.86317
 Alpha  occ. eigenvalues --  -15.86286 -11.31862 -11.31798 -11.28490 -11.28441
 Alpha  occ. eigenvalues --  -11.28428 -11.28367 -11.28349 -11.28237 -11.27640
 Alpha  occ. eigenvalues --  -11.27558 -11.27500 -11.27417  -1.60327  -1.60298
 Alpha  occ. eigenvalues --   -1.39875  -1.39847  -1.20076  -1.20003  -1.09459
 Alpha  occ. eigenvalues --   -1.09382  -1.05513  -1.05434  -0.96252  -0.96185
 Alpha  occ. eigenvalues --   -0.86947  -0.86813  -0.83084  -0.83016  -0.78106
 Alpha  occ. eigenvalues --   -0.78005  -0.72533  -0.72501  -0.71652  -0.71623
 Alpha  occ. eigenvalues --   -0.71231  -0.71133  -0.65790  -0.65707  -0.65667
 Alpha  occ. eigenvalues --   -0.65299  -0.62947  -0.62679  -0.56084  -0.55962
 Alpha  occ. eigenvalues --   -0.53847  -0.53750  -0.53718  -0.53415  -0.49312
 Alpha  occ. eigenvalues --   -0.49274  -0.49268  -0.49246  -0.45239  -0.45219
 Alpha  occ. eigenvalues --   -0.38094  -0.38002  -0.37103  -0.37030
 Alpha virt. eigenvalues --    0.04471   0.04523   0.10401   0.10614   0.15900
 Alpha virt. eigenvalues --    0.15958   0.17830   0.22083   0.24576   0.26045
 Alpha virt. eigenvalues --    0.27876   0.29036   0.29661   0.31163   0.31937

 Mulliken charges:
               1
     1  C   -0.171117
     2  C   -0.220871
     3  C   -0.170958
     4  C    0.159306
     5  C   -0.169803
     6  C   -0.218005
     7  H    0.221684
     8  H    0.217511
     9  H    0.276758
    10  H    0.277877
    11  H    0.225183
    12  N    0.488019
    13  O   -0.458606
    14  O   -0.458757
    15  C   -0.170253
    16  C   -0.217890
    17  C   -0.169327
    18  C    0.159355
    19  C   -0.169114
    20  C   -0.222713
    21  H    0.219278
    22  H    0.225197
    23  H    0.278296
    24  H    0.278598
    25  H    0.218892
    26  N    0.487925
    27  O   -0.458071
    28  O   -0.458392
 Sum of Mulliken charges =  -0.00000

 Dipole moment (field-independent basis, Debye):
    X=             -0.7130    Y=              7.9997    Z=              0.8637  Tot=              8.0777
 Quadrupole moment (field-independent basis, Debye-Ang):
   XX=           -153.5911   YY=           -105.0433   ZZ=           -105.0946
   XY=             -3.2195   XZ=             -0.2260   YZ=             -2.8403

 Normal termination of Gaussian 16 at Fri May  7 05:01:13 2021.
