 Gaussian 16, Revision A.03,
 Gaussian 16:  EM64L-G16RevA.03 25-Dec-2016

 -------------
 #p 6-31g* mp2
 -------------

 ------------------------------------------------------
 Input file generated by CHIRIPA (05-May-2021 14:55:23)
 ------------------------------------------------------
 Symbolic Z-matrix:
 Charge =  0 Multiplicity = 1

                         Standard orientation:
 ---------------------------------------------------------------------
 Center     Atomic      Atomic             Coordinates (Angstroms)
 Number     Number       Type             X           Y           Z
 ---------------------------------------------------------------------
      1          6           0       -3.613786    0.482480   -2.062193
      2          6           0       -2.623177    1.278936   -1.478350
      3          6           0       -2.026928    0.899927   -0.271955
      4          6           0       -2.447296   -0.287115    0.325968
      5          6           0       -3.431728   -1.102014   -0.230919
      6          6           0       -4.014194   -0.703362   -1.437716
      7          1           0       -4.071613    0.784533   -2.999506
      8          1           0       -2.310233    2.200391   -1.961084
      9          1           0       -1.257794    1.497659    0.201930
     10          1           0       -3.722800   -2.015149    0.273937
     11          1           0       -4.783279   -1.323876   -1.888842
     12          7           0       -1.823370   -0.698752    1.603337
     13          8           0       -2.211350   -1.749110    2.110148
     14          8           0       -0.958171    0.036759    2.073540
     15          6           0        3.293753   -0.482435   -0.132629
     16          6           0        4.466379   -1.059647   -0.926204
     17          6           0        4.512095   -2.587430   -0.886434
     18          1           0        3.362574   -0.821613    0.910043
     19          1           0        2.354273   -0.888827   -0.532154
     20          1           0        5.403287   -0.651217   -0.526197
     21          1           0        4.394864   -0.718899   -1.967066
     22          1           0        3.593350   -3.011344   -1.304533
     23          1           0        4.607502   -2.943277    0.144523
     24          1           0        5.358018   -2.978831   -1.460087
     25          6           0        3.234573    1.043772   -0.162903
     26          6           0        2.061946    1.620982    0.630672
     27          6           0        2.016231    3.148766    0.590902
     28          1           0        4.174052    1.450163    0.236622
     29          1           0        3.165751    1.382949   -1.205575
     30          1           0        2.133462    1.280235    1.671534
     31          1           0        1.125038    1.212553    0.230665
     32          1           0        1.920823    3.504613   -0.440055
     33          1           0        2.934975    3.572679    1.009002
     34          1           0        1.170307    3.540167    1.164555
 ---------------------------------------------------------------------

 SCF Done:  E(RHF) =  -669.535338242     A.U. after   15 cycles
 E2 =    -0.2092144417D+01 EUMP2 =    -0.67162748265905D+03

 The electronic state is 1-A.
 Alpha  occ. eigenvalues --  -20.60820 -20.60809 -15.85858 -11.31233 -11.27799
 Alpha  occ. eigenvalues --  -11.27776 -11.27543 -11.26821 -11.26810 -11.21306
 Alpha  occ. eigenvalues --  -11.21148 -11.21058 -11.20967 -11.20938 -11.20778
 Alpha  occ. eigenvalues --   -1.59886  -1.39439  -1.19406  -1.08799  -1.08088
 Alpha  occ. eigenvalues --   -1.04809  -1.03232  -0.95716  -0.95627  -0.86721
 Alpha  occ. eigenvalues --   -0.86208  -0.82464  -0.79277  -0.77917  -0.77457
 Alpha  occ. eigenvalues --   -0.72077  -0.71205  -0.70519  -0.65057  -0.64889
 Alpha  occ. eigenvalues --   -0.64669  -0.62187  -0.60621  -0.59057  -0.57297
 Alpha  occ. eigenvalues --   -0.55315  -0.55007  -0.53138  -0.52902  -0.52408
 Alpha  occ. eigenvalues --   -0.52121  -0.49654  -0.48863  -0.48840  -0.47566
 Alpha  occ. eigenvalues --   -0.46296  -0.45473  -0.45345  -0.44740  -0.43475
 Alpha  occ. eigenvalues --   -0.37386  -0.36406
 Alpha virt. eigenvalues --    0.04987   0.11154   0.16505   0.20770   0.23170
 Alpha virt. eigenvalues --    0.24057   0.26552   0.27211   0.27670   0.28045
 Alpha virt. eigenvalues --    0.29258   0.30643   0.31563   0.31677   0.32167

 Mulliken charges:
               1
     1  C   -0.170673
     2  C   -0.220174
     3  C   -0.174447
     4  C    0.157136
     5  C   -0.170779
     6  C   -0.218468
     7  H    0.225769
     8  H    0.224083
     9  H    0.282730
    10  H    0.275715
    11  H    0.223635
    12  N    0.488370
    13  O   -0.460118
    14  O   -0.460506
    15  C   -0.297425
    16  C   -0.299450
    17  C   -0.475410
    18  H    0.155443
    19  H    0.148372
    20  H    0.151432
    21  H    0.149161
    22  H    0.154527
    23  H    0.157265
    24  H    0.158595
    25  C   -0.298752
    26  C   -0.300093
    27  C   -0.479227
    28  H    0.148874
    29  H    0.144423
    30  H    0.166180
    31  H    0.148603
    32  H    0.148224
    33  H    0.157179
    34  H    0.159805
 Sum of Mulliken charges =  -0.00000

 Dipole moment (field-independent basis, Debye):
    X=             -2.2431    Y=              1.3679    Z=             -4.3389  Tot=              5.0723
 Quadrupole moment (field-independent basis, Debye-Ang):
   XX=            -82.6111   YY=            -94.0816   ZZ=            -97.5946
   XY=             -0.0949   XZ=             11.5105   YZ=              1.7037

 Normal termination of Gaussian 16 at Thu May  6 06:19:44 2021.
