 Gaussian 16, Revision A.03,
 Gaussian 16:  EM64L-G16RevA.03 25-Dec-2016

 -------------
 #p 6-31g* mp2
 -------------

 ------------------------------------------------------
 Input file generated by CHIRIPA (05-May-2021 14:51:09)
 ------------------------------------------------------
 Symbolic Z-matrix:
 Charge =  0 Multiplicity = 1

                         Standard orientation:
 ---------------------------------------------------------------------
 Center     Atomic      Atomic             Coordinates (Angstroms)
 Number     Number       Type             X           Y           Z
 ---------------------------------------------------------------------
      1          6           0       -1.973623   -0.812428    0.659413
      2          6           0       -1.869094   -2.334761    0.561626
      3          6           0       -1.164695   -2.957601    1.767315
      4          1           0       -0.965183   -0.387507    0.756550
      5          1           0       -2.514389   -0.547285    1.578470
      6          1           0       -1.329894   -2.596991   -0.357675
      7          1           0       -2.877888   -2.756094    0.464518
      8          1           0       -1.704119   -2.724972    2.691169
      9          1           0       -0.147330   -2.564964    1.864304
     10          1           0       -1.100917   -4.046444    1.676690
     11          6           0       -2.675405   -0.175179   -0.538561
     12          6           0       -2.779934    1.347154   -0.440775
     13          6           0       -3.484333    1.969994   -1.646464
     14          1           0       -2.134639   -0.440322   -1.457619
     15          1           0       -3.683845   -0.600100   -0.635698
     16          1           0       -1.771140    1.768487   -0.343667
     17          1           0       -3.319134    1.609384    0.478526
     18          1           0       -4.501697    1.577357   -1.743453
     19          1           0       -2.944908    1.737365   -2.570318
     20          1           0       -3.548110    3.058837   -1.555839
     21          6           0        2.783956    0.082013   -0.510729
     22          6           0        2.312731   -1.360071   -0.701317
     23          6           0        3.242192   -2.171207   -1.604618
     24          1           0        2.860174    0.568929   -1.492590
     25          1           0        3.797037    0.076157   -0.085257
     26          1           0        1.300298   -1.351488   -1.125016
     27          1           0        2.237442   -1.843553    0.281126
     28          1           0        4.251949   -2.209527   -1.183284
     29          1           0        3.309480   -1.714666   -2.597415
     30          1           0        2.886516   -3.198981   -1.727232
     31          6           0        1.865072    0.905594    0.389878
     32          6           0        2.336297    2.347678    0.580465
     33          6           0        1.406835    3.158814    1.483768
     34          1           0        0.851990    0.911450   -0.035594
     35          1           0        1.788853    0.418678    1.371738
     36          1           0        2.411586    2.831159   -0.401978
     37          1           0        3.348730    2.339095    1.004164
     38          1           0        1.339547    2.702274    2.476563
     39          1           0        0.397078    3.197134    1.062432
     40          1           0        1.762511    4.186589    1.606381
 ---------------------------------------------------------------------

 SCF Done:  E(RHF) =  -470.732954142     A.U. after   11 cycles
 E2 =    -0.1584994104D+01 EUMP2 =    -0.47231794824549D+03

 The electronic state is 1-A.
 Alpha  occ. eigenvalues --  -11.21707 -11.21668 -11.21632 -11.21530 -11.21498
 Alpha  occ. eigenvalues --  -11.21439 -11.21374 -11.21232 -11.21143 -11.21108
 Alpha  occ. eigenvalues --  -11.21096 -11.21011  -1.08545  -1.08378  -1.03611
 Alpha  occ. eigenvalues --   -1.03500  -0.96060  -0.95945  -0.87071  -0.86966
 Alpha  occ. eigenvalues --   -0.79677  -0.79571  -0.78499  -0.78074  -0.65315
 Alpha  occ. eigenvalues --   -0.64886  -0.61040  -0.60881  -0.59419  -0.59313
 Alpha  occ. eigenvalues --   -0.57711  -0.57532  -0.55376  -0.55206  -0.52743
 Alpha  occ. eigenvalues --   -0.52653  -0.52517  -0.52337  -0.50000  -0.49901
 Alpha  occ. eigenvalues --   -0.48062  -0.47837  -0.46789  -0.46636  -0.46424
 Alpha  occ. eigenvalues --   -0.45787  -0.45690  -0.44983  -0.43862  -0.43745
 Alpha virt. eigenvalues --    0.19572   0.21554   0.23449   0.24182   0.25383
 Alpha virt. eigenvalues --    0.25936   0.26887   0.27267   0.28396   0.30251
 Alpha virt. eigenvalues --    0.31091   0.31247   0.31595   0.31772   0.32094

 Mulliken charges:
               1
     1  C   -0.307652
     2  C   -0.299521
     3  C   -0.477555
     4  H    0.160424
     5  H    0.148925
     6  H    0.152496
     7  H    0.151345
     8  H    0.154768
     9  H    0.156961
    10  H    0.159784
    11  C   -0.297999
    12  C   -0.305024
    13  C   -0.475484
    14  H    0.148187
    15  H    0.149903
    16  H    0.154889
    17  H    0.152699
    18  H    0.155575
    19  H    0.154846
    20  H    0.160268
    21  C   -0.297757
    22  C   -0.304148
    23  C   -0.475725
    24  H    0.149768
    25  H    0.150100
    26  H    0.153596
    27  H    0.153917
    28  H    0.155600
    29  H    0.155349
    30  H    0.160769
    31  C   -0.306734
    32  C   -0.298816
    33  C   -0.478508
    34  H    0.156590
    35  H    0.150159
    36  H    0.151905
    37  H    0.152274
    38  H    0.155674
    39  H    0.157543
    40  H    0.160610
 Sum of Mulliken charges =  -0.00000

 Dipole moment (field-independent basis, Debye):
    X=              0.0562    Y=              0.0213    Z=              0.0049  Tot=              0.0603
 Quadrupole moment (field-independent basis, Debye-Ang):
   XX=            -84.1977   YY=            -85.5992   ZZ=            -84.9334
   XY=              0.5663   XZ=             -0.0202   YZ=             -0.1973

 Normal termination of Gaussian 16 at Thu May  6 02:08:30 2021.
