 Gaussian 16, Revision A.03,
 Gaussian 16:  EM64L-G16RevA.03 25-Dec-2016

 -------------
 #p 6-31g* mp2
 -------------

 ------------------------------------------------------
 Input file generated by CHIRIPA (05-May-2021 14:53:13)
 ------------------------------------------------------
 Symbolic Z-matrix:
 Charge =  0 Multiplicity = 1

                         Standard orientation:
 ---------------------------------------------------------------------
 Center     Atomic      Atomic             Coordinates (Angstroms)
 Number     Number       Type             X           Y           Z
 ---------------------------------------------------------------------
      1          6           0        2.917796   -0.028147   -0.131152
      2          6           0        4.318349   -0.626017   -0.268948
      3          6           0        4.295556   -2.135686   -0.510140
      4          1           0        2.393630   -0.525267    0.696536
      5          1           0        2.342374   -0.246315   -1.041475
      6          1           0        4.891410   -0.405592    0.640793
      7          1           0        4.839309   -0.127283   -1.096281
      8          1           0        3.747208   -2.370921   -1.428062
      9          1           0        3.799605   -2.650812    0.318883
     10          1           0        5.307189   -2.542305   -0.605630
     11          6           0        2.924084    1.480287    0.110337
     12          6           0        1.523532    2.078157    0.248133
     13          6           0        1.546324    3.587826    0.489325
     14          1           0        3.499506    1.698455    1.020659
     15          1           0        3.448250    1.977407   -0.717351
     16          1           0        1.002571    1.579423    1.075466
     17          1           0        0.950471    1.857732   -0.661609
     18          1           0        2.042276    4.102952   -0.339698
     19          1           0        2.094672    3.823061    1.407247
     20          1           0        0.534691    3.994445    0.584814
     21          6           0       -0.230915   -1.880800    0.666618
     22          6           0       -1.213917   -1.593550    1.619360
     23          6           0       -2.354486   -0.866493    1.265753
     24          6           0       -2.480274   -0.440253   -0.055529
     25          6           0       -1.518372   -0.710597   -1.027612
     26          6           0       -0.386006   -1.439185   -0.651504
     27          1           0        0.651920   -2.446189    0.950048
     28          1           0       -1.096129   -1.935243    2.643771
     29          1           0       -3.130921   -0.630130    1.983177
     30          1           0       -1.663790   -0.356580   -2.040994
     31          1           0        0.375789   -1.660800   -1.393528
     32          7           0       -3.683400    0.330261   -0.441788
     33          8           0       -3.770580    0.694465   -1.612425
     34          8           0       -4.516452    0.555395    0.433414
 ---------------------------------------------------------------------

 SCF Done:  E(RHF) =  -669.534013295     A.U. after   15 cycles
 E2 =    -0.2094432791D+01 EUMP2 =    -0.67162844608627D+03

 The electronic state is 1-A.
 Alpha  occ. eigenvalues --  -20.60749 -20.60744 -15.85803 -11.31162 -11.27734
 Alpha  occ. eigenvalues --  -11.27712 -11.27446 -11.26763 -11.26703 -11.22388
 Alpha  occ. eigenvalues --  -11.22167 -11.22097 -11.21910 -11.21846 -11.21235
 Alpha  occ. eigenvalues --   -1.59825  -1.39379  -1.19336  -1.09088  -1.08714
 Alpha  occ. eigenvalues --   -1.04741  -1.04110  -0.96591  -0.95568  -0.87605
 Alpha  occ. eigenvalues --   -0.86144  -0.82406  -0.80202  -0.78887  -0.77437
 Alpha  occ. eigenvalues --   -0.72021  -0.71147  -0.70453  -0.65726  -0.64988
 Alpha  occ. eigenvalues --   -0.64746  -0.62101  -0.61505  -0.59973  -0.58184
 Alpha  occ. eigenvalues --   -0.55925  -0.55233  -0.53369  -0.53073  -0.52961
 Alpha  occ. eigenvalues --   -0.52812  -0.50541  -0.48789  -0.48778  -0.48499
 Alpha  occ. eigenvalues --   -0.47231  -0.46358  -0.46294  -0.44786  -0.44364
 Alpha  occ. eigenvalues --   -0.37230  -0.36289
 Alpha virt. eigenvalues --    0.05040   0.11265   0.16383   0.19359   0.22823
 Alpha virt. eigenvalues --    0.23766   0.24192   0.26147   0.27409   0.28449
 Alpha virt. eigenvalues --    0.29149   0.29784   0.31150   0.31687   0.32108

 Mulliken charges:
               1
     1  C   -0.299299
     2  C   -0.299640
     3  C   -0.476821
     4  H    0.146965
     5  H    0.143682
     6  H    0.154455
     7  H    0.155231
     8  H    0.151605
     9  H    0.148637
    10  H    0.165979
    11  C   -0.298615
    12  C   -0.300313
    13  C   -0.476644
    14  H    0.150296
    15  H    0.151070
    16  H    0.153688
    17  H    0.151961
    18  H    0.155531
    19  H    0.154466
    20  H    0.164413
    21  C   -0.170929
    22  C   -0.220510
    23  C   -0.171066
    24  C    0.159126
    25  C   -0.172907
    26  C   -0.211959
    27  H    0.226686
    28  H    0.223158
    29  H    0.275392
    30  H    0.274957
    31  H    0.224617
    32  N    0.488036
    33  O   -0.460648
    34  O   -0.460602
 Sum of Mulliken charges =  -0.00000

 Dipole moment (field-independent basis, Debye):
    X=              4.3065    Y=             -2.6300    Z=              1.3715  Tot=              5.2291
 Quadrupole moment (field-independent basis, Debye-Ang):
   XX=           -115.6957   YY=            -94.1967   ZZ=            -89.6536
   XY=              5.2397   XZ=             -5.4611   YZ=             -1.1712

 Normal termination of Gaussian 16 at Thu May  6 08:54:59 2021.
