 Gaussian 16, Revision A.03,
 Gaussian 16:  EM64L-G16RevA.03 25-Dec-2016

 -------------
 #p 6-31g* mp2
 -------------

 ------------------------------------------------------
 Input file generated by CHIRIPA (05-May-2021 14:55:22)
 ------------------------------------------------------
 Symbolic Z-matrix:
 Charge =  0 Multiplicity = 1

                         Standard orientation:
 ---------------------------------------------------------------------
 Center     Atomic      Atomic             Coordinates (Angstroms)
 Number     Number       Type             X           Y           Z
 ---------------------------------------------------------------------
      1          6           0       -0.506468    0.591385    1.261817
      2          6           0       -0.948734   -0.735521    1.246231
      3          6           0       -2.171220   -1.069582    0.655910
      4          6           0       -2.929429   -0.046950    0.087902
      5          6           0       -2.516000    1.284352    0.087547
      6          6           0       -1.290131    1.595317    0.683445
      7          1           0        0.444503    0.841920    1.722558
      8          1           0       -0.342219   -1.517259    1.694640
      9          1           0       -2.537618   -2.088645    0.629829
     10          1           0       -3.142605    2.041807   -0.367478
     11          1           0       -0.949178    2.626667    0.694080
     12          7           0       -4.225411   -0.388380   -0.539997
     13          8           0       -4.874821    0.530982   -1.033635
     14          8           0       -4.567253   -1.568889   -0.526616
     15          6           0        3.162782    0.626558    0.033393
     16          6           0        3.608304    1.891159   -0.701645
     17          6           0        2.972653    3.160264   -0.133216
     18          1           0        2.068437    0.545630   -0.019581
     19          1           0        3.418091    0.720460    1.098002
     20          1           0        3.353476    1.794315   -1.764800
     21          1           0        4.701731    1.968985   -0.647081
     22          1           0        3.237157    3.284287    0.921894
     23          1           0        1.881242    3.108624   -0.202176
     24          1           0        3.304892    4.052284   -0.673380
     25          6           0        3.789758   -0.650421   -0.523342
     26          6           0        3.344235   -1.915022    0.211695
     27          6           0        3.979886   -3.184129   -0.356735
     28          1           0        3.534448   -0.744323   -1.587952
     29          1           0        4.884102   -0.569493   -0.470369
     30          1           0        2.250809   -1.992848    0.157130
     31          1           0        3.599064   -1.818178    1.274850
     32          1           0        5.071298   -3.132488   -0.287774
     33          1           0        3.715382   -3.308150   -1.411844
     34          1           0        3.647647   -4.076148    0.183430
 ---------------------------------------------------------------------

 SCF Done:  E(RHF) =  -669.535290556     A.U. after   15 cycles
 E2 =    -0.2092946551D+01 EUMP2 =    -0.67162823710745D+03

 The electronic state is 1-A.
 Alpha  occ. eigenvalues --  -20.60776 -20.60771 -15.85831 -11.31203 -11.27785
 Alpha  occ. eigenvalues --  -11.27781 -11.27458 -11.26780 -11.26768 -11.22439
 Alpha  occ. eigenvalues --  -11.22430 -11.22287 -11.22141 -11.22059 -11.21705
 Alpha  occ. eigenvalues --   -1.59852  -1.39406  -1.19383  -1.09286  -1.08766
 Alpha  occ. eigenvalues --   -1.04784  -1.04357  -0.96808  -0.95604  -0.87824
 Alpha  occ. eigenvalues --   -0.86176  -0.82440  -0.80432  -0.79147  -0.77480
 Alpha  occ. eigenvalues --   -0.72048  -0.71177  -0.70481  -0.65905  -0.65028
 Alpha  occ. eigenvalues --   -0.64767  -0.62147  -0.61727  -0.60177  -0.58441
 Alpha  occ. eigenvalues --   -0.56124  -0.55266  -0.53484  -0.53253  -0.53097
 Alpha  occ. eigenvalues --   -0.52867  -0.50740  -0.48817  -0.48803  -0.48730
 Alpha  occ. eigenvalues --   -0.47454  -0.46635  -0.46560  -0.44810  -0.44606
 Alpha  occ. eigenvalues --   -0.37288  -0.36393
 Alpha virt. eigenvalues --    0.05015   0.11108   0.16413   0.19927   0.22486
 Alpha virt. eigenvalues --    0.22942   0.25187   0.25978   0.26469   0.27829
 Alpha virt. eigenvalues --    0.29077   0.30035   0.30826   0.31030   0.31512

 Mulliken charges:
               1
     1  C   -0.171459
     2  C   -0.222128
     3  C   -0.170772
     4  C    0.158465
     5  C   -0.170452
     6  C   -0.223004
     7  H    0.232559
     8  H    0.225588
     9  H    0.275753
    10  H    0.275805
    11  H    0.225280
    12  N    0.488075
    13  O   -0.460394
    14  O   -0.460405
    15  C   -0.309200
    16  C   -0.298666
    17  C   -0.478730
    18  H    0.154089
    19  H    0.144713
    20  H    0.156120
    21  H    0.155090
    22  H    0.154206
    23  H    0.148998
    24  H    0.165588
    25  C   -0.297281
    26  C   -0.303037
    27  C   -0.475916
    28  H    0.153562
    29  H    0.152182
    30  H    0.149244
    31  H    0.149687
    32  H    0.157308
    33  H    0.158253
    34  H    0.160879
 Sum of Mulliken charges =  -0.00000

 Dipole moment (field-independent basis, Debye):
    X=              4.6967    Y=              1.1824    Z=              2.1147  Tot=              5.2848
 Quadrupole moment (field-independent basis, Debye-Ang):
   XX=           -121.1171   YY=            -91.0662   ZZ=            -94.4693
   XY=             -4.1184   XZ=             -5.7194   YZ=             -1.5530

 Normal termination of Gaussian 16 at Thu May  6 15:54:13 2021.
