 Gaussian 16, Revision A.03,
 Gaussian 16:  EM64L-G16RevA.03 25-Dec-2016

 -------------
 #p 6-31g* mp2
 -------------

 ------------------------------------------------------
 Input file generated by CHIRIPA (05-May-2021 14:53:15)
 ------------------------------------------------------
 Symbolic Z-matrix:
 Charge =  0 Multiplicity = 1

                         Standard orientation:
 ---------------------------------------------------------------------
 Center     Atomic      Atomic             Coordinates (Angstroms)
 Number     Number       Type             X           Y           Z
 ---------------------------------------------------------------------
      1          6           0        4.186264   -0.007901   -0.128947
      2          6           0        3.918816   -1.439455    0.337003
      3          6           0        5.043576   -2.403894   -0.040576
      4          1           0        4.324468   -0.003590   -1.218822
      5          1           0        5.132184    0.341644    0.307459
      6          1           0        2.972987   -1.785704   -0.099043
      7          1           0        3.781043   -1.440330    1.425871
      8          1           0        5.990630   -2.085319    0.406858
      9          1           0        5.177984   -2.432655   -1.126720
     10          1           0        4.831792   -3.421520    0.302128
     11          6           0        3.070762    0.968025    0.241125
     12          6           0        3.338210    2.399579   -0.224825
     13          6           0        2.213451    3.364018    0.152754
     14          1           0        2.124843    0.618480   -0.195281
     15          1           0        2.932559    0.963714    1.330999
     16          1           0        3.475984    2.400454   -1.313693
     17          1           0        4.284039    2.745827    0.211221
     18          1           0        2.079043    3.392778    1.238898
     19          1           0        1.266396    3.045442   -0.294681
     20          1           0        2.425235    4.381643   -0.189950
     21          6           0       -1.272383   -2.353263   -0.151142
     22          6           0       -2.639209   -2.551967    0.069820
     23          6           0       -3.514157   -1.463275    0.131180
     24          6           0       -2.985822   -0.183802   -0.033444
     25          6           0       -1.628944    0.046615   -0.254981
     26          6           0       -0.772494   -1.056892   -0.312552
     27          1           0       -0.599887   -3.204739   -0.197336
     28          1           0       -3.030231   -3.557624    0.195526
     29          1           0       -4.576652   -1.588478    0.301016
     30          1           0       -1.268666    1.060929   -0.376581
     31          1           0        0.288545   -0.899575   -0.484282
     32          7           0       -3.902299    0.976590    0.029510
     33          8           0       -3.411920    2.093823   -0.118657
     34          8           0       -5.093659    0.746898    0.225826
 ---------------------------------------------------------------------

 SCF Done:  E(RHF) =  -669.535373247     A.U. after   15 cycles
 E2 =    -0.2091808998D+01 EUMP2 =    -0.67162718224495D+03

 The electronic state is 1-A.
 Alpha  occ. eigenvalues --  -20.60719 -20.60714 -15.85772 -11.31134 -11.27703
 Alpha  occ. eigenvalues --  -11.27696 -11.27439 -11.26720 -11.26679 -11.22546
 Alpha  occ. eigenvalues --  -11.22288 -11.22184 -11.22165 -11.21831 -11.21513
 Alpha  occ. eigenvalues --   -1.59795  -1.39349  -1.19303  -1.09230  -1.08699
 Alpha  occ. eigenvalues --   -1.04707  -1.04242  -0.96673  -0.95536  -0.87684
 Alpha  occ. eigenvalues --   -0.86108  -0.82373  -0.80313  -0.79070  -0.77412
 Alpha  occ. eigenvalues --   -0.71991  -0.71118  -0.70415  -0.65913  -0.64956
 Alpha  occ. eigenvalues --   -0.64692  -0.62064  -0.61632  -0.60050  -0.58290
 Alpha  occ. eigenvalues --   -0.55962  -0.55210  -0.53340  -0.53131  -0.53034
 Alpha  occ. eigenvalues --   -0.52774  -0.50613  -0.48754  -0.48746  -0.48622
 Alpha  occ. eigenvalues --   -0.47363  -0.46566  -0.46494  -0.44755  -0.44516
 Alpha  occ. eigenvalues --   -0.37285  -0.36306
 Alpha virt. eigenvalues --    0.05117   0.11339   0.16600   0.18441   0.22458
 Alpha virt. eigenvalues --    0.22896   0.24562   0.25817   0.26439   0.27795
 Alpha virt. eigenvalues --    0.29512   0.30891   0.31165   0.31274   0.31970

 Mulliken charges:
               1
     1  C   -0.298869
     2  C   -0.300246
     3  C   -0.476063
     4  H    0.151074
     5  H    0.153996
     6  H    0.141588
     7  H    0.155053
     8  H    0.158796
     9  H    0.156535
    10  H    0.160495
    11  C   -0.302189
    12  C   -0.300504
    13  C   -0.476251
    14  H    0.140323
    15  H    0.153730
    16  H    0.153261
    17  H    0.155076
    18  H    0.158126
    19  H    0.152919
    20  H    0.165043
    21  C   -0.172193
    22  C   -0.218592
    23  C   -0.171057
    24  C    0.158688
    25  C   -0.174841
    26  C   -0.226521
    27  H    0.225711
    28  H    0.223154
    29  H    0.275403
    30  H    0.276656
    31  H    0.234819
    32  N    0.487942
    33  O   -0.460349
    34  O   -0.460712
 Sum of Mulliken charges =  -0.00000

 Dipole moment (field-independent basis, Debye):
    X=              3.4675    Y=             -3.9802    Z=             -0.1630  Tot=              5.2813
 Quadrupole moment (field-independent basis, Debye-Ang):
   XX=           -110.6296   YY=            -91.8690   ZZ=            -94.7119
   XY=             15.3833   XZ=              0.5584   YZ=             -0.3478

 Normal termination of Gaussian 16 at Thu May  6 13:49:29 2021.
