 Gaussian 16, Revision A.03,
 Gaussian 16:  EM64L-G16RevA.03 25-Dec-2016

 -------------
 #p 6-31g* mp2
 -------------

 ------------------------------------------------------
 Input file generated by CHIRIPA (05-May-2021 14:57:24)
 ------------------------------------------------------
 Symbolic Z-matrix:
 Charge =  0 Multiplicity = 1

                         Standard orientation:
 ---------------------------------------------------------------------
 Center     Atomic      Atomic             Coordinates (Angstroms)
 Number     Number       Type             X           Y           Z
 ---------------------------------------------------------------------
      1          6           0       -5.144414    0.713297   -0.044521
      2          6           0       -5.032395   -0.636201    0.305950
      3          6           0       -3.789977   -1.276584    0.276740
      4          6           0       -2.675295   -0.533906   -0.109532
      5          6           0       -2.754572    0.811864   -0.464367
      6          6           0       -4.007150    1.431755   -0.427885
      7          1           0       -6.113501    1.202802   -0.019005
      8          1           0       -5.913908   -1.196649    0.604075
      9          1           0       -3.674728   -2.320232    0.543075
     10          1           0       -1.857901    1.344370   -0.757346
     11          1           0       -4.091155    2.479906   -0.700588
     12          7           0       -1.354625   -1.201004   -0.144305
     13          8           0       -0.387731   -0.524605   -0.488162
     14          8           0       -1.311384   -2.387644    0.172956
     15          6           0        1.319505    2.344920    0.551111
     16          6           0        1.730344    1.517461    1.601372
     17          6           0        2.601915    0.450168    1.365161
     18          6           0        3.045074    0.238249    0.060557
     19          6           0        2.653822    1.045024   -1.006836
     20          6           0        1.781742    2.106480   -0.747351
     21          1           0        0.642250    3.171752    0.743646
     22          1           0        1.372972    1.700264    2.610785
     23          1           0        2.935923   -0.205989    2.159713
     24          1           0        3.027005    0.837805   -2.002434
     25          1           0        1.464351    2.747464   -1.564939
     26          7           0        3.968037   -0.888557   -0.201829
     27          8           0        4.344161   -1.054158   -1.360167
     28          8           0        4.297856   -1.584810    0.755818
 ---------------------------------------------------------------------

 SCF Done:  E(RHF) =  -868.336406531     A.U. after   16 cycles
 E2 =    -0.2602304236D+01 EUMP2 =    -0.87093871076635D+03

 The electronic state is 1-A.
 Alpha  occ. eigenvalues --  -20.61042 -20.61031 -20.59669 -20.59662 -15.86077
 Alpha  occ. eigenvalues --  -15.84720 -11.31573 -11.30013 -11.28190 -11.28117
 Alpha  occ. eigenvalues --  -11.27896 -11.27217 -11.27149 -11.26645 -11.26641
 Alpha  occ. eigenvalues --  -11.26555 -11.25767 -11.25741  -1.60113  -1.58732
 Alpha  occ. eigenvalues --   -1.39664  -1.38294  -1.19751  -1.18210  -1.09120
 Alpha  occ. eigenvalues --   -1.07678  -1.05175  -1.03668  -0.95940  -0.94522
 Alpha  occ. eigenvalues --   -0.86562  -0.85118  -0.82774  -0.81384  -0.77810
 Alpha  occ. eigenvalues --   -0.76390  -0.72332  -0.71446  -0.70971  -0.70853
 Alpha  occ. eigenvalues --   -0.70012  -0.69503  -0.65404  -0.65176  -0.63958
 Alpha  occ. eigenvalues --   -0.63787  -0.62525  -0.61070  -0.55656  -0.54332
 Alpha  occ. eigenvalues --   -0.53496  -0.53268  -0.51884  -0.51858  -0.49099
 Alpha  occ. eigenvalues --   -0.49017  -0.47717  -0.47710  -0.45024  -0.43719
 Alpha  occ. eigenvalues --   -0.37730  -0.36790  -0.36178  -0.35175
 Alpha virt. eigenvalues --    0.04721   0.06178   0.10865   0.12351   0.16197
 Alpha virt. eigenvalues --    0.17622   0.20842   0.22137   0.26696   0.27579
 Alpha virt. eigenvalues --    0.28224   0.29146   0.30656   0.31605   0.32135

 Mulliken charges:
               1
     1  C   -0.170838
     2  C   -0.218401
     3  C   -0.170641
     4  C    0.158081
     5  C   -0.172574
     6  C   -0.218776
     7  H    0.226345
     8  H    0.224959
     9  H    0.277490
    10  H    0.270978
    11  H    0.221505
    12  N    0.490627
    13  O   -0.461952
    14  O   -0.457676
    15  C   -0.169745
    16  C   -0.215922
    17  C   -0.164304
    18  C    0.170858
    19  C   -0.160562
    20  C   -0.212963
    21  H    0.214029
    22  H    0.216895
    23  H    0.273073
    24  H    0.272340
    25  H    0.214157
    26  N    0.488619
    27  O   -0.463188
    28  O   -0.462413
 Sum of Mulliken charges =  -0.00000

 Dipole moment (field-independent basis, Debye):
    X=             -7.9646    Y=              5.9991    Z=              1.0117  Tot=             10.0224
 Quadrupole moment (field-independent basis, Debye-Ang):
   XX=           -100.1225   YY=           -103.0747   ZZ=           -100.6436
   XY=              9.4916   XZ=              1.7829   YZ=             -2.8424

 Normal termination of Gaussian 16 at Thu May  6 08:16:15 2021.
