 Gaussian 16, Revision A.03,
 Gaussian 16:  EM64L-G16RevA.03 25-Dec-2016

 -------------
 #p 6-31g* mp2
 -------------

 ------------------------------------------------------
 Input file generated by CHIRIPA (05-May-2021 14:51:12)
 ------------------------------------------------------
 Symbolic Z-matrix:
 Charge =  0 Multiplicity = 1

                         Standard orientation:
 ---------------------------------------------------------------------
 Center     Atomic      Atomic             Coordinates (Angstroms)
 Number     Number       Type             X           Y           Z
 ---------------------------------------------------------------------
      1          6           0        3.064721   -0.607250    0.347700
      2          6           0        3.623938    0.576870   -0.441682
      3          6           0        4.763137    1.288916    0.288393
      4          1           0        2.710824   -0.253425    1.325713
      5          1           0        3.875691   -1.321038    0.548274
      6          1           0        2.811866    1.287550   -0.641904
      7          1           0        3.976369    0.220217   -1.418005
      8          1           0        5.592213    0.598624    0.474753
      9          1           0        4.421093    1.672021    1.255263
     10          1           0        5.147998    2.132075   -0.293694
     11          6           0        1.925191   -1.329264   -0.369164
     12          6           0        1.365974   -2.513383    0.420217
     13          6           0        0.226775   -3.225430   -0.309858
     14          1           0        1.114221   -0.615476   -0.569739
     15          1           0        2.279088   -1.683089   -1.347177
     16          1           0        1.013543   -2.156731    1.396541
     17          1           0        2.178046   -3.224063    0.620440
     18          1           0        0.568819   -3.608534   -1.276728
     19          1           0       -0.602301   -2.535138   -0.496217
     20          1           0       -0.158086   -4.068588    0.272230
     21          6           0       -2.050907    1.460322   -0.368904
     22          6           0       -1.572387    2.631862    0.489290
     23          6           0       -0.685048    3.607608   -0.284236
     24          1           0       -1.177988    0.926350   -0.768696
     25          1           0       -2.602293    1.850810   -1.235441
     26          1           0       -1.023255    2.239226    1.354685
     27          1           0       -2.446545    3.162992    0.887241
     28          1           0       -1.226792    4.026931   -1.138218
     29          1           0        0.204586    3.097917   -0.668118
     30          1           0       -0.354272    4.437306    0.348259
     31          6           0       -2.939006    0.476192    0.390369
     32          6           0       -3.417525   -0.695348   -0.467826
     33          6           0       -4.304864   -1.671095    0.305700
     34          1           0       -2.387619    0.085703    1.256906
     35          1           0       -3.811924    1.010163    0.790161
     36          1           0       -2.543366   -1.226478   -0.865777
     37          1           0       -3.966657   -0.302712   -1.333220
     38          1           0       -5.194498   -1.161402    0.689583
     39          1           0       -3.763121   -2.090417    1.159682
     40          1           0       -4.635640   -2.500792   -0.326795
 ---------------------------------------------------------------------

 SCF Done:  E(RHF) =  -470.733330132     A.U. after   11 cycles
 E2 =    -0.1583932660D+01 EUMP2 =    -0.47231726279204D+03

 The electronic state is 1-A.
 Alpha  occ. eigenvalues --  -11.21662 -11.21659 -11.21651 -11.21620 -11.21468
 Alpha  occ. eigenvalues --  -11.21459 -11.21407 -11.21397 -11.21128 -11.21109
 Alpha  occ. eigenvalues --  -11.21097 -11.21074  -1.08504  -1.08464  -1.03595
 Alpha  occ. eigenvalues --   -1.03553  -0.96039  -0.96005  -0.87062  -0.87015
 Alpha  occ. eigenvalues --   -0.79685  -0.79593  -0.78364  -0.78232  -0.65313
 Alpha  occ. eigenvalues --   -0.64936  -0.61154  -0.60812  -0.59405  -0.59373
 Alpha  occ. eigenvalues --   -0.57677  -0.57591  -0.55433  -0.55194  -0.52715
 Alpha  occ. eigenvalues --   -0.52707  -0.52502  -0.52397  -0.50119  -0.49817
 Alpha  occ. eigenvalues --   -0.48071  -0.47864  -0.46850  -0.46525  -0.46138
 Alpha  occ. eigenvalues --   -0.45818  -0.45789  -0.45345  -0.43835  -0.43824
 Alpha virt. eigenvalues --    0.18848   0.21826   0.24031   0.24784   0.25167
 Alpha virt. eigenvalues --    0.26687   0.27147   0.27607   0.27692   0.29402
 Alpha virt. eigenvalues --    0.31352   0.31508   0.31589   0.31798   0.31909

 Mulliken charges:
               1
     1  C   -0.298053
     2  C   -0.301258
     3  C   -0.475673
     4  H    0.149578
     5  H    0.149957
     6  H    0.152655
     7  H    0.152273
     8  H    0.155277
     9  H    0.155360
    10  H    0.160596
    11  C   -0.303274
    12  C   -0.299004
    13  C   -0.483631
    14  H    0.152776
    15  H    0.150190
    16  H    0.151486
    17  H    0.152398
    18  H    0.155637
    19  H    0.162012
    20  H    0.160777
    21  C   -0.303275
    22  C   -0.299420
    23  C   -0.477260
    24  H    0.153041
    25  H    0.150187
    26  H    0.151538
    27  H    0.152390
    28  H    0.155656
    29  H    0.155838
    30  H    0.160615
    31  C   -0.298149
    32  C   -0.306904
    33  C   -0.475562
    34  H    0.149230
    35  H    0.150109
    36  H    0.157996
    37  H    0.152508
    38  H    0.155173
    39  H    0.155541
    40  H    0.160668
 Sum of Mulliken charges =  -0.00000

 Dipole moment (field-independent basis, Debye):
    X=             -0.0031    Y=             -0.0050    Z=             -0.0064  Tot=              0.0087
 Quadrupole moment (field-independent basis, Debye-Ang):
   XX=            -84.6135   YY=            -85.0489   ZZ=            -84.8470
   XY=             -1.9311   XZ=             -0.1342   YZ=              0.2323

 Normal termination of Gaussian 16 at Thu May  6 00:45:35 2021.
