 Gaussian 16, Revision A.03,
 Gaussian 16:  EM64L-G16RevA.03 25-Dec-2016

 -------------
 #p 6-31g* mp2
 -------------

 ------------------------------------------------------
 Input file generated by CHIRIPA (05-May-2021 14:57:21)
 ------------------------------------------------------
 Symbolic Z-matrix:
 Charge =  0 Multiplicity = 1

                         Standard orientation:
 ---------------------------------------------------------------------
 Center     Atomic      Atomic             Coordinates (Angstroms)
 Number     Number       Type             X           Y           Z
 ---------------------------------------------------------------------
      1          6           0        3.850666    2.304125    0.191695
      2          6           0        3.902841    1.307253    1.171514
      3          6           0        3.323270    0.055743    0.942672
      4          6           0        2.696797   -0.165636   -0.282813
      5          6           0        2.628285    0.807253   -1.278847
      6          6           0        3.214675    2.051389   -1.028207
      7          1           0        4.303539    3.273464    0.377932
      8          1           0        4.396095    1.500716    2.119837
      9          1           0        3.349078   -0.733931    1.683729
     10          1           0        2.129587    0.584745   -2.214372
     11          1           0        3.172627    2.823694   -1.790980
     12          7           0        2.079621   -1.486650   -0.536616
     13          8           0        1.533606   -1.656649   -1.624552
     14          8           0        2.153581   -2.327048    0.357195
     15          6           0       -4.574634    1.548248   -0.565410
     16          6           0       -3.977631    1.737439    0.685316
     17          6           0       -2.992478    0.856993    1.142304
     18          6           0       -2.626807   -0.206797    0.318942
     19          6           0       -3.203019   -0.421925   -0.932053
     20          6           0       -4.186106    0.471069   -1.368686
     21          1           0       -5.339122    2.237073   -0.912504
     22          1           0       -4.277385    2.573117    1.311282
     23          1           0       -2.513892    0.979959    2.106281
     24          1           0       -2.883327   -1.264161   -1.533596
     25          1           0       -4.648026    0.321677   -2.340467
     26          7           0       -1.584963   -1.145527    0.791961
     27          8           0       -1.280435   -2.074970    0.047624
     28          8           0       -1.092619   -0.934087    1.898093
 ---------------------------------------------------------------------

 SCF Done:  E(RHF) =  -868.335331115     A.U. after   16 cycles
 E2 =    -0.2601686104D+01 EUMP2 =    -0.87093701721967D+03

 The electronic state is 1-A.
 Alpha  occ. eigenvalues --  -20.60125 -20.59985 -20.59537 -20.59451 -15.85102
 Alpha  occ. eigenvalues --  -15.84562 -11.30749 -11.30369 -11.27389 -11.27306
 Alpha  occ. eigenvalues --  -11.27167 -11.27042 -11.26944 -11.26843 -11.26457
 Alpha  occ. eigenvalues --  -11.26409 -11.26149 -11.26083  -1.59140  -1.58534
 Alpha  occ. eigenvalues --   -1.38676  -1.38093  -1.18955  -1.18588  -1.08303
 Alpha  occ. eigenvalues --   -1.07904  -1.04395  -1.04058  -0.95085  -0.94663
 Alpha  occ. eigenvalues --   -0.85779  -0.85437  -0.81908  -0.81505  -0.76909
 Alpha  occ. eigenvalues --   -0.76467  -0.71320  -0.70801  -0.70664  -0.70059
 Alpha  occ. eigenvalues --   -0.69705  -0.69680  -0.64596  -0.64400  -0.64236
 Alpha  occ. eigenvalues --   -0.64072  -0.61731  -0.61401  -0.54897  -0.54561
 Alpha  occ. eigenvalues --   -0.52721  -0.52488  -0.52364  -0.52161  -0.48132
 Alpha  occ. eigenvalues --   -0.48065  -0.47526  -0.47478  -0.44097  -0.43281
 Alpha  occ. eigenvalues --   -0.36965  -0.36597  -0.36014  -0.35679
 Alpha virt. eigenvalues --    0.05581   0.06115   0.11636   0.11969   0.17034
 Alpha virt. eigenvalues --    0.17509   0.21743   0.22018   0.27639   0.27898
 Alpha virt. eigenvalues --    0.28676   0.28960   0.31261   0.31527   0.32973

 Mulliken charges:
               1
     1  C   -0.172630
     2  C   -0.219061
     3  C   -0.167138
     4  C    0.159509
     5  C   -0.173527
     6  C   -0.218955
     7  H    0.221803
     8  H    0.221352
     9  H    0.279004
    10  H    0.272221
    11  H    0.219077
    12  N    0.489917
    13  O   -0.463730
    14  O   -0.448278
    15  C   -0.171974
    16  C   -0.219015
    17  C   -0.172149
    18  C    0.157792
    19  C   -0.170840
    20  C   -0.219281
    21  H    0.223451
    22  H    0.220856
    23  H    0.273578
    24  H    0.280957
    25  H    0.222649
    26  N    0.482948
    27  O   -0.442401
    28  O   -0.466136
 Sum of Mulliken charges =  -0.00000

 Dipole moment (field-independent basis, Debye):
    X=             -1.5241    Y=              7.4960    Z=             -0.7383  Tot=              7.6849
 Quadrupole moment (field-independent basis, Debye-Ang):
   XX=            -75.9103   YY=           -106.8855   ZZ=            -99.3189
   XY=              3.7902   XZ=              7.6105   YZ=              0.9094

 Normal termination of Gaussian 16 at Thu May  6 21:06:01 2021.
