 Gaussian 16, Revision A.03,
 Gaussian 16:  EM64L-G16RevA.03 25-Dec-2016

 -------------
 #p 6-31g* mp2
 -------------

 ------------------------------------------------------
 Input file generated by CHIRIPA (05-May-2021 14:55:24)
 ------------------------------------------------------
 Symbolic Z-matrix:
 Charge =  0 Multiplicity = 1

                         Standard orientation:
 ---------------------------------------------------------------------
 Center     Atomic      Atomic             Coordinates (Angstroms)
 Number     Number       Type             X           Y           Z
 ---------------------------------------------------------------------
      1          6           0       -0.783916    0.149479    1.076543
      2          6           0       -1.893555    0.580055    1.811271
      3          6           0       -3.188850    0.375558    1.326565
      4          6           0       -3.338549   -0.265779    0.097920
      5          6           0       -2.252938   -0.706315   -0.657505
      6          6           0       -0.966826   -0.491203   -0.153332
      7          1           0        0.218734    0.312460    1.460635
      8          1           0       -1.754514    1.077895    2.766712
      9          1           0       -4.065500    0.698711    1.874721
     10          1           0       -2.423254   -1.199654   -1.606730
     11          1           0       -0.106911   -0.826662   -0.726095
     12          7           0       -4.704959   -0.487890   -0.425521
     13          8           0       -4.810069   -1.055385   -1.510665
     14          8           0       -5.644967   -0.090280    0.259262
     15          6           0        3.465890    0.590157   -0.710915
     16          6           0        2.713485    1.782329   -0.118804
     17          6           0        1.678254    2.365195   -1.081278
     18          1           0        3.961955    0.902551   -1.640041
     19          1           0        2.743017   -0.189169   -0.989302
     20          1           0        3.437679    2.558613    0.159659
     21          1           0        2.219312    1.467110    0.809122
     22          1           0        0.933804    1.608949   -1.350515
     23          1           0        2.159094    2.706655   -2.003666
     24          1           0        1.152176    3.216313   -0.637770
     25          6           0        4.504279   -0.003476    0.239390
     26          6           0        5.256685   -1.195648   -0.352722
     27          6           0        6.291916   -1.778513    0.609753
     28          1           0        5.227153    0.775851    0.517777
     29          1           0        4.008215   -0.315869    1.168515
     30          1           0        5.750858   -0.880429   -1.280647
     31          1           0        4.532491   -1.971933   -0.631185
     32          1           0        5.811077   -2.119973    1.532141
     33          1           0        7.036366   -1.022268    0.878988
     34          1           0        6.817994   -2.629632    0.166244
 ---------------------------------------------------------------------

 SCF Done:  E(RHF) =  -669.534891054     A.U. after   15 cycles
 E2 =    -0.2092749662D+01 EUMP2 =    -0.67162764071687D+03

 The electronic state is 1-A.
 Alpha  occ. eigenvalues --  -20.60765 -20.60760 -15.85820 -11.31195 -11.27776
 Alpha  occ. eigenvalues --  -11.27771 -11.27495 -11.26786 -11.26770 -11.22706
 Alpha  occ. eigenvalues --  -11.22451 -11.22355 -11.22269 -11.21887 -11.21692
 Alpha  occ. eigenvalues --   -1.59841  -1.39394  -1.19375  -1.09385  -1.08763
 Alpha  occ. eigenvalues --   -1.04786  -1.04395  -0.96818  -0.95596  -0.87827
 Alpha  occ. eigenvalues --   -0.86180  -0.82436  -0.80472  -0.79190  -0.77478
 Alpha  occ. eigenvalues --   -0.72038  -0.71164  -0.70519  -0.66070  -0.65024
 Alpha  occ. eigenvalues --   -0.64773  -0.62176  -0.61745  -0.60190  -0.58434
 Alpha  occ. eigenvalues --   -0.56143  -0.55276  -0.53483  -0.53261  -0.53055
 Alpha  occ. eigenvalues --   -0.52878  -0.50752  -0.48806  -0.48793  -0.48761
 Alpha  occ. eigenvalues --   -0.47517  -0.46710  -0.46654  -0.44797  -0.44660
 Alpha  occ. eigenvalues --   -0.37322  -0.36373
 Alpha virt. eigenvalues --    0.05050   0.11136   0.16471   0.18294   0.22843
 Alpha virt. eigenvalues --    0.23927   0.24191   0.25279   0.27254   0.28214
 Alpha virt. eigenvalues --    0.29314   0.29839   0.31042   0.31498   0.31778

 Mulliken charges:
               1
     1  C   -0.171179
     2  C   -0.220174
     3  C   -0.170398
     4  C    0.158523
     5  C   -0.171874
     6  C   -0.222825
     7  H    0.231571
     8  H    0.223718
     9  H    0.275709
    10  H    0.275973
    11  H    0.225793
    12  N    0.488043
    13  O   -0.460362
    14  O   -0.460409
    15  C   -0.299584
    16  C   -0.303566
    17  C   -0.478516
    18  H    0.155387
    19  H    0.142198
    20  H    0.157790
    21  H    0.141646
    22  H    0.155630
    23  H    0.158911
    24  H    0.163576
    25  C   -0.297957
    26  C   -0.300072
    27  C   -0.476184
    28  H    0.152902
    29  H    0.145840
    30  H    0.154297
    31  H    0.151029
    32  H    0.155181
    33  H    0.156615
    34  H    0.162768
 Sum of Mulliken charges =  -0.00000

 Dipole moment (field-independent basis, Debye):
    X=              4.9752    Y=              0.8430    Z=              1.7978  Tot=              5.3568
 Quadrupole moment (field-independent basis, Debye-Ang):
   XX=           -125.8867   YY=            -94.5076   ZZ=            -91.5036
   XY=             -3.9382   XZ=             -8.4437   YZ=              1.6537

 Normal termination of Gaussian 16 at Wed May  5 20:47:46 2021.
