 Gaussian 16, Revision A.03,
 Gaussian 16:  EM64L-G16RevA.03 25-Dec-2016

 -------------
 #p 6-31g* mp2
 -------------

 ------------------------------------------------------
 Input file generated by CHIRIPA (05-May-2021 14:53:14)
 ------------------------------------------------------
 Symbolic Z-matrix:
 Charge =  0 Multiplicity = 1

                         Standard orientation:
 ---------------------------------------------------------------------
 Center     Atomic      Atomic             Coordinates (Angstroms)
 Number     Number       Type             X           Y           Z
 ---------------------------------------------------------------------
      1          6           0        1.801493    0.812726   -0.332191
      2          6           0        2.337641    2.241786   -0.423386
      3          6           0        1.296698    3.231373   -0.947744
      4          1           0        1.457119    0.493016   -1.325235
      5          1           0        0.919716    0.800488    0.323334
      6          1           0        3.218970    2.251085   -1.077442
      7          1           0        2.680956    2.558063    0.569951
      8          1           0        0.419970    3.251639   -0.292353
      9          1           0        0.961041    2.942917   -1.949107
     10          1           0        1.701102    4.246781   -1.004884
     11          6           0        2.830492   -0.188181    0.190375
     12          6           0        2.294344   -1.617241    0.281570
     13          6           0        3.335287   -2.606828    0.805927
     14          1           0        3.712270   -0.175942   -0.465150
     15          1           0        3.174867    0.131530    1.183419
     16          1           0        1.951030   -1.933518   -0.711768
     17          1           0        1.413016   -1.626540    0.935626
     18          1           0        3.670945   -2.318372    1.807290
     19          1           0        4.212016   -2.627093    0.150537
     20          1           0        2.930883   -3.622235    0.863067
     21          6           0       -1.722502   -1.609830   -2.064222
     22          6           0       -1.797281   -0.214768   -2.133013
     23          6           0       -1.845915    0.552107   -0.965071
     24          6           0       -1.817768   -0.111916    0.260313
     25          6           0       -1.743554   -1.500265    0.361656
     26          6           0       -1.695924   -2.247002   -0.819302
     27          1           0       -1.685112   -2.197735   -2.976563
     28          1           0       -1.818076    0.282769   -3.098450
     29          1           0       -1.904062    1.633517   -0.989381
     30          1           0       -1.724449   -1.967784    1.338631
     31          1           0       -1.637877   -3.330279   -0.762844
     32          7           0       -1.868722    0.689281    1.503651
     33          8           0       -1.842552    0.080256    2.570910
     34          8           0       -1.933866    1.911113    1.387377
 ---------------------------------------------------------------------

 SCF Done:  E(RHF) =  -669.534684093     A.U. after   15 cycles
 E2 =    -0.2096236413D+01 EUMP2 =    -0.67163092050588D+03

 The electronic state is 1-A.
 Alpha  occ. eigenvalues --  -20.60940 -20.60929 -15.85952 -11.31178 -11.27802
 Alpha  occ. eigenvalues --  -11.27759 -11.27547 -11.26802 -11.26786 -11.21605
 Alpha  occ. eigenvalues --  -11.21414 -11.21301 -11.21211 -11.21133 -11.20877
 Alpha  occ. eigenvalues --   -1.59997  -1.39553  -1.19404  -1.08825  -1.08340
 Alpha  occ. eigenvalues --   -1.04796  -1.03451  -0.95910  -0.95666  -0.86930
 Alpha  occ. eigenvalues --   -0.86201  -0.82502  -0.79528  -0.78208  -0.77547
 Alpha  occ. eigenvalues --   -0.72181  -0.71328  -0.70523  -0.65083  -0.64946
 Alpha  occ. eigenvalues --   -0.64799  -0.62153  -0.60838  -0.59289  -0.57541
 Alpha  occ. eigenvalues --   -0.55313  -0.55191  -0.53284  -0.52898  -0.52558
 Alpha  occ. eigenvalues --   -0.52301  -0.49852  -0.48947  -0.48929  -0.47877
 Alpha  occ. eigenvalues --   -0.46563  -0.45691  -0.45618  -0.44884  -0.43701
 Alpha  occ. eigenvalues --   -0.37298  -0.36310
 Alpha virt. eigenvalues --    0.04907   0.11141   0.16393   0.21045   0.22990
 Alpha virt. eigenvalues --    0.24032   0.26133   0.26741   0.27231   0.27851
 Alpha virt. eigenvalues --    0.29168   0.30325   0.31196   0.31814   0.31947

 Mulliken charges:
               1
     1  C   -0.299613
     2  C   -0.297829
     3  C   -0.484782
     4  H    0.146322
     5  H    0.150790
     6  H    0.149268
     7  H    0.156128
     8  H    0.170416
     9  H    0.144827
    10  H    0.161162
    11  C   -0.298595
    12  C   -0.300194
    13  C   -0.475497
    14  H    0.147760
    15  H    0.152969
    16  H    0.147923
    17  H    0.152429
    18  H    0.157998
    19  H    0.154557
    20  H    0.156403
    21  C   -0.171173
    22  C   -0.218638
    23  C   -0.166640
    24  C    0.153758
    25  C   -0.170288
    26  C   -0.216303
    27  H    0.225725
    28  H    0.223589
    29  H    0.277409
    30  H    0.275339
    31  H    0.223716
    32  N    0.491734
    33  O   -0.459533
    34  O   -0.461138
 Sum of Mulliken charges =  -0.00000

 Dipole moment (field-independent basis, Debye):
    X=              0.0756    Y=             -2.7884    Z=             -4.2902  Tot=              5.1173
 Quadrupole moment (field-independent basis, Debye-Ang):
   XX=            -96.6705   YY=            -91.5277   ZZ=            -95.3230
   XY=              5.5813   XZ=              7.9631   YZ=             -2.0839

 Normal termination of Gaussian 16 at Wed May  5 21:50:38 2021.
