 Gaussian 16, Revision A.03,
 Gaussian 16:  EM64L-G16RevA.03 25-Dec-2016

 -------------
 #p 6-31g* mp2
 -------------

 ------------------------------------------------------
 Input file generated by CHIRIPA (05-May-2021 14:57:27)
 ------------------------------------------------------
 Symbolic Z-matrix:
 Charge =  0 Multiplicity = 1

                         Standard orientation:
 ---------------------------------------------------------------------
 Center     Atomic      Atomic             Coordinates (Angstroms)
 Number     Number       Type             X           Y           Z
 ---------------------------------------------------------------------
      1          6           0        5.365864    1.287192   -0.186642
      2          6           0        4.711976    1.176277    1.044882
      3          6           0        3.568996    0.381438    1.172847
      4          6           0        3.105221   -0.291656    0.043622
      5          6           0        3.734594   -0.201288   -1.196947
      6          6           0        4.875949    0.599268   -1.301660
      7          1           0        6.253127    1.906863   -0.277016
      8          1           0        5.090199    1.709389    1.912513
      9          1           0        3.043267    0.277800    2.114275
     10          1           0        3.333842   -0.744710   -2.044007
     11          1           0        5.381722    0.683544   -2.259332
     12          7           0        1.896059   -1.136143    0.166785
     13          8           0        1.507498   -1.719018   -0.843123
     14          8           0        1.359773   -1.199186    1.270896
     15          6           0       -3.917438    2.597812   -0.126087
     16          6           0       -2.579928    2.217138    0.024501
     17          6           0       -2.228743    0.865164    0.082651
     18          6           0       -3.245249   -0.083931   -0.013389
     19          6           0       -4.586796    0.263747   -0.163925
     20          6           0       -4.914845    1.621622   -0.219655
     21          1           0       -4.181261    3.650351   -0.170320
     22          1           0       -1.803224    2.973086    0.097428
     23          1           0       -1.201188    0.542579    0.198790
     24          1           0       -5.338867   -0.512728   -0.233876
     25          1           0       -5.954400    1.914336   -0.336650
     26          7           0       -2.885712   -1.518330    0.046890
     27          8           0       -3.799985   -2.335144   -0.040037
     28          8           0       -1.696441   -1.798638    0.179925
 ---------------------------------------------------------------------

 SCF Done:  E(RHF) =  -868.334855660     A.U. after   15 cycles
 E2 =    -0.2601638255D+01 EUMP2 =    -0.87093649391469D+03

 The electronic state is 1-A.
 Alpha  occ. eigenvalues --  -20.60332 -20.60312 -20.59441 -20.59262 -15.85386
 Alpha  occ. eigenvalues --  -15.84394 -11.31076 -11.30239 -11.27684 -11.27659
 Alpha  occ. eigenvalues --  -11.27457 -11.26902 -11.26829 -11.26752 -11.26746
 Alpha  occ. eigenvalues --  -11.26732 -11.26017 -11.26006  -1.59382  -1.58441
 Alpha  occ. eigenvalues --   -1.38933  -1.37968  -1.19272  -1.18472  -1.08600
 Alpha  occ. eigenvalues --   -1.07790  -1.04714  -1.03945  -0.95378  -0.94534
 Alpha  occ. eigenvalues --   -0.86096  -0.85320  -0.82206  -0.81356  -0.77208
 Alpha  occ. eigenvalues --   -0.76315  -0.71555  -0.70858  -0.70511  -0.70355
 Alpha  occ. eigenvalues --   -0.69790  -0.69578  -0.64907  -0.64705  -0.64105
 Alpha  occ. eigenvalues --   -0.63964  -0.62052  -0.61279  -0.55187  -0.54454
 Alpha  occ. eigenvalues --   -0.53038  -0.52801  -0.52254  -0.52047  -0.48358
 Alpha  occ. eigenvalues --   -0.48289  -0.47433  -0.47266  -0.44283  -0.43240
 Alpha  occ. eigenvalues --   -0.37274  -0.36492  -0.36337  -0.35571
 Alpha virt. eigenvalues --    0.05296   0.06217   0.11311   0.12079   0.16732
 Alpha virt. eigenvalues --    0.17613   0.21442   0.22102   0.27350   0.27883
 Alpha virt. eigenvalues --    0.28351   0.28988   0.30914   0.31608   0.32602

 Mulliken charges:
               1
     1  C   -0.171916
     2  C   -0.218672
     3  C   -0.173550
     4  C    0.157093
     5  C   -0.172103
     6  C   -0.218586
     7  H    0.224775
     8  H    0.222509
     9  H    0.275132
    10  H    0.276756
    11  H    0.223138
    12  N    0.483955
    13  O   -0.449769
    14  O   -0.455383
    15  C   -0.172153
    16  C   -0.219511
    17  C   -0.170476
    18  C    0.157945
    19  C   -0.171674
    20  C   -0.219018
    21  H    0.221289
    22  H    0.218313
    23  H    0.280904
    24  H    0.274141
    25  H    0.220031
    26  N    0.485423
    27  O   -0.470105
    28  O   -0.438490
 Sum of Mulliken charges =  -0.00000

 Dipole moment (field-independent basis, Debye):
    X=              3.2609    Y=              7.6776    Z=             -0.6399  Tot=              8.3659
 Quadrupole moment (field-independent basis, Debye-Ang):
   XX=            -68.1978   YY=           -108.4649   ZZ=           -101.0257
   XY=             -6.9122   XZ=             -0.4607   YZ=              1.6953

 Normal termination of Gaussian 16 at Thu May  6 19:46:55 2021.
