 Gaussian 16, Revision A.03,
 Gaussian 16:  EM64L-G16RevA.03 25-Dec-2016

 -------------
 #p 6-31g* mp2
 -------------

 ------------------------------------------------------
 Input file generated by CHIRIPA (05-May-2021 14:51:09)
 ------------------------------------------------------
 Symbolic Z-matrix:
 Charge =  0 Multiplicity = 1

                         Standard orientation:
 ---------------------------------------------------------------------
 Center     Atomic      Atomic             Coordinates (Angstroms)
 Number     Number       Type             X           Y           Z
 ---------------------------------------------------------------------
      1          6           0       -2.507679   -1.313848    0.481363
      2          6           0       -0.980015   -1.292423    0.542750
      3          6           0       -0.403898   -2.463685    1.339009
      4          1           0       -2.909649   -1.297092    1.503657
      5          1           0       -2.836376   -2.261051    0.031741
      6          1           0       -0.654256   -0.344953    0.990856
      7          1           0       -0.581638   -1.309038   -0.479813
      8          1           0       -0.700360   -3.417357    0.890432
      9          1           0       -0.773391   -2.447794    2.369457
     10          1           0        0.689570   -2.428768    1.370112
     11          6           0       -3.098523   -0.149220   -0.311274
     12          6           0       -4.626187   -0.170645   -0.372661
     13          6           0       -5.202304    1.000618   -1.168920
     14          1           0       -2.769826    0.797983    0.138348
     15          1           0       -2.696553   -0.165976   -1.333568
     16          1           0       -5.024564   -0.154029    0.649902
     17          1           0       -4.951946   -1.118114   -0.820767
     18          1           0       -4.832811    0.984727   -2.199368
     19          1           0       -4.905841    1.954290   -0.720343
     20          1           0       -6.295772    0.965700   -1.200023
     21          6           0        3.513537    0.485751   -0.220333
     22          6           0        3.569666   -0.952709   -0.735765
     23          6           0        4.997665   -1.430055   -1.001763
     24          1           0        3.993274    1.149789   -0.952350
     25          1           0        4.104063    0.560204    0.703318
     26          1           0        2.978074   -1.024739   -1.657419
     27          1           0        3.089569   -1.613375   -0.002525
     28          1           0        5.595262   -1.386874   -0.085458
     29          1           0        5.483133   -0.794894   -1.749756
     30          1           0        5.014482   -2.460753   -1.369509
     31          6           0        2.092664    0.977317    0.050243
     32          6           0        2.036535    2.415776    0.565677
     33          6           0        0.608537    2.893122    0.831673
     34          1           0        1.502140    0.902863   -0.873407
     35          1           0        1.612927    0.313278    0.782261
     36          1           0        2.516632    3.076443   -0.167565
     37          1           0        2.628128    2.487808    1.487330
     38          1           0        0.123068    2.257961    1.579666
     39          1           0        0.010940    2.849941   -0.084631
     40          1           0        0.591719    3.923821    1.199420
 ---------------------------------------------------------------------

 SCF Done:  E(RHF) =  -470.732570004     A.U. after   11 cycles
 E2 =    -0.1584368033D+01 EUMP2 =    -0.47231693803733D+03

 The electronic state is 1-A.
 Alpha  occ. eigenvalues --  -11.21612 -11.21598 -11.21569 -11.21495 -11.21367
 Alpha  occ. eigenvalues --  -11.21354 -11.21294 -11.21280 -11.21108 -11.21075
 Alpha  occ. eigenvalues --  -11.21068 -11.21046  -1.08449  -1.08356  -1.03547
 Alpha  occ. eigenvalues --   -1.03485  -0.95997  -0.95937  -0.87009  -0.86958
 Alpha  occ. eigenvalues --   -0.79703  -0.79497  -0.78425  -0.77972  -0.65135
 Alpha  occ. eigenvalues --   -0.64953  -0.61011  -0.60826  -0.59378  -0.59302
 Alpha  occ. eigenvalues --   -0.57699  -0.57466  -0.55284  -0.55224  -0.52709
 Alpha  occ. eigenvalues --   -0.52627  -0.52429  -0.52356  -0.49929  -0.49896
 Alpha  occ. eigenvalues --   -0.48158  -0.47737  -0.46787  -0.46506  -0.46100
 Alpha  occ. eigenvalues --   -0.45796  -0.45547  -0.45139  -0.43777  -0.43739
 Alpha virt. eigenvalues --    0.20708   0.22262   0.23608   0.23943   0.25405
 Alpha virt. eigenvalues --    0.26141   0.26254   0.27805   0.29195   0.29491
 Alpha virt. eigenvalues --    0.29924   0.31362   0.31615   0.31850   0.32296

 Mulliken charges:
               1
     1  C   -0.297828
     2  C   -0.303986
     3  C   -0.479812
     4  H    0.149032
     5  H    0.149024
     6  H    0.157240
     7  H    0.153258
     8  H    0.155632
     9  H    0.154716
    10  H    0.161767
    11  C   -0.299237
    12  C   -0.299526
    13  C   -0.475725
    14  H    0.151039
    15  H    0.149013
    16  H    0.151875
    17  H    0.151801
    18  H    0.154924
    19  H    0.155371
    20  H    0.160133
    21  C   -0.297862
    22  C   -0.302254
    23  C   -0.475613
    24  H    0.149404
    25  H    0.149064
    26  H    0.151787
    27  H    0.153884
    28  H    0.155203
    29  H    0.155294
    30  H    0.160282
    31  C   -0.303209
    32  C   -0.299736
    33  C   -0.477944
    34  H    0.150109
    35  H    0.157213
    36  H    0.151860
    37  H    0.151553
    38  H    0.155346
    39  H    0.156538
    40  H    0.160370
 Sum of Mulliken charges =  -0.00000

 Dipole moment (field-independent basis, Debye):
    X=              0.0129    Y=              0.0173    Z=             -0.0067  Tot=              0.0225
 Quadrupole moment (field-independent basis, Debye-Ang):
   XX=            -86.2121   YY=            -85.2868   ZZ=            -83.4822
   XY=              0.8379   XZ=             -0.0561   YZ=              0.4843

 Normal termination of Gaussian 16 at Thu May  6 03:45:55 2021.
