 Gaussian 16, Revision A.03,
 Gaussian 16:  EM64L-G16RevA.03 25-Dec-2016

 -------------
 #p 6-31g* mp2
 -------------

 ------------------------------------------------------
 Input file generated by CHIRIPA (05-May-2021 14:57:25)
 ------------------------------------------------------
 Symbolic Z-matrix:
 Charge =  0 Multiplicity = 1

                         Standard orientation:
 ---------------------------------------------------------------------
 Center     Atomic      Atomic             Coordinates (Angstroms)
 Number     Number       Type             X           Y           Z
 ---------------------------------------------------------------------
      1          6           0        1.870066    1.163399   -0.864176
      2          6           0        1.868365   -0.233759   -0.797328
      3          6           0        3.000990   -0.924884   -0.356812
      4          6           0        4.123032   -0.183798    0.010749
      5          6           0        4.155639    1.208734   -0.044766
      6          6           0        3.011685    1.878925   -0.488344
      7          1           0        0.985815    1.692150   -1.207569
      8          1           0        0.983191   -0.792053   -1.088567
      9          1           0        3.026948   -2.006068   -0.295277
     10          1           0        5.053014    1.737796    0.252270
     11          1           0        3.015865    2.964023   -0.539233
     12          7           0        5.328088   -0.904380    0.478725
     13          8           0        6.303954   -0.228287    0.796877
     14          8           0        5.273928   -2.131621    0.518511
     15          6           0       -5.294559   -2.051324   -0.031956
     16          6           0       -5.502775   -1.129933    0.999647
     17          6           0       -4.749434    0.046023    1.064085
     18          6           0       -3.791965    0.269639    0.075886
     19          6           0       -3.561085   -0.629061   -0.964462
     20          6           0       -4.326087   -1.798393   -1.008996
     21          1           0       -5.884303   -2.962262   -0.074283
     22          1           0       -6.254216   -1.323736    1.759793
     23          1           0       -4.889954    0.776366    1.851658
     24          1           0       -2.804756   -0.408205   -1.707837
     25          1           0       -4.162217   -2.512172   -1.811312
     26          7           0       -2.988264    1.511064    0.133568
     27          8           0       -2.150858    1.684715   -0.749174
     28          8           0       -3.210947    2.286937    1.060429
 ---------------------------------------------------------------------

 SCF Done:  E(RHF) =  -868.339836331     A.U. after   16 cycles
 E2 =    -0.2598349584D+01 EUMP2 =    -0.87093818591541D+03

 The electronic state is 1-A.
 Alpha  occ. eigenvalues --  -20.61826 -20.61754 -20.60297 -20.60289 -15.86829
 Alpha  occ. eigenvalues --  -15.85347 -11.31977 -11.30545 -11.28558 -11.28477
 Alpha  occ. eigenvalues --  -11.28186 -11.27488 -11.27442 -11.27157 -11.27111
 Alpha  occ. eigenvalues --  -11.26618 -11.26068 -11.25991  -1.60849  -1.59376
 Alpha  occ. eigenvalues --   -1.40414  -1.38935  -1.20120  -1.18698  -1.09548
 Alpha  occ. eigenvalues --   -1.08077  -1.05493  -1.04097  -0.96424  -0.94943
 Alpha  occ. eigenvalues --   -0.86898  -0.85477  -0.83270  -0.81803  -0.78348
 Alpha  occ. eigenvalues --   -0.76914  -0.73067  -0.72153  -0.71567  -0.71221
 Alpha  occ. eigenvalues --   -0.70700  -0.69671  -0.65776  -0.65487  -0.64332
 Alpha  occ. eigenvalues --   -0.64091  -0.62848  -0.61467  -0.55982  -0.54418
 Alpha  occ. eigenvalues --   -0.53826  -0.53579  -0.52416  -0.52181  -0.49827
 Alpha  occ. eigenvalues --   -0.49777  -0.48332  -0.48308  -0.45863  -0.44379
 Alpha  occ. eigenvalues --   -0.38073  -0.37087  -0.36596  -0.35727
 Alpha virt. eigenvalues --    0.04159   0.05649   0.10565   0.11948   0.15692
 Alpha virt. eigenvalues --    0.17202   0.20540   0.22192   0.26332   0.27194
 Alpha virt. eigenvalues --    0.28239   0.29210   0.30564   0.31471   0.32141

 Mulliken charges:
               1
     1  C   -0.174158
     2  C   -0.220039
     3  C   -0.171861
     4  C    0.157021
     5  C   -0.171200
     6  C   -0.220100
     7  H    0.247343
     8  H    0.217680
     9  H    0.271563
    10  H    0.273705
    11  H    0.224719
    12  N    0.488355
    13  O   -0.461822
    14  O   -0.463402
    15  C   -0.169818
    16  C   -0.218119
    17  C   -0.170028
    18  C    0.158754
    19  C   -0.172328
    20  C   -0.218109
    21  H    0.228586
    22  H    0.226417
    23  H    0.277395
    24  H    0.270621
    25  H    0.225026
    26  N    0.491332
    27  O   -0.473020
    28  O   -0.454513
 Sum of Mulliken charges =  -0.00000

 Dipole moment (field-independent basis, Debye):
    X=             -7.5687    Y=             -1.7299    Z=             -1.7845  Tot=              7.9663
 Quadrupole moment (field-independent basis, Debye-Ang):
   XX=           -116.8969   YY=           -104.3964   ZZ=           -102.3964
   XY=             29.6580   XZ=             -8.7863   YZ=              1.9478

 Normal termination of Gaussian 16 at Thu May  6 22:52:37 2021.
