 Gaussian 16, Revision A.03,
 Gaussian 16:  EM64L-G16RevA.03 25-Dec-2016

 -------------
 #p 6-31g* mp2
 -------------

 ------------------------------------------------------
 Input file generated by CHIRIPA (05-May-2021 14:57:25)
 ------------------------------------------------------
 Symbolic Z-matrix:
 Charge =  0 Multiplicity = 1

                         Standard orientation:
 ---------------------------------------------------------------------
 Center     Atomic      Atomic             Coordinates (Angstroms)
 Number     Number       Type             X           Y           Z
 ---------------------------------------------------------------------
      1          6           0       -1.023735    1.610465    1.223658
      2          6           0       -1.085334    0.249282    1.539740
      3          6           0       -2.142442   -0.539954    1.076948
      4          6           0       -3.125242    0.067404    0.296878
      5          6           0       -3.091845    1.420919   -0.035043
      6          6           0       -2.025421    2.190916    0.438659
      7          1           0       -0.198930    2.216090    1.587403
      8          1           0       -0.308818   -0.204190    2.149191
      9          1           0       -2.214815   -1.596088    1.306648
     10          1           0       -3.880733    1.844660   -0.644565
     11          1           0       -1.980170    3.247782    0.191613
     12          7           0       -4.249286   -0.757941   -0.198834
     13          8           0       -5.102623   -0.198963   -0.884396
     14          8           0       -4.255691   -1.948197    0.107576
     15          6           0        5.229344   -0.200652    0.681968
     16          6           0        4.410457   -1.329745    0.787300
     17          6           0        3.140136   -1.342465    0.203628
     18          6           0        2.718660   -0.203700   -0.481107
     19          6           0        3.511239    0.936539   -0.603429
     20          6           0        4.777917    0.926898   -0.011837
     21          1           0        6.214744   -0.199456    1.138455
     22          1           0        4.758423   -2.206835    1.325515
     23          1           0        2.485623   -2.203073    0.269840
     24          1           0        3.136798    1.795899   -1.146303
     25          1           0        5.411722    1.805180   -0.095246
     26          7           0        1.375756   -0.205329   -1.103207
     27          8           0        1.027711    0.810561   -1.701092
     28          8           0        0.696662   -1.222467   -0.981143
 ---------------------------------------------------------------------

 SCF Done:  E(RHF) =  -868.337323464     A.U. after   16 cycles
 E2 =    -0.2602164233D+01 EUMP2 =    -0.87093948769639D+03

 The electronic state is 1-A.
 Alpha  occ. eigenvalues --  -20.61323 -20.61315 -20.59761 -20.59756 -15.86327
 Alpha  occ. eigenvalues --  -15.84812 -11.31822 -11.30037 -11.28386 -11.28379
 Alpha  occ. eigenvalues --  -11.28101 -11.27403 -11.27389 -11.26658 -11.26634
 Alpha  occ. eigenvalues --  -11.26486 -11.25719 -11.25664  -1.60363  -1.58833
 Alpha  occ. eigenvalues --   -1.39925  -1.38393  -1.19990  -1.18228  -1.09354
 Alpha  occ. eigenvalues --   -1.07688  -1.05398  -1.03644  -0.96175  -0.94538
 Alpha  occ. eigenvalues --   -0.86786  -0.85090  -0.83007  -0.81388  -0.78051
 Alpha  occ. eigenvalues --   -0.76426  -0.72573  -0.71719  -0.71071  -0.71051
 Alpha  occ. eigenvalues --   -0.70134  -0.69448  -0.65630  -0.65381  -0.63938
 Alpha  occ. eigenvalues --   -0.63734  -0.62739  -0.61036  -0.55867  -0.54262
 Alpha  occ. eigenvalues --   -0.53743  -0.53476  -0.51928  -0.51810  -0.49332
 Alpha  occ. eigenvalues --   -0.49289  -0.47802  -0.47794  -0.45334  -0.43830
 Alpha  occ. eigenvalues --   -0.37969  -0.37017  -0.36217  -0.35107
 Alpha virt. eigenvalues --    0.04453   0.06165   0.10613   0.12423   0.15962
 Alpha virt. eigenvalues --    0.17647   0.20833   0.22228   0.26715   0.27661
 Alpha virt. eigenvalues --    0.28155   0.29116   0.30461   0.31459   0.32252

 Mulliken charges:
               1
     1  C   -0.168908
     2  C   -0.219563
     3  C   -0.153962
     4  C    0.159653
     5  C   -0.168309
     6  C   -0.210728
     7  H    0.217765
     8  H    0.214448
     9  H    0.272761
    10  H    0.272762
    11  H    0.219200
    12  N    0.488624
    13  O   -0.463372
    14  O   -0.462489
    15  C   -0.171186
    16  C   -0.218395
    17  C   -0.174468
    18  C    0.156601
    19  C   -0.173717
    20  C   -0.218452
    21  H    0.227513
    22  H    0.225415
    23  H    0.275976
    24  H    0.275123
    25  H    0.224765
    26  N    0.488559
    27  O   -0.458688
    28  O   -0.456925
 Sum of Mulliken charges =  -0.00000

 Dipole moment (field-independent basis, Debye):
    X=              8.8294    Y=              2.8218    Z=              3.7691  Tot=             10.0063
 Quadrupole moment (field-independent basis, Debye-Ang):
   XX=           -104.2386   YY=            -97.2934   ZZ=           -105.9691
   XY=            -10.7774   XZ=              0.4424   YZ=             -3.5468

 Normal termination of Gaussian 16 at Thu May  6 16:23:19 2021.
