 Gaussian 16, Revision A.03,
 Gaussian 16:  EM64L-G16RevA.03 25-Dec-2016

 -------------
 #p 6-31g* mp2
 -------------

 ------------------------------------------------------
 Input file generated by CHIRIPA (05-May-2021 14:53:16)
 ------------------------------------------------------
 Symbolic Z-matrix:
 Charge =  0 Multiplicity = 1

                         Standard orientation:
 ---------------------------------------------------------------------
 Center     Atomic      Atomic             Coordinates (Angstroms)
 Number     Number       Type             X           Y           Z
 ---------------------------------------------------------------------
      1          6           0        3.008173    0.554510   -0.565145
      2          6           0        2.214508    1.683935    0.092489
      3          6           0        0.820782    1.856845   -0.512014
      4          1           0        3.096192    0.755358   -1.641648
      5          1           0        2.445981   -0.384514   -0.467322
      6          1           0        2.778672    2.620292   -0.005331
      7          1           0        2.128532    1.480472    1.167583
      8          1           0        0.236064    0.937925   -0.401138
      9          1           0        0.889898    2.084222   -1.580716
     10          1           0        0.270865    2.669463   -0.027139
     11          6           0        4.403585    0.369334    0.028372
     12          6           0        5.197250   -0.760090   -0.629261
     13          6           0        6.590976   -0.933001   -0.024758
     14          1           0        4.965776    1.308358   -0.069450
     15          1           0        4.315565    0.168486    1.104875
     16          1           0        5.283225   -0.556627   -1.704355
     17          1           0        4.633085   -1.696448   -0.531442
     18          1           0        6.521859   -1.160378    1.043943
     19          1           0        7.175693   -0.014081   -0.135635
     20          1           0        7.140892   -1.745619   -0.509633
     21          6           0       -0.759366   -0.978898    1.402200
     22          6           0       -1.454084    0.179431    1.765742
     23          6           0       -2.638539    0.531646    1.111863
     24          6           0       -3.101704   -0.301129    0.094388
     25          6           0       -2.432216   -1.461643   -0.290686
     26          6           0       -1.249786   -1.794301    0.376955
     27          1           0        0.159961   -1.244911    1.915494
     28          1           0       -1.075573    0.814567    2.561590
     29          1           0       -3.196376    1.422701    1.373124
     30          1           0       -2.834341   -2.074928   -1.087929
     31          1           0       -0.712356   -2.694471    0.092509
     32          7           0       -4.354562    0.061394   -0.605128
     33          8           0       -4.741670   -0.689042   -1.498231
     34          8           0       -4.925723    1.089110   -0.247061
 ---------------------------------------------------------------------

 SCF Done:  E(RHF) =  -669.534076281     A.U. after   15 cycles
 E2 =    -0.2093708585D+01 EUMP2 =    -0.67162778486610D+03

 The electronic state is 1-A.
 Alpha  occ. eigenvalues --  -20.60815 -20.60810 -15.85869 -11.31282 -11.27853
 Alpha  occ. eigenvalues --  -11.27808 -11.27558 -11.26883 -11.26819 -11.22122
 Alpha  occ. eigenvalues --  -11.22116 -11.21964 -11.21904 -11.21528 -11.21186
 Alpha  occ. eigenvalues --   -1.59888  -1.39441  -1.19459  -1.08971  -1.08834
 Alpha  occ. eigenvalues --   -1.04855  -1.03983  -0.96412  -0.95667  -0.87426
 Alpha  occ. eigenvalues --   -0.86246  -0.82492  -0.80056  -0.78778  -0.77533
 Alpha  occ. eigenvalues --   -0.72086  -0.71210  -0.70553  -0.65614  -0.65097
 Alpha  occ. eigenvalues --   -0.64847  -0.62193  -0.61433  -0.59790  -0.58039
 Alpha  occ. eigenvalues --   -0.55866  -0.55348  -0.53402  -0.53050  -0.52930
 Alpha  occ. eigenvalues --   -0.52644  -0.50237  -0.48849  -0.48839  -0.48340
 Alpha  occ. eigenvalues --   -0.47076  -0.46301  -0.46251  -0.44836  -0.44261
 Alpha  occ. eigenvalues --   -0.37365  -0.36421
 Alpha virt. eigenvalues --    0.04967   0.11127   0.16383   0.20284   0.22743
 Alpha virt. eigenvalues --    0.24102   0.25891   0.26281   0.27315   0.27949
 Alpha virt. eigenvalues --    0.28712   0.30705   0.31181   0.31374   0.32089

 Mulliken charges:
               1
     1  C   -0.297679
     2  C   -0.299019
     3  C   -0.481617
     4  H    0.153181
     5  H    0.143095
     6  H    0.154234
     7  H    0.141897
     8  H    0.167440
     9  H    0.156095
    10  H    0.156278
    11  C   -0.298041
    12  C   -0.299365
    13  C   -0.475814
    14  H    0.151913
    15  H    0.146098
    16  H    0.153981
    17  H    0.148968
    18  H    0.154299
    19  H    0.156690
    20  H    0.161464
    21  C   -0.175895
    22  C   -0.214042
    23  C   -0.170024
    24  C    0.159805
    25  C   -0.171273
    26  C   -0.217603
    27  H    0.226312
    28  H    0.224196
    29  H    0.275977
    30  H    0.276228
    31  H    0.224160
    32  N    0.488095
    33  O   -0.460123
    34  O   -0.459911
 Sum of Mulliken charges =  -0.00000

 Dipole moment (field-independent basis, Debye):
    X=              4.3582    Y=             -1.2867    Z=              2.4181  Tot=              5.1475
 Quadrupole moment (field-independent basis, Debye-Ang):
   XX=           -123.5035   YY=            -90.6283   ZZ=            -92.8051
   XY=              2.7627   XZ=             -8.3558   YZ=              1.4343

 Normal termination of Gaussian 16 at Thu May  6 17:16:08 2021.
