 Gaussian 16, Revision A.03,
 Gaussian 16:  EM64L-G16RevA.03 25-Dec-2016

 -------------
 #p 6-31g* mp2
 -------------

 ------------------------------------------------------
 Input file generated by CHIRIPA (05-May-2021 14:51:10)
 ------------------------------------------------------
 Symbolic Z-matrix:
 Charge =  0 Multiplicity = 1

                         Standard orientation:
 ---------------------------------------------------------------------
 Center     Atomic      Atomic             Coordinates (Angstroms)
 Number     Number       Type             X           Y           Z
 ---------------------------------------------------------------------
      1          6           0       -2.550176    0.904439    0.295883
      2          6           0       -1.878313    2.187814   -0.193539
      3          6           0       -1.233639    2.986745    0.939554
      4          1           0       -3.311428    1.159630    1.045762
      5          1           0       -1.804298    0.280481    0.807484
      6          1           0       -2.624930    2.808542   -0.705277
      7          1           0       -1.118704    1.929554   -0.942480
      8          1           0       -0.468665    2.388992    1.445624
      9          1           0       -1.983448    3.272974    1.684174
     10          1           0       -0.759231    3.900127    0.567357
     11          6           0       -3.199194    0.094854   -0.825310
     12          6           0       -3.871057   -1.188521   -0.335888
     13          6           0       -4.515731   -1.987452   -1.468981
     14          1           0       -3.945072    0.718812   -1.336912
     15          1           0       -2.437942   -0.160337   -1.575189
     16          1           0       -4.630666   -0.930261    0.413053
     17          1           0       -3.124441   -1.809249    0.175850
     18          1           0       -3.765922   -2.273681   -2.213602
     19          1           0       -5.280705   -1.389699   -1.975051
     20          1           0       -4.990139   -2.900834   -1.096784
     21          6           0        3.546912   -0.607298   -0.081630
     22          6           0        3.816166    0.392233   -1.206985
     23          6           0        5.164822    0.163995   -1.890234
     24          1           0        4.352633   -0.538310    0.662010
     25          1           0        3.584466   -1.626919   -0.489500
     26          1           0        3.776746    1.409725   -0.797386
     27          1           0        3.009610    0.320992   -1.947937
     28          1           0        5.211284   -0.839544   -2.325381
     29          1           0        5.982779    0.255375   -1.168294
     30          1           0        5.336841    0.889487   -2.691441
     31          6           0        2.202458   -0.391995    0.611057
     32          6           0        1.933204   -1.391526    1.736412
     33          6           0        0.584548   -1.163288    2.419662
     34          1           0        2.164904    0.627626    1.018927
     35          1           0        1.396737   -0.460982   -0.132582
     36          1           0        2.739759   -1.320286    2.477364
     37          1           0        1.972625   -2.409018    1.326814
     38          1           0       -0.233409   -1.254668    1.697722
     39          1           0        0.538086   -0.159750    2.854808
     40          1           0        0.412530   -1.888780    3.220869
 ---------------------------------------------------------------------

 SCF Done:  E(RHF) =  -470.733263784     A.U. after   11 cycles
 E2 =    -0.1583551088D+01 EUMP2 =    -0.47231681487267D+03

 The electronic state is 1-A.
 Alpha  occ. eigenvalues --  -11.21682 -11.21645 -11.21598 -11.21539 -11.21483
 Alpha  occ. eigenvalues --  -11.21417 -11.21360 -11.21262 -11.21159 -11.21103
 Alpha  occ. eigenvalues --  -11.21070 -11.21015  -1.08503  -1.08386  -1.03600
 Alpha  occ. eigenvalues --   -1.03490  -0.96052  -0.95940  -0.87071  -0.86956
 Alpha  occ. eigenvalues --   -0.79680  -0.79545  -0.78340  -0.78171  -0.65165
 Alpha  occ. eigenvalues --   -0.65002  -0.60997  -0.60897  -0.59420  -0.59301
 Alpha  occ. eigenvalues --   -0.57681  -0.57541  -0.55401  -0.55177  -0.52737
 Alpha  occ. eigenvalues --   -0.52648  -0.52521  -0.52331  -0.50044  -0.49846
 Alpha  occ. eigenvalues --   -0.48099  -0.47824  -0.46718  -0.46590  -0.46014
 Alpha  occ. eigenvalues --   -0.45769  -0.45708  -0.45366  -0.43851  -0.43744
 Alpha virt. eigenvalues --    0.20042   0.22994   0.23346   0.24504   0.25301
 Alpha virt. eigenvalues --    0.26008   0.26602   0.28137   0.28239   0.29297
 Alpha virt. eigenvalues --    0.30911   0.31487   0.31720   0.31899   0.32299

 Mulliken charges:
               1
     1  C   -0.307374
     2  C   -0.298832
     3  C   -0.478041
     4  H    0.149343
     5  H    0.159196
     6  H    0.151494
     7  H    0.151969
     8  H    0.157361
     9  H    0.154887
    10  H    0.159786
    11  C   -0.297812
    12  C   -0.300226
    13  C   -0.475620
    14  H    0.149531
    15  H    0.148591
    16  H    0.152327
    17  H    0.151481
    18  H    0.154882
    19  H    0.155340
    20  H    0.160254
    21  C   -0.298350
    22  C   -0.299720
    23  C   -0.475766
    24  H    0.150020
    25  H    0.149708
    26  H    0.152320
    27  H    0.151738
    28  H    0.155218
    29  H    0.155307
    30  H    0.160459
    31  C   -0.300006
    32  C   -0.299733
    33  C   -0.482045
    34  H    0.150782
    35  H    0.149329
    36  H    0.152469
    37  H    0.152143
    38  H    0.159672
    39  H    0.156679
    40  H    0.161241
 Sum of Mulliken charges =  -0.00000

 Dipole moment (field-independent basis, Debye):
    X=              0.0417    Y=             -0.0200    Z=              0.0284  Tot=              0.0543
 Quadrupole moment (field-independent basis, Debye-Ang):
   XX=            -84.9205   YY=            -84.6556   ZZ=            -85.1317
   XY=             -0.4693   XZ=              0.3584   YZ=             -0.0402

 Normal termination of Gaussian 16 at Wed May  5 16:42:28 2021.
