 Gaussian 16, Revision A.03,
 Gaussian 16:  EM64L-G16RevA.03 25-Dec-2016

 -------------
 #p 6-31g* mp2
 -------------

 ------------------------------------------------------
 Input file generated by CHIRIPA (05-May-2021 14:51:11)
 ------------------------------------------------------
 Symbolic Z-matrix:
 Charge =  0 Multiplicity = 1

                         Standard orientation:
 ---------------------------------------------------------------------
 Center     Atomic      Atomic             Coordinates (Angstroms)
 Number     Number       Type             X           Y           Z
 ---------------------------------------------------------------------
      1          6           0       -4.758422   -0.040941    0.240138
      2          6           0       -5.647220   -0.985252   -0.569985
      3          6           0       -7.135585   -0.792067   -0.278018
      4          1           0       -4.946977   -0.198624    1.310899
      5          1           0       -5.044045    0.997450    0.022060
      6          1           0       -5.359083   -2.021521   -0.351492
      7          1           0       -5.456389   -0.825437   -1.638937
      8          1           0       -7.444709    0.231421   -0.513634
      9          1           0       -7.346850   -0.971459    0.781126
     10          1           0       -7.752619   -1.477105   -0.867807
     11          6           0       -3.267775   -0.222029   -0.040763
     12          6           0       -2.378977    0.722282    0.769361
     13          6           0       -0.890613    0.529097    0.477393
     14          1           0       -2.982152   -1.260420    0.177316
     15          1           0       -3.079220   -0.064346   -1.111524
     16          1           0       -2.569809    0.562467    1.838313
     17          1           0       -2.667114    1.758551    0.550868
     18          1           0       -0.679347    0.708489   -0.581751
     19          1           0       -0.581488   -0.494391    0.713009
     20          1           0       -0.273578    1.214135    1.067183
     21          6           0        3.396059    0.541387    0.086521
     22          6           0        3.392499    1.943277   -0.523955
     23          6           0        2.151698    2.751088   -0.142317
     24          1           0        2.493654    0.005025   -0.237402
     25          1           0        3.334113    0.625219    1.180381
     26          1           0        3.455828    1.856861   -1.616263
     27          1           0        4.295113    2.476296   -0.198694
     28          1           0        2.086617    2.866875    0.944402
     29          1           0        1.242564    2.243920   -0.481221
     30          1           0        2.169730    3.749894   -0.589442
     31          6           0        4.630139   -0.278418   -0.285897
     32          6           0        4.633698   -1.680306    0.324579
     33          6           0        5.874498   -2.488118   -0.057058
     34          1           0        4.692084   -0.362249   -1.379757
     35          1           0        5.532543    0.257944    0.038027
     36          1           0        3.731085   -2.213326   -0.000681
     37          1           0        4.570369   -1.593891    1.416888
     38          1           0        6.783633   -1.980950    0.281846
     39          1           0        5.939580   -2.603905   -1.143778
     40          1           0        5.856466   -3.486925    0.390067
 ---------------------------------------------------------------------

 SCF Done:  E(RHF) =  -470.732230090     A.U. after   11 cycles
 E2 =    -0.1583198007D+01 EUMP2 =    -0.47231542809689D+03

 The electronic state is 1-A.
 Alpha  occ. eigenvalues --  -11.21604 -11.21591 -11.21560 -11.21512 -11.21406
 Alpha  occ. eigenvalues --  -11.21347 -11.21335 -11.21265 -11.21073 -11.21040
 Alpha  occ. eigenvalues --  -11.21034 -11.20889  -1.08434  -1.08357  -1.03554
 Alpha  occ. eigenvalues --   -1.03441  -0.96030  -0.95869  -0.87080  -0.86863
 Alpha  occ. eigenvalues --   -0.79699  -0.79441  -0.78262  -0.78145  -0.65075
 Alpha  occ. eigenvalues --   -0.64984  -0.61022  -0.60797  -0.59475  -0.59191
 Alpha  occ. eigenvalues --   -0.57682  -0.57435  -0.55439  -0.55057  -0.52862
 Alpha  occ. eigenvalues --   -0.52601  -0.52431  -0.52145  -0.50093  -0.49675
 Alpha  occ. eigenvalues --   -0.47929  -0.47808  -0.46708  -0.46455  -0.45846
 Alpha  occ. eigenvalues --   -0.45711  -0.45689  -0.45574  -0.43737  -0.43678
 Alpha virt. eigenvalues --    0.22178   0.22983   0.23659   0.24829   0.25873
 Alpha virt. eigenvalues --    0.26577   0.26892   0.27500   0.27937   0.29202
 Alpha virt. eigenvalues --    0.29965   0.31341   0.31599   0.31905   0.32446

 Mulliken charges:
               1
     1  C   -0.298245
     2  C   -0.299624
     3  C   -0.475703
     4  H    0.149686
     5  H    0.149577
     6  H    0.151890
     7  H    0.151872
     8  H    0.155204
     9  H    0.155194
    10  H    0.160238
    11  C   -0.298633
    12  C   -0.300454
    13  C   -0.479613
    14  H    0.149434
    15  H    0.149518
    16  H    0.151988
    17  H    0.152238
    18  H    0.153952
    19  H    0.155023
    20  H    0.167248
    21  C   -0.300590
    22  C   -0.299126
    23  C   -0.482195
    24  H    0.153379
    25  H    0.148896
    26  H    0.151133
    27  H    0.151208
    28  H    0.153063
    29  H    0.165466
    30  H    0.158761
    31  C   -0.298182
    32  C   -0.299534
    33  C   -0.475646
    34  H    0.149256
    35  H    0.149452
    36  H    0.151842
    37  H    0.151778
    38  H    0.155108
    39  H    0.155102
    40  H    0.160042
 Sum of Mulliken charges =  -0.00000

 Dipole moment (field-independent basis, Debye):
    X=             -0.0417    Y=             -0.0090    Z=              0.0097  Tot=              0.0437
 Quadrupole moment (field-independent basis, Debye-Ang):
   XX=            -86.7684   YY=            -84.8205   ZZ=            -83.5746
   XY=              0.6420   XZ=              0.7153   YZ=             -0.3526

 Normal termination of Gaussian 16 at Thu May  6 05:27:00 2021.
