 Gaussian 16, Revision A.03,
 Gaussian 16:  EM64L-G16RevA.03 25-Dec-2016

 -------------
 #p 6-31g* mp2
 -------------

 ------------------------------------------------------
 Input file generated by CHIRIPA (05-May-2021 14:51:11)
 ------------------------------------------------------
 Symbolic Z-matrix:
 Charge =  0 Multiplicity = 1

                         Standard orientation:
 ---------------------------------------------------------------------
 Center     Atomic      Atomic             Coordinates (Angstroms)
 Number     Number       Type             X           Y           Z
 ---------------------------------------------------------------------
      1          6           0       -3.697130   -0.676476   -0.221550
      2          6           0       -4.333825    0.707523   -0.090587
      3          6           0       -5.709982    0.790108   -0.751773
      4          1           0       -3.610093   -0.933799   -1.286047
      5          1           0       -4.365942   -1.424030    0.227058
      6          1           0       -3.663377    1.452418   -0.538075
      7          1           0       -4.419181    0.961661    0.973718
      8          1           0       -6.398431    0.068731   -0.299828
      9          1           0       -5.638333    0.562275   -1.820211
     10          1           0       -6.146851    1.788039   -0.646234
     11          6           0       -2.321027   -0.774797    0.434501
     12          6           0       -1.684332   -2.158796    0.303538
     13          6           0       -0.308176   -2.241381    0.964724
     14          1           0       -1.652216   -0.027244   -0.014107
     15          1           0       -2.408065   -0.517475    1.498998
     16          1           0       -1.598976   -2.412935   -0.760766
     17          1           0       -2.354781   -2.903691    0.751027
     18          1           0       -0.379825   -2.013549    2.033162
     19          1           0        0.380274   -1.520005    0.512779
     20          1           0        0.128694   -3.239312    0.859185
     21          6           0        3.650107    0.325405    0.004561
     22          6           0        3.666919   -1.010976   -0.738264
     23          6           0        4.955803   -1.800112   -0.506238
     24          1           0        4.512317    0.926376   -0.315395
     25          1           0        3.779568    0.140836    1.080001
     26          1           0        3.536079   -0.824040   -1.811833
     27          1           0        2.804461   -1.608758   -0.416644
     28          1           0        5.089096   -2.015660    0.558832
     29          1           0        5.824869   -1.226484   -0.844285
     30          1           0        4.946540   -2.751929   -1.046440
     31          6           0        2.368051    1.125869   -0.217513
     32          6           0        2.351239    2.462249    0.525312
     33          6           0        1.062355    3.251385    0.293286
     34          1           0        2.238590    1.310437   -1.292952
     35          1           0        1.505840    0.524898    0.102444
     36          1           0        3.213696    3.060031    0.203693
     37          1           0        2.482079    2.275314    1.598883
     38          1           0        0.193289    2.677758    0.631335
     39          1           0        0.929063    3.466935   -0.771783
     40          1           0        1.071617    4.203202    0.833489
 ---------------------------------------------------------------------

 SCF Done:  E(RHF) =  -470.733155264     A.U. after   11 cycles
 E2 =    -0.1583559482D+01 EUMP2 =    -0.47231671474609D+03

 The electronic state is 1-A.
 Alpha  occ. eigenvalues --  -11.21642 -11.21604 -11.21600 -11.21562 -11.21436
 Alpha  occ. eigenvalues --  -11.21400 -11.21373 -11.21338 -11.21116 -11.21073
 Alpha  occ. eigenvalues --  -11.21071 -11.21044  -1.08464  -1.08419  -1.03558
 Alpha  occ. eigenvalues --   -1.03515  -0.96019  -0.95963  -0.87032  -0.86985
 Alpha  occ. eigenvalues --   -0.79631  -0.79580  -0.78332  -0.78183  -0.65197
 Alpha  occ. eigenvalues --   -0.64968  -0.60969  -0.60899  -0.59387  -0.59328
 Alpha  occ. eigenvalues --   -0.57670  -0.57538  -0.55381  -0.55189  -0.52709
 Alpha  occ. eigenvalues --   -0.52664  -0.52463  -0.52367  -0.49994  -0.49903
 Alpha  occ. eigenvalues --   -0.47990  -0.47895  -0.46784  -0.46619  -0.46003
 Alpha  occ. eigenvalues --   -0.45775  -0.45735  -0.45241  -0.43810  -0.43772
 Alpha virt. eigenvalues --    0.20561   0.22947   0.23760   0.24086   0.25550
 Alpha virt. eigenvalues --    0.26635   0.26986   0.27160   0.28424   0.29637
 Alpha virt. eigenvalues --    0.30738   0.31672   0.31744   0.31872   0.31889

 Mulliken charges:
               1
     1  C   -0.298273
     2  C   -0.299895
     3  C   -0.475730
     4  H    0.149889
     5  H    0.149679
     6  H    0.152482
     7  H    0.151874
     8  H    0.155123
     9  H    0.155231
    10  H    0.160393
    11  C   -0.300895
    12  C   -0.298942
    13  C   -0.487050
    14  H    0.151315
    15  H    0.149457
    16  H    0.152382
    17  H    0.152187
    18  H    0.155070
    19  H    0.165483
    20  H    0.160692
    21  C   -0.297600
    22  C   -0.305061
    23  C   -0.475461
    24  H    0.149674
    25  H    0.149761
    26  H    0.151343
    27  H    0.157482
    28  H    0.155372
    29  H    0.154993
    30  H    0.160121
    31  C   -0.307284
    32  C   -0.298872
    33  C   -0.477138
    34  H    0.149110
    35  H    0.157109
    36  H    0.152035
    37  H    0.152213
    38  H    0.156495
    39  H    0.154798
    40  H    0.160440
 Sum of Mulliken charges =  -0.00000

 Dipole moment (field-independent basis, Debye):
    X=             -0.0170    Y=             -0.0065    Z=              0.0055  Tot=              0.0190
 Quadrupole moment (field-independent basis, Debye-Ang):
   XX=            -86.1996   YY=            -85.0262   ZZ=            -83.5379
   XY=              1.1324   XZ=             -1.1775   YZ=             -0.4650

 Normal termination of Gaussian 16 at Wed May  5 21:29:00 2021.
