 Gaussian 16, Revision A.03,
 Gaussian 16:  EM64L-G16RevA.03 25-Dec-2016

 -------------
 #p 6-31g* mp2
 -------------

 ------------------------------------------------------
 Input file generated by CHIRIPA (05-May-2021 14:53:12)
 ------------------------------------------------------
 Symbolic Z-matrix:
 Charge =  0 Multiplicity = 1

                         Standard orientation:
 ---------------------------------------------------------------------
 Center     Atomic      Atomic             Coordinates (Angstroms)
 Number     Number       Type             X           Y           Z
 ---------------------------------------------------------------------
      1          6           0       -3.409252    0.703135   -0.138869
      2          6           0       -3.109498    1.286858   -1.519956
      3          6           0       -2.095326    2.430040   -1.471150
      4          1           0       -3.785421    1.501219    0.515733
      5          1           0       -2.473014    0.344982    0.311219
      6          1           0       -4.046229    1.642546   -1.967881
      7          1           0       -2.734180    0.487252   -2.171402
      8          1           0       -1.146201    2.085216   -1.048233
      9          1           0       -2.465705    3.247074   -0.843555
     10          1           0       -1.895731    2.832530   -2.469160
     11          6           0       -4.421403   -0.440644   -0.171257
     12          6           0       -4.721156   -1.024367    1.209830
     13          6           0       -5.735329   -2.167549    1.161024
     14          1           0       -5.357641   -0.082491   -0.621346
     15          1           0       -4.045234   -1.238728   -0.825859
     16          1           0       -5.096475   -0.224761    1.861276
     17          1           0       -3.784425   -1.380055    1.657755
     18          1           0       -5.364950   -2.984583    0.533429
     19          1           0       -6.684454   -1.822725    0.738107
     20          1           0       -5.934924   -2.570039    2.159034
     21          6           0        2.481547    1.894985    1.550323
     22          6           0        3.516011    1.035239    1.934043
     23          6           0        3.844549   -0.074585    1.149887
     24          6           0        3.114661   -0.295648   -0.017025
     25          6           0        2.078626    0.542583   -0.426036
     26          6           0        1.767415    1.646352    0.373583
     27          1           0        2.233060    2.754771    2.165479
     28          1           0        4.072314    1.225866    2.847406
     29          1           0        4.640657   -0.756368    1.423390
     30          1           0        1.541988    0.326578   -1.341886
     31          1           0        0.963539    2.312343    0.073111
     32          7           0        3.453298   -1.467364   -0.855361
     33          8           0        2.795142   -1.640189   -1.878883
     34          8           0        4.370467   -2.190745   -0.473051
 ---------------------------------------------------------------------

 SCF Done:  E(RHF) =  -669.535563439     A.U. after   15 cycles
 E2 =    -0.2091021896D+01 EUMP2 =    -0.67162658533493D+03

 The electronic state is 1-A.
 Alpha  occ. eigenvalues --  -20.60765 -20.60760 -15.85818 -11.31180 -11.27750
 Alpha  occ. eigenvalues --  -11.27743 -11.27484 -11.26763 -11.26727 -11.22140
 Alpha  occ. eigenvalues --  -11.21946 -11.21823 -11.21813 -11.21641 -11.21207
 Alpha  occ. eigenvalues --   -1.59840  -1.39394  -1.19351  -1.08815  -1.08745
 Alpha  occ. eigenvalues --   -1.04756  -1.03950  -0.96422  -0.95581  -0.87445
 Alpha  occ. eigenvalues --   -0.86150  -0.82417  -0.80021  -0.78600  -0.77464
 Alpha  occ. eigenvalues --   -0.72036  -0.71164  -0.70458  -0.65452  -0.65002
 Alpha  occ. eigenvalues --   -0.64765  -0.62157  -0.61313  -0.59789  -0.58011
 Alpha  occ. eigenvalues --   -0.55740  -0.55240  -0.53127  -0.53087  -0.53000
 Alpha  occ. eigenvalues --   -0.52680  -0.50359  -0.48796  -0.48791  -0.48327
 Alpha  occ. eigenvalues --   -0.47036  -0.46149  -0.46047  -0.44800  -0.44182
 Alpha  occ. eigenvalues --   -0.37330  -0.36355
 Alpha virt. eigenvalues --    0.05062   0.11289   0.16506   0.19943   0.22676
 Alpha virt. eigenvalues --    0.23844   0.25368   0.26556   0.27339   0.28230
 Alpha virt. eigenvalues --    0.28807   0.30231   0.31251   0.31533   0.32511

 Mulliken charges:
               1
     1  C   -0.298976
     2  C   -0.300038
     3  C   -0.480563
     4  H    0.148763
     5  H    0.148930
     6  H    0.155048
     7  H    0.156035
     8  H    0.145660
     9  H    0.156424
    10  H    0.164558
    11  C   -0.299018
    12  C   -0.300051
    13  C   -0.476088
    14  H    0.150200
    15  H    0.152678
    16  H    0.151039
    17  H    0.152751
    18  H    0.157036
    19  H    0.155299
    20  H    0.160806
    21  C   -0.171119
    22  C   -0.218515
    23  C   -0.171029
    24  C    0.158554
    25  C   -0.172997
    26  C   -0.223989
    27  H    0.226139
    28  H    0.223391
    29  H    0.275573
    30  H    0.275393
    31  H    0.231040
    32  N    0.488127
    33  O   -0.460563
    34  O   -0.460499
 Sum of Mulliken charges =  -0.00000

 Dipole moment (field-independent basis, Debye):
    X=             -1.3354    Y=              4.0943    Z=              2.9352  Tot=              5.2117
 Quadrupole moment (field-independent basis, Debye-Ang):
   XX=            -99.3941   YY=            -97.7869   ZZ=            -93.0935
   XY=             11.2143   XZ=             12.2540   YZ=             -1.6446

 Normal termination of Gaussian 16 at Thu May  6 08:48:37 2021.
