 Gaussian 16, Revision A.03,
 Gaussian 16:  EM64L-G16RevA.03 25-Dec-2016

 -------------
 #p 6-31g* mp2
 -------------

 ------------------------------------------------------
 Input file generated by CHIRIPA (05-May-2021 14:51:13)
 ------------------------------------------------------
 Symbolic Z-matrix:
 Charge =  0 Multiplicity = 1

                         Standard orientation:
 ---------------------------------------------------------------------
 Center     Atomic      Atomic             Coordinates (Angstroms)
 Number     Number       Type             X           Y           Z
 ---------------------------------------------------------------------
      1          6           0       -3.888028   -0.548664    0.089465
      2          6           0       -4.410688    0.888179    0.072321
      3          6           0       -5.894979    0.981581    0.427216
      4          1           0       -4.473940   -1.153662   -0.615963
      5          1           0       -4.055628   -0.980547    1.085850
      6          1           0       -4.240898    1.317684   -0.923325
      7          1           0       -3.823339    1.489870    0.777732
      8          1           0       -6.077762    0.578454    1.428555
      9          1           0       -6.497693    0.405290   -0.282167
     10          1           0       -6.247715    2.017488    0.408945
     11          6           0       -2.405714   -0.658361   -0.263295
     12          6           0       -1.883054   -2.095204   -0.246151
     13          6           0       -0.398763   -2.188606   -0.601045
     14          1           0       -2.238114   -0.226477   -1.259679
     15          1           0       -1.819802   -0.053363    0.442134
     16          1           0       -2.470404   -2.696895   -0.951561
     17          1           0       -2.052845   -2.524709    0.749496
     18          1           0        0.203951   -1.612314    0.108338
     19          1           0       -0.215980   -1.785479   -1.602385
     20          1           0       -0.046027   -3.224513   -0.582774
     21          6           0        3.198644   -0.047768    0.482624
     22          6           0        4.037052   -1.117706   -0.217582
     23          6           0        4.131306   -2.414822    0.586408
     24          1           0        3.633165    0.161715    1.469667
     25          1           0        2.189216   -0.442669    0.662912
     26          1           0        5.044186   -0.720414   -0.397738
     27          1           0        3.600596   -1.324528   -1.203151
     28          1           0        3.135308   -2.837139    0.754448
     29          1           0        4.587101   -2.229592    1.564437
     30          1           0        4.735106   -3.165823    0.067481
     31          6           0        3.095098    1.254792   -0.308794
     32          6           0        2.256690    2.324730    0.391411
     33          6           0        2.162436    3.621847   -0.412579
     34          1           0        4.104526    1.649693   -0.489083
     35          1           0        2.660578    1.045309   -1.295837
     36          1           0        2.693146    2.531552    1.376980
     37          1           0        1.249556    1.927438    0.571567
     38          1           0        1.706641    3.436617   -1.390608
     39          1           0        3.158435    4.044163   -0.580619
     40          1           0        1.558636    4.372847    0.106348
 ---------------------------------------------------------------------

 SCF Done:  E(RHF) =  -470.733358184     A.U. after   11 cycles
 E2 =    -0.1583025489D+01 EUMP2 =    -0.47231638367229D+03

 The electronic state is 1-A.
 Alpha  occ. eigenvalues --  -11.21676 -11.21634 -11.21579 -11.21535 -11.21466
 Alpha  occ. eigenvalues --  -11.21401 -11.21353 -11.21290 -11.21164 -11.21095
 Alpha  occ. eigenvalues --  -11.21049 -11.21004  -1.08488  -1.08382  -1.03590
 Alpha  occ. eigenvalues --   -1.03481  -0.96043  -0.95931  -0.87064  -0.86946
 Alpha  occ. eigenvalues --   -0.79661  -0.79541  -0.78313  -0.78188  -0.65159
 Alpha  occ. eigenvalues --   -0.64987  -0.61018  -0.60850  -0.59407  -0.59302
 Alpha  occ. eigenvalues --   -0.57668  -0.57532  -0.55377  -0.55182  -0.52731
 Alpha  occ. eigenvalues --   -0.52629  -0.52504  -0.52329  -0.50052  -0.49827
 Alpha  occ. eigenvalues --   -0.48004  -0.47849  -0.46769  -0.46541  -0.45957
 Alpha  occ. eigenvalues --   -0.45784  -0.45714  -0.45418  -0.43841  -0.43738
 Alpha virt. eigenvalues --    0.20556   0.22987   0.23943   0.24450   0.25473
 Alpha virt. eigenvalues --    0.26563   0.27255   0.27642   0.27959   0.29368
 Alpha virt. eigenvalues --    0.30782   0.31381   0.31604   0.31826   0.32016

 Mulliken charges:
               1
     1  C   -0.298351
     2  C   -0.299742
     3  C   -0.475755
     4  H    0.149853
     5  H    0.149743
     6  H    0.151994
     7  H    0.152083
     8  H    0.155268
     9  H    0.155221
    10  H    0.160417
    11  C   -0.298657
    12  C   -0.299388
    13  C   -0.482797
    14  H    0.149568
    15  H    0.149364
    16  H    0.152379
    17  H    0.152314
    18  H    0.160853
    19  H    0.155213
    20  H    0.161063
    21  C   -0.304987
    22  C   -0.299091
    23  C   -0.476949
    24  H    0.149232
    25  H    0.155797
    26  H    0.151544
    27  H    0.152754
    28  H    0.156637
    29  H    0.154639
    30  H    0.159945
    31  C   -0.297870
    32  C   -0.299896
    33  C   -0.475606
    34  H    0.149371
    35  H    0.149987
    36  H    0.151727
    37  H    0.151615
    38  H    0.155305
    39  H    0.155114
    40  H    0.160088
 Sum of Mulliken charges =  -0.00000

 Dipole moment (field-independent basis, Debye):
    X=             -0.0365    Y=             -0.0143    Z=             -0.0111  Tot=              0.0408
 Quadrupole moment (field-independent basis, Debye-Ang):
   XX=            -85.2171   YY=            -85.7226   ZZ=            -83.8447
   XY=              0.7428   XZ=              0.7841   YZ=              0.6790

 Normal termination of Gaussian 16 at Thu May  6 03:57:09 2021.
