 Gaussian 16, Revision A.03,
 Gaussian 16:  EM64L-G16RevA.03 25-Dec-2016

 -------------
 #p 6-31g* mp2
 -------------

 ------------------------------------------------------
 Input file generated by CHIRIPA (05-May-2021 14:51:13)
 ------------------------------------------------------
 Symbolic Z-matrix:
 Charge =  0 Multiplicity = 1

                         Standard orientation:
 ---------------------------------------------------------------------
 Center     Atomic      Atomic             Coordinates (Angstroms)
 Number     Number       Type             X           Y           Z
 ---------------------------------------------------------------------
      1          6           0        3.536129    0.552610   -0.153309
      2          6           0        5.028970    0.871425   -0.065161
      3          6           0        5.438618    2.037366   -0.965473
      4          1           0        3.278075    0.321017   -1.195766
      5          1           0        2.960381    1.447791    0.119746
      6          1           0        5.601737   -0.024497   -0.336963
      7          1           0        5.283538    1.102098    0.977241
      8          1           0        4.892871    2.945993   -0.691323
      9          1           0        5.212878    1.812997   -2.012994
     10          1           0        6.509707    2.248204   -0.886877
     11          6           0        3.111254   -0.610706    0.741066
     12          6           0        1.618414   -0.929521    0.652918
     13          6           0        1.208765   -2.095463    1.553230
     14          1           0        3.687002   -1.505887    0.468011
     15          1           0        3.369309   -0.379114    1.783524
     16          1           0        1.363846   -1.160194   -0.389484
     17          1           0        1.045646   -0.033599    0.924720
     18          1           0        1.434506   -1.871093    2.600751
     19          1           0        1.754513   -3.004089    1.279080
     20          1           0        0.137677   -2.306300    1.474634
     21          6           0       -2.719540   -0.312201   -0.613223
     22          6           0       -2.834501   -1.836420   -0.652284
     23          6           0       -1.618223   -2.504734   -1.294015
     24          1           0       -2.589106    0.065656   -1.636530
     25          1           0       -1.812282   -0.033963   -0.059271
     26          1           0       -3.742007   -2.111674   -1.204809
     27          1           0       -2.964868   -2.210676    0.371215
     28          1           0       -0.706562   -2.259093   -0.739815
     29          1           0       -1.488116   -2.159527   -2.324794
     30          1           0       -1.721425   -3.594184   -1.311563
     31          6           0       -3.927844    0.370297    0.025466
     32          6           0       -3.812882    1.894516    0.064528
     33          6           0       -5.029161    2.562830    0.706258
     34          1           0       -4.835102    0.092059   -0.528485
     35          1           0       -4.058278   -0.007560    1.048773
     36          1           0       -3.682515    2.268773   -0.958972
     37          1           0       -2.905377    2.169770    0.617052
     38          1           0       -5.159266    2.217624    1.737037
     39          1           0       -5.940820    2.317189    0.152057
     40          1           0       -4.925959    3.652280    0.723806
 ---------------------------------------------------------------------

 SCF Done:  E(RHF) =  -470.732459956     A.U. after   11 cycles
 E2 =    -0.1583783985D+01 EUMP2 =    -0.47231624394130D+03

 The electronic state is 1-A.
 Alpha  occ. eigenvalues --  -11.21659 -11.21616 -11.21592 -11.21574 -11.21438
 Alpha  occ. eigenvalues --  -11.21378 -11.21375 -11.21316 -11.21122 -11.21080
 Alpha  occ. eigenvalues --  -11.21064 -11.20950  -1.08477  -1.08398  -1.03614
 Alpha  occ. eigenvalues --   -1.03471  -0.96067  -0.95910  -0.87055  -0.86950
 Alpha  occ. eigenvalues --   -0.79678  -0.79540  -0.78326  -0.78169  -0.65123
 Alpha  occ. eigenvalues --   -0.65040  -0.61144  -0.60869  -0.59434  -0.59256
 Alpha  occ. eigenvalues --   -0.57762  -0.57452  -0.55412  -0.55099  -0.52728
 Alpha  occ. eigenvalues --   -0.52639  -0.52495  -0.52294  -0.49958  -0.49859
 Alpha  occ. eigenvalues --   -0.48012  -0.47845  -0.46717  -0.46527  -0.45936
 Alpha  occ. eigenvalues --   -0.45754  -0.45700  -0.45534  -0.43825  -0.43756
 Alpha virt. eigenvalues --    0.20719   0.23051   0.23586   0.25055   0.25825
 Alpha virt. eigenvalues --    0.26487   0.26913   0.27642   0.28042   0.29265
 Alpha virt. eigenvalues --    0.30611   0.31174   0.31304   0.31860   0.32128

 Mulliken charges:
               1
     1  C   -0.298493
     2  C   -0.299710
     3  C   -0.475734
     4  H    0.150121
     5  H    0.149554
     6  H    0.152015
     7  H    0.151928
     8  H    0.155216
     9  H    0.155288
    10  H    0.160304
    11  C   -0.297733
    12  C   -0.305399
    13  C   -0.480049
    14  H    0.149912
    15  H    0.149710
    16  H    0.155516
    17  H    0.152599
    18  H    0.156123
    19  H    0.156238
    20  H    0.162643
    21  C   -0.301231
    22  C   -0.299590
    23  C   -0.486702
    24  H    0.149594
    25  H    0.152560
    26  H    0.151944
    27  H    0.151133
    28  H    0.168645
    29  H    0.154257
    30  H    0.159663
    31  C   -0.298226
    32  C   -0.299517
    33  C   -0.475690
    34  H    0.149543
    35  H    0.149481
    36  H    0.151987
    37  H    0.151593
    38  H    0.155136
    39  H    0.155210
    40  H    0.160162
 Sum of Mulliken charges =  -0.00000

 Dipole moment (field-independent basis, Debye):
    X=              0.0491    Y=              0.0037    Z=              0.0053  Tot=              0.0496
 Quadrupole moment (field-independent basis, Debye-Ang):
   XX=            -85.4680   YY=            -85.4741   ZZ=            -83.9301
   XY=             -0.0937   XZ=              0.8582   YZ=              0.6258

 Normal termination of Gaussian 16 at Wed May  5 18:23:14 2021.
