 Gaussian 16, Revision A.03,
 Gaussian 16:  EM64L-G16RevA.03 25-Dec-2016

 -------------
 #p 6-31g* mp2
 -------------

 ------------------------------------------------------
 Input file generated by CHIRIPA (05-May-2021 14:57:26)
 ------------------------------------------------------
 Symbolic Z-matrix:
 Charge =  0 Multiplicity = 1

                         Standard orientation:
 ---------------------------------------------------------------------
 Center     Atomic      Atomic             Coordinates (Angstroms)
 Number     Number       Type             X           Y           Z
 ---------------------------------------------------------------------
      1          6           0       -2.225601    2.494309   -0.019080
      2          6           0       -3.275387    2.274065    0.878675
      3          6           0       -3.923229    1.035991    0.923630
      4          6           0       -3.493549    0.035965    0.052647
      5          6           0       -2.450745    0.224686   -0.853021
      6          6           0       -1.817350    1.470721   -0.880544
      7          1           0       -1.727953    3.459166   -0.047231
      8          1           0       -3.594561    3.067166    1.548873
      9          1           0       -4.738694    0.838386    1.608749
     10          1           0       -2.154923   -0.585212   -1.508744
     11          1           0       -1.002362    1.638924   -1.578789
     12          7           0       -4.171743   -1.278942    0.091011
     13          8           0       -3.774328   -2.143675   -0.686765
     14          8           0       -5.087885   -1.419935    0.898130
     15          6           0        5.683848    0.141248    0.908247
     16          6           0        4.701276   -0.481758    1.684738
     17          6           0        3.422324   -0.705117    1.166142
     18          6           0        3.159219   -0.290761   -0.138608
     19          6           0        4.116913    0.332496   -0.937145
     20          6           0        5.389050    0.545674   -0.397913
     21          1           0        6.674721    0.310804    1.319120
     22          1           0        4.927389   -0.796896    2.699432
     23          1           0        2.642886   -1.185187    1.745304
     24          1           0        3.861682    0.635515   -1.945340
     25          1           0        6.150161    1.029744   -1.003249
     26          7           0        1.808857   -0.521832   -0.698545
     27          8           0        1.602246   -0.147390   -1.850822
     28          8           0        0.982624   -1.073013    0.025456
 ---------------------------------------------------------------------

 SCF Done:  E(RHF) =  -868.339851180     A.U. after   16 cycles
 E2 =    -0.2599329789D+01 EUMP2 =    -0.87093918096848D+03

 The electronic state is 1-A.
 Alpha  occ. eigenvalues --  -20.61579 -20.61508 -20.59674 -20.59642 -15.86544
 Alpha  occ. eigenvalues --  -15.84706 -11.31712 -11.29908 -11.28271 -11.28229
 Alpha  occ. eigenvalues --  -11.27958 -11.27230 -11.27202 -11.26586 -11.26332
 Alpha  occ. eigenvalues --  -11.26299 -11.25616 -11.25321  -1.60599  -1.58738
 Alpha  occ. eigenvalues --   -1.40154  -1.38294  -1.19865  -1.18094  -1.09300
 Alpha  occ. eigenvalues --   -1.07549  -1.05234  -1.03448  -0.96166  -0.94397
 Alpha  occ. eigenvalues --   -0.86641  -0.84884  -0.83001  -0.81213  -0.78074
 Alpha  occ. eigenvalues --   -0.76256  -0.72771  -0.71898  -0.70967  -0.70938
 Alpha  occ. eigenvalues --   -0.70053  -0.69258  -0.65518  -0.65233  -0.63753
 Alpha  occ. eigenvalues --   -0.63464  -0.62579  -0.60784  -0.55742  -0.54061
 Alpha  occ. eigenvalues --   -0.53578  -0.53320  -0.51837  -0.51542  -0.49550
 Alpha  occ. eigenvalues --   -0.49509  -0.47698  -0.47675  -0.45590  -0.43733
 Alpha  occ. eigenvalues --   -0.37836  -0.36829  -0.36141  -0.35007
 Alpha virt. eigenvalues --    0.04417   0.06254   0.10829   0.12595   0.15950
 Alpha virt. eigenvalues --    0.17739   0.21000   0.22667   0.26929   0.27854
 Alpha virt. eigenvalues --    0.28711   0.29484   0.30605   0.32014   0.32252

 Mulliken charges:
               1
     1  C   -0.173145
     2  C   -0.219810
     3  C   -0.173035
     4  C    0.155435
     5  C   -0.158505
     6  C   -0.222615
     7  H    0.219232
     8  H    0.217146
     9  H    0.270884
    10  H    0.284050
    11  H    0.233555
    12  N    0.488241
    13  O   -0.458473
    14  O   -0.466486
    15  C   -0.170070
    16  C   -0.218710
    17  C   -0.170406
    18  C    0.157741
    19  C   -0.171410
    20  C   -0.218661
    21  H    0.227372
    22  H    0.225636
    23  H    0.278114
    24  H    0.274675
    25  H    0.224578
    26  N    0.488619
    27  O   -0.469504
    28  O   -0.454447
 Sum of Mulliken charges =  -0.00000

 Dipole moment (field-independent basis, Debye):
    X=              7.6172    Y=              5.2178    Z=              1.7631  Tot=              9.3998
 Quadrupole moment (field-independent basis, Debye-Ang):
   XX=            -90.9855   YY=           -105.3469   ZZ=            -99.6352
   XY=            -14.9517   XZ=              3.2247   YZ=             -1.3512

 Normal termination of Gaussian 16 at Fri May  7 12:41:36 2021.
