 Gaussian 16, Revision A.03,
 Gaussian 16:  EM64L-G16RevA.03 25-Dec-2016

 -------------
 #p 6-31g* mp2
 -------------

 ------------------------------------------------------
 Input file generated by CHIRIPA (05-May-2021 14:51:10)
 ------------------------------------------------------
 Symbolic Z-matrix:
 Charge =  0 Multiplicity = 1

                         Standard orientation:
 ---------------------------------------------------------------------
 Center     Atomic      Atomic             Coordinates (Angstroms)
 Number     Number       Type             X           Y           Z
 ---------------------------------------------------------------------
      1          6           0       -3.612101   -0.647638    0.304372
      2          6           0       -3.158778   -1.750008   -0.653367
      3          6           0       -2.857062   -3.067283    0.061858
      4          1           0       -2.832866   -0.485269    1.061587
      5          1           0       -4.507154   -0.986035    0.844523
      6          1           0       -2.265655   -1.409091   -1.192555
      7          1           0       -3.939100   -1.909638   -1.408504
      8          1           0       -3.745877   -3.433573    0.585728
      9          1           0       -2.062924   -2.930182    0.802904
     10          1           0       -2.534754   -3.841365   -0.641544
     11          6           0       -3.917475    0.675350   -0.395755
     12          6           0       -4.370798    1.777719    0.561985
     13          6           0       -4.672514    3.094995   -0.153241
     14          1           0       -3.022422    1.013747   -0.935906
     15          1           0       -4.696709    0.512981   -1.152970
     16          1           0       -3.590476    1.937350    1.317122
     17          1           0       -5.263921    1.436803    1.101172
     18          1           0       -5.466652    2.957894   -0.894287
     19          1           0       -3.783698    3.461285   -0.677111
     20          1           0       -4.994821    3.869077    0.550161
     21          6           0        4.346961    0.269197   -0.359756
     22          6           0        5.618281    0.472300    0.465156
     23          6           0        6.774057    1.039120   -0.359884
     24          1           0        4.565784   -0.405375   -1.198812
     25          1           0        4.047153    1.229829   -0.801001
     26          1           0        5.914823   -0.488156    0.905843
     27          1           0        5.396359    1.146315    1.302455
     28          1           0        6.502470    2.009696   -0.787465
     29          1           0        7.023881    0.365938   -1.186331
     30          1           0        7.672810    1.176357    0.249435
     31          6           0        3.182615   -0.296909    0.451139
     32          6           0        1.911295   -0.500011   -0.373774
     33          6           0        0.755519   -1.066832    0.451266
     34          1           0        3.482422   -1.257541    0.892384
     35          1           0        2.963792    0.377663    1.290194
     36          1           0        2.133217   -1.174026   -1.211073
     37          1           0        1.614752    0.460444   -0.814460
     38          1           0        0.505694   -0.393650    1.277714
     39          1           0        1.027105   -2.037406    0.878847
     40          1           0       -0.143235   -1.204068   -0.158053
 ---------------------------------------------------------------------

 SCF Done:  E(RHF) =  -470.733063726     A.U. after   11 cycles
 E2 =    -0.1583096414D+01 EUMP2 =    -0.47231616014050D+03

 The electronic state is 1-A.
 Alpha  occ. eigenvalues --  -11.21652 -11.21622 -11.21587 -11.21581 -11.21436
 Alpha  occ. eigenvalues --  -11.21376 -11.21375 -11.21312 -11.21106 -11.21087
 Alpha  occ. eigenvalues --  -11.21063 -11.21005  -1.08467  -1.08404  -1.03587
 Alpha  occ. eigenvalues --   -1.03490  -0.96032  -0.95936  -0.87038  -0.86967
 Alpha  occ. eigenvalues --   -0.79632  -0.79573  -0.78276  -0.78219  -0.65100
 Alpha  occ. eigenvalues --   -0.65068  -0.61037  -0.60960  -0.59328  -0.59296
 Alpha  occ. eigenvalues --   -0.57628  -0.57548  -0.55360  -0.55187  -0.52689
 Alpha  occ. eigenvalues --   -0.52647  -0.52446  -0.52361  -0.50014  -0.49831
 Alpha  occ. eigenvalues --   -0.47989  -0.47855  -0.46663  -0.46596  -0.45831
 Alpha  occ. eigenvalues --   -0.45759  -0.45740  -0.45662  -0.43804  -0.43739
 Alpha virt. eigenvalues --    0.20905   0.23037   0.23854   0.24943   0.26206
 Alpha virt. eigenvalues --    0.26568   0.26643   0.27750   0.27964   0.29013
 Alpha virt. eigenvalues --    0.30718   0.30854   0.31352   0.31744   0.32191

 Mulliken charges:
               1
     1  C   -0.299819
     2  C   -0.302896
     3  C   -0.478362
     4  H    0.151869
     5  H    0.149536
     6  H    0.152483
     7  H    0.152731
     8  H    0.155017
     9  H    0.159297
    10  H    0.159774
    11  C   -0.298185
    12  C   -0.299609
    13  C   -0.475678
    14  H    0.149288
    15  H    0.149534
    16  H    0.151884
    17  H    0.151921
    18  H    0.155179
    19  H    0.155052
    20  H    0.160164
    21  C   -0.298263
    22  C   -0.299658
    23  C   -0.475722
    24  H    0.149740
    25  H    0.149503
    26  H    0.152000
    27  H    0.151951
    28  H    0.155197
    29  H    0.155227
    30  H    0.160330
    31  C   -0.298605
    32  C   -0.299518
    33  C   -0.484476
    34  H    0.149720
    35  H    0.149610
    36  H    0.152222
    37  H    0.151566
    38  H    0.154678
    39  H    0.155699
    40  H    0.169617
 Sum of Mulliken charges =  -0.00000

 Dipole moment (field-independent basis, Debye):
    X=              0.0147    Y=             -0.0108    Z=              0.0097  Tot=              0.0207
 Quadrupole moment (field-independent basis, Debye-Ang):
   XX=            -84.7003   YY=            -85.0029   ZZ=            -85.0921
   XY=             -0.1328   XZ=              0.3388   YZ=              0.8090

 Normal termination of Gaussian 16 at Wed May  5 23:02:30 2021.
