 Gaussian 16, Revision A.03,
 Gaussian 16:  EM64L-G16RevA.03 25-Dec-2016

 -------------
 #p 6-31g* mp2
 -------------

 ------------------------------------------------------
 Input file generated by CHIRIPA (05-May-2021 14:53:15)
 ------------------------------------------------------
 Symbolic Z-matrix:
 Charge =  0 Multiplicity = 1

                         Standard orientation:
 ---------------------------------------------------------------------
 Center     Atomic      Atomic             Coordinates (Angstroms)
 Number     Number       Type             X           Y           Z
 ---------------------------------------------------------------------
      1          6           0       -3.569698    1.030199   -0.071258
      2          6           0       -2.275341    1.759794   -0.432252
      3          6           0       -2.264718    3.213797    0.040565
      4          1           0       -4.420857    1.566882   -0.512216
      5          1           0       -3.709608    1.063526    1.018104
      6          1           0       -2.137204    1.723904   -1.520483
      7          1           0       -1.427148    1.221205    0.009457
      8          1           0       -2.377757    3.266023    1.128267
      9          1           0       -3.091848    3.771578   -0.410365
     10          1           0       -1.330317    3.716451   -0.227938
     11          6           0       -3.595401   -0.424412   -0.537277
     12          6           0       -4.889757   -1.154007   -0.176283
     13          6           0       -4.900381   -2.608010   -0.649100
     14          1           0       -3.455490   -0.457738   -1.626639
     15          1           0       -2.744241   -0.961094   -0.096318
     16          1           0       -5.737950   -0.615418   -0.617991
     17          1           0       -5.027894   -1.118117    0.911948
     18          1           0       -4.073251   -3.165790   -0.198170
     19          1           0       -4.787341   -2.660236   -1.736802
     20          1           0       -5.834781   -3.110664   -0.380597
     21          6           0        4.739546   -0.170540   -1.373291
     22          6           0        4.339424   -1.386205   -0.808860
     23          6           0        3.265493   -1.434693    0.084934
     24          6           0        2.611248   -0.243026    0.393454
     25          6           0        2.986156    0.983693   -0.152345
     26          6           0        4.062828    1.008450   -1.043813
     27          1           0        5.574866   -0.142091   -2.066707
     28          1           0        4.863124   -2.303398   -1.062911
     29          1           0        2.934781   -2.362126    0.536505
     30          1           0        2.444628    1.881418    0.120149
     31          1           0        4.371372    1.953988   -1.480625
     32          7           0        1.472875   -0.281797    1.338443
     33          8           0        0.912930    0.782059    1.594001
     34          8           0        1.162118   -1.375306    1.805672
 ---------------------------------------------------------------------

 SCF Done:  E(RHF) =  -669.536433086     A.U. after   15 cycles
 E2 =    -0.2091108382D+01 EUMP2 =    -0.67162754146843D+03

 The electronic state is 1-A.
 Alpha  occ. eigenvalues --  -20.61012 -20.61004 -15.86026 -11.31308 -11.27869
 Alpha  occ. eigenvalues --  -11.27864 -11.27603 -11.26869 -11.26859 -11.20899
 Alpha  occ. eigenvalues --  -11.20562 -11.20533 -11.20471 -11.20447 -11.20206
 Alpha  occ. eigenvalues --   -1.60064  -1.39621  -1.19475  -1.08888  -1.07569
 Alpha  occ. eigenvalues --   -1.04866  -1.02700  -0.95735  -0.95178  -0.86268
 Alpha  occ. eigenvalues --   -0.86200  -0.82571  -0.78777  -0.77632  -0.77379
 Alpha  occ. eigenvalues --   -0.72251  -0.71371  -0.70585  -0.65133  -0.64870
 Alpha  occ. eigenvalues --   -0.64177  -0.62214  -0.60075  -0.58561  -0.56794
 Alpha  occ. eigenvalues --   -0.55374  -0.54455  -0.53199  -0.52958  -0.51900
 Alpha  occ. eigenvalues --   -0.51614  -0.49122  -0.49019  -0.49003  -0.47118
 Alpha  occ. eigenvalues --   -0.45862  -0.45180  -0.44914  -0.44553  -0.42962
 Alpha  occ. eigenvalues --   -0.37451  -0.36464
 Alpha virt. eigenvalues --    0.04863   0.11189   0.16336   0.21279   0.23739
 Alpha virt. eigenvalues --    0.25014   0.27186   0.27477   0.27978   0.28531
 Alpha virt. eigenvalues --    0.28829   0.30831   0.31981   0.32250   0.32656

 Mulliken charges:
               1
     1  C   -0.297154
     2  C   -0.308490
     3  C   -0.472090
     4  H    0.144740
     5  H    0.153159
     6  H    0.143060
     7  H    0.171138
     8  H    0.159758
     9  H    0.149584
    10  H    0.153763
    11  C   -0.299737
    12  C   -0.299019
    13  C   -0.475727
    14  H    0.144818
    15  H    0.156374
    16  H    0.149272
    17  H    0.153590
    18  H    0.157068
    19  H    0.152448
    20  H    0.158118
    21  C   -0.170456
    22  C   -0.218581
    23  C   -0.170708
    24  C    0.158367
    25  C   -0.170482
    26  C   -0.218555
    27  H    0.226091
    28  H    0.223884
    29  H    0.275773
    30  H    0.276101
    31  H    0.223979
    32  N    0.487754
    33  O   -0.458918
    34  O   -0.458920
 Sum of Mulliken charges =  -0.00000

 Dipole moment (field-independent basis, Debye):
    X=              4.2697    Y=              0.0520    Z=             -3.1677  Tot=              5.3166
 Quadrupole moment (field-independent basis, Debye-Ang):
   XX=            -74.9004   YY=            -91.4474   ZZ=            -97.5167
   XY=             -1.4459   XZ=             -7.5419   YZ=             -0.1072

 Normal termination of Gaussian 16 at Thu May  6 02:41:29 2021.
