 Gaussian 16, Revision A.03,
 Gaussian 16:  EM64L-G16RevA.03 25-Dec-2016

 -------------
 #p 6-31g* mp2
 -------------

 ------------------------------------------------------
 Input file generated by CHIRIPA (05-May-2021 14:57:22)
 ------------------------------------------------------
 Symbolic Z-matrix:
 Charge =  0 Multiplicity = 1

                         Standard orientation:
 ---------------------------------------------------------------------
 Center     Atomic      Atomic             Coordinates (Angstroms)
 Number     Number       Type             X           Y           Z
 ---------------------------------------------------------------------
      1          6           0        4.282380   -2.323515    0.065946
      2          6           0        5.295314   -1.403525   -0.224059
      3          6           0        5.008241   -0.038761   -0.321813
      4          6           0        3.691389    0.373038   -0.122783
      5          6           0        2.660314   -0.519098    0.167509
      6          6           0        2.970426   -1.879149    0.260462
      7          1           0        4.514334   -3.381866    0.140019
      8          1           0        6.315094   -1.745765   -0.375606
      9          1           0        5.773129    0.695059   -0.545132
     10          1           0        1.653220   -0.147789    0.313481
     11          1           0        2.181746   -2.591362    0.485808
     12          7           0        3.375282    1.815358   -0.223729
     13          8           0        2.207137    2.152701   -0.044080
     14          8           0        4.301649    2.581195   -0.480588
     15          6           0       -1.483894   -0.450140    1.183669
     16          6           0       -2.488684    0.252459    1.856925
     17          6           0       -3.744436    0.432989    1.269518
     18          6           0       -3.961936   -0.104891    0.001974
     19          6           0       -2.981164   -0.809719   -0.694154
     20          6           0       -1.732902   -0.978056   -0.087480
     21          1           0       -0.511306   -0.585645    1.647464
     22          1           0       -2.298132    0.663547    2.844215
     23          1           0       -4.540244    0.972673    1.768365
     24          1           0       -3.200932   -1.207910   -1.677294
     25          1           0       -0.954450   -1.524149   -0.612683
     26          7           0       -5.287379    0.079773   -0.630085
     27          8           0       -5.453826   -0.403896   -1.747670
     28          8           0       -6.134717    0.704686    0.004060
 ---------------------------------------------------------------------

 SCF Done:  E(RHF) =  -868.336688189     A.U. after   16 cycles
 E2 =    -0.2600242597D+01 EUMP2 =    -0.87093693078599D+03

 The electronic state is 1-A.
 Alpha  occ. eigenvalues --  -20.61442 -20.61429 -20.60811 -20.60804 -15.86497
 Alpha  occ. eigenvalues --  -15.85866 -11.31997 -11.31312 -11.28676 -11.28514
 Alpha  occ. eigenvalues --  -11.28297 -11.27913 -11.27853 -11.27759 -11.27690
 Alpha  occ. eigenvalues --  -11.27537 -11.27043 -11.26902  -1.60512  -1.59882
 Alpha  occ. eigenvalues --   -1.40062  -1.39434  -1.20173  -1.19500  -1.09528
 Alpha  occ. eigenvalues --   -1.08908  -1.05616  -1.04915  -0.96351  -0.95726
 Alpha  occ. eigenvalues --   -0.86993  -0.86332  -0.83193  -0.82551  -0.78235
 Alpha  occ. eigenvalues --   -0.77562  -0.72711  -0.72088  -0.71838  -0.71319
 Alpha  occ. eigenvalues --   -0.71202  -0.70647  -0.65829  -0.65620  -0.65175
 Alpha  occ. eigenvalues --   -0.64956  -0.62970  -0.62255  -0.56081  -0.55498
 Alpha  occ. eigenvalues --   -0.53906  -0.53708  -0.53208  -0.53030  -0.49479
 Alpha  occ. eigenvalues --   -0.49460  -0.48853  -0.48833  -0.45440  -0.44821
 Alpha  occ. eigenvalues --   -0.38124  -0.37501  -0.37221  -0.36490
 Alpha virt. eigenvalues --    0.04312   0.04951   0.10429   0.11100   0.15781
 Alpha virt. eigenvalues --    0.16335   0.18103   0.22100   0.25066   0.26836
 Alpha virt. eigenvalues --    0.27522   0.29698   0.30392   0.30907   0.32114

 Mulliken charges:
               1
     1  C   -0.170112
     2  C   -0.218067
     3  C   -0.169278
     4  C    0.160409
     5  C   -0.179322
     6  C   -0.220117
     7  H    0.228232
     8  H    0.226720
     9  H    0.278398
    10  H    0.273224
    11  H    0.218944
    12  N    0.487436
    13  O   -0.460488
    14  O   -0.457117
    15  C   -0.169474
    16  C   -0.216128
    17  C   -0.169808
    18  C    0.159472
    19  C   -0.169382
    20  C   -0.217341
    21  H    0.218539
    22  H    0.226315
    23  H    0.277208
    24  H    0.276271
    25  H    0.216617
    26  N    0.488072
    27  O   -0.460069
    28  O   -0.459153
 Sum of Mulliken charges =  -0.00000

 Dipole moment (field-independent basis, Debye):
    X=              5.8641    Y=             -5.6130    Z=              2.5643  Tot=              8.5129
 Quadrupole moment (field-independent basis, Debye-Ang):
   XX=           -127.0553   YY=           -108.1205   ZZ=           -102.4682
   XY=            -16.5161   XZ=            -10.5149   YZ=              2.7798

 Normal termination of Gaussian 16 at Fri May  7 06:20:55 2021.
