 Gaussian 16, Revision A.03,
 Gaussian 16:  EM64L-G16RevA.03 25-Dec-2016

 -------------
 #p 6-31g* mp2
 -------------

 ------------------------------------------------------
 Input file generated by CHIRIPA (05-May-2021 14:51:13)
 ------------------------------------------------------
 Symbolic Z-matrix:
 Charge =  0 Multiplicity = 1

                         Standard orientation:
 ---------------------------------------------------------------------
 Center     Atomic      Atomic             Coordinates (Angstroms)
 Number     Number       Type             X           Y           Z
 ---------------------------------------------------------------------
      1          6           0       -2.203208   -0.733457    0.438736
      2          6           0       -2.149341   -1.164864    1.904673
      3          6           0       -1.348793   -2.450682    2.113457
      4          1           0       -2.644235   -1.542810   -0.159083
      5          1           0       -1.178689   -0.593026    0.067207
      6          1           0       -3.173700   -1.303099    2.273721
      7          1           0       -1.708568   -0.354314    2.499100
      8          1           0       -0.316685   -2.321654    1.771834
      9          1           0       -1.790142   -3.275829    1.545175
     10          1           0       -1.323191   -2.740825    3.168455
     11          6           0       -3.000023    0.550398    0.213945
     12          6           0       -3.053890    0.981806   -1.251992
     13          6           0       -3.854438    2.267624   -1.460776
     14          1           0       -4.024543    0.409968    0.585474
     15          1           0       -2.558997    1.359752    0.811764
     16          1           0       -3.494664    0.171256   -1.846419
     17          1           0       -2.029532    1.120041   -1.621040
     18          1           0       -3.413089    3.092771   -0.892494
     19          1           0       -4.886546    2.138595   -1.119153
     20          1           0       -3.880040    2.557767   -2.515774
     21          6           0        3.077654    0.485797    0.122405
     22          6           0        2.539853    1.861993    0.515906
     23          6           0        3.503471    2.638667    1.413687
     24          1           0        3.281966   -0.094894    1.032350
     25          1           0        4.040597    0.609569   -0.392197
     26          1           0        1.577543    1.735750    1.028387
     27          1           0        2.336617    2.439406   -0.395086
     28          1           0        4.461527    2.793960    0.907115
     29          1           0        3.698139    2.086307    2.338676
     30          1           0        3.099158    3.619439    1.682903
     31          6           0        2.125578   -0.302739   -0.775086
     32          6           0        2.663378   -1.678935   -1.168586
     33          6           0        1.699760   -2.455608   -2.066368
     34          1           0        1.162634   -0.426511   -0.260484
     35          1           0        1.921265    0.277952   -1.685031
     36          1           0        2.866615   -2.256347   -0.257595
     37          1           0        3.625688   -1.552691   -1.681068
     38          1           0        1.505092   -1.903249   -2.991357
     39          1           0        0.741705   -2.610902   -1.559796
     40          1           0        2.104074   -3.436380   -2.335585
 ---------------------------------------------------------------------

 SCF Done:  E(RHF) =  -470.733406225     A.U. after   11 cycles
 E2 =    -0.1583597180D+01 EUMP2 =    -0.47231700340535D+03

 The electronic state is 1-A.
 Alpha  occ. eigenvalues --  -11.21665 -11.21648 -11.21628 -11.21583 -11.21457
 Alpha  occ. eigenvalues --  -11.21413 -11.21397 -11.21353 -11.21142 -11.21116
 Alpha  occ. eigenvalues --  -11.21059 -11.21058  -1.08493  -1.08437  -1.03569
 Alpha  occ. eigenvalues --   -1.03546  -0.96016  -0.95997  -0.87033  -0.87012
 Alpha  occ. eigenvalues --   -0.79645  -0.79596  -0.78403  -0.78164  -0.65268
 Alpha  occ. eigenvalues --   -0.64942  -0.61011  -0.60898  -0.59397  -0.59352
 Alpha  occ. eigenvalues --   -0.57640  -0.57595  -0.55348  -0.55246  -0.52705
 Alpha  occ. eigenvalues --   -0.52693  -0.52467  -0.52399  -0.50000  -0.49910
 Alpha  occ. eigenvalues --   -0.48018  -0.47888  -0.46794  -0.46605  -0.46247
 Alpha  occ. eigenvalues --   -0.45800  -0.45772  -0.45142  -0.43824  -0.43801
 Alpha virt. eigenvalues --    0.19588   0.23190   0.23692   0.24658   0.25429
 Alpha virt. eigenvalues --    0.26749   0.26988   0.27920   0.28049   0.30160
 Alpha virt. eigenvalues --    0.30902   0.31659   0.31764   0.31778   0.31978

 Mulliken charges:
               1
     1  C   -0.309131
     2  C   -0.299098
     3  C   -0.477160
     4  H    0.149858
     5  H    0.159082
     6  H    0.152410
     7  H    0.151455
     8  H    0.154932
     9  H    0.155680
    10  H    0.160710
    11  C   -0.297508
    12  C   -0.300046
    13  C   -0.475754
    14  H    0.149555
    15  H    0.149455
    16  H    0.151962
    17  H    0.152874
    18  H    0.155226
    19  H    0.155069
    20  H    0.160224
    21  C   -0.297501
    22  C   -0.299692
    23  C   -0.475732
    24  H    0.149668
    25  H    0.149973
    26  H    0.150935
    27  H    0.152024
    28  H    0.155457
    29  H    0.155370
    30  H    0.160340
    31  C   -0.308828
    32  C   -0.299048
    33  C   -0.477423
    34  H    0.158365
    35  H    0.149577
    36  H    0.151845
    37  H    0.152146
    38  H    0.155091
    39  H    0.157292
    40  H    0.160347
 Sum of Mulliken charges =  -0.00000

 Dipole moment (field-independent basis, Debye):
    X=              0.0045    Y=             -0.0018    Z=             -0.0088  Tot=              0.0101
 Quadrupole moment (field-independent basis, Debye-Ang):
   XX=            -84.4691   YY=            -85.6085   ZZ=            -84.5916
   XY=              0.7953   XZ=             -0.8118   YZ=             -0.4319

 Normal termination of Gaussian 16 at Thu May  6 00:46:40 2021.
