 Gaussian 16, Revision A.03,
 Gaussian 16:  EM64L-G16RevA.03 25-Dec-2016

 -------------
 #p 6-31g* mp2
 -------------

 ------------------------------------------------------
 Input file generated by CHIRIPA (05-May-2021 14:55:18)
 ------------------------------------------------------
 Symbolic Z-matrix:
 Charge =  0 Multiplicity = 1

                         Standard orientation:
 ---------------------------------------------------------------------
 Center     Atomic      Atomic             Coordinates (Angstroms)
 Number     Number       Type             X           Y           Z
 ---------------------------------------------------------------------
      1          6           0        3.935652    1.527654   -0.945287
      2          6           0        2.538011    1.545238   -0.998307
      3          6           0        1.795676    0.461080   -0.520721
      4          6           0        2.486603   -0.629219    0.005737
      5          6           0        3.878227   -0.676548    0.072322
      6          6           0        4.600128    0.418772   -0.411083
      7          1           0        4.504378    2.374190   -1.318547
      8          1           0        2.019298    2.405068   -1.412642
      9          1           0        0.712892    0.448389   -0.549627
     10          1           0        4.367147   -1.547809    0.490987
     11          1           0        5.685473    0.402359   -0.368634
     12          7           0        1.711543   -1.782877    0.514417
     13          8           0        2.344024   -2.731494    0.973470
     14          8           0        0.486245   -1.716652    0.444434
     15          6           0       -3.693566    0.207241   -0.480556
     16          6           0       -4.593620   -0.945874   -0.035346
     17          6           0       -5.281257   -1.645771   -1.207991
     18          1           0       -4.293067    0.935568   -1.043658
     19          1           0       -2.934312   -0.176834   -1.175838
     20          1           0       -5.350094   -0.559990    0.659964
     21          1           0       -3.991947   -1.671447    0.526925
     22          1           0       -4.539207   -2.057642   -1.899602
     23          1           0       -5.905072   -0.939870   -1.765807
     24          1           0       -5.919715   -2.466746   -0.867060
     25          6           0       -2.999151    0.916809    0.680490
     26          6           0       -2.099096    2.069924    0.235280
     27          6           0       -1.411460    2.769821    1.407924
     28          1           0       -3.758404    1.300884    1.375771
     29          1           0       -2.399650    0.188482    1.243591
     30          1           0       -2.700770    2.795496   -0.326991
     31          1           0       -1.342622    1.684040   -0.460031
     32          1           0       -0.787646    2.063919    1.965741
     33          1           0       -2.153509    3.181692    2.099535
     34          1           0       -0.773002    3.590796    1.066994
 ---------------------------------------------------------------------

 SCF Done:  E(RHF) =  -669.535862550     A.U. after   15 cycles
 E2 =    -0.2091780656D+01 EUMP2 =    -0.67162764320596D+03

 The electronic state is 1-A.
 Alpha  occ. eigenvalues --  -20.60864 -20.60854 -15.85908 -11.31220 -11.27789
 Alpha  occ. eigenvalues --  -11.27768 -11.27526 -11.26799 -11.26783 -11.21822
 Alpha  occ. eigenvalues --  -11.21252 -11.21117 -11.21096 -11.21009 -11.20627
 Alpha  occ. eigenvalues --   -1.59931  -1.39487  -1.19392  -1.08798  -1.08201
 Alpha  occ. eigenvalues --   -1.04789  -1.03365  -0.95789  -0.95640  -0.86816
 Alpha  occ. eigenvalues --   -0.86191  -0.82474  -0.79459  -0.77973  -0.77527
 Alpha  occ. eigenvalues --   -0.72131  -0.71250  -0.70514  -0.65047  -0.64956
 Alpha  occ. eigenvalues --   -0.64678  -0.62173  -0.60719  -0.59200  -0.57400
 Alpha  occ. eigenvalues --   -0.55305  -0.55042  -0.53118  -0.52889  -0.52538
 Alpha  occ. eigenvalues --   -0.52214  -0.49735  -0.48887  -0.48880  -0.47761
 Alpha  occ. eigenvalues --   -0.46482  -0.45527  -0.45387  -0.44894  -0.43584
 Alpha  occ. eigenvalues --   -0.37374  -0.36385
 Alpha virt. eigenvalues --    0.04989   0.11245   0.16490   0.19577   0.23016
 Alpha virt. eigenvalues --    0.24277   0.25929   0.27179   0.27624   0.28309
 Alpha virt. eigenvalues --    0.29443   0.30658   0.31510   0.31823   0.32325

 Mulliken charges:
               1
     1  C   -0.170598
     2  C   -0.221273
     3  C   -0.179545
     4  C    0.158936
     5  C   -0.170143
     6  C   -0.218928
     7  H    0.225817
     8  H    0.224012
     9  H    0.287215
    10  H    0.275603
    11  H    0.223609
    12  N    0.487686
    13  O   -0.459572
    14  O   -0.462448
    15  C   -0.297612
    16  C   -0.301279
    17  C   -0.475910
    18  H    0.145758
    19  H    0.151387
    20  H    0.149594
    21  H    0.161082
    22  H    0.156913
    23  H    0.152180
    24  H    0.160239
    25  C   -0.302310
    26  C   -0.300733
    27  C   -0.477373
    28  H    0.148689
    29  H    0.164750
    30  H    0.152509
    31  H    0.139433
    32  H    0.159798
    33  H    0.158384
    34  H    0.154131
 Sum of Mulliken charges =  -0.00000

 Dipole moment (field-independent basis, Debye):
    X=              2.7314    Y=              3.9381    Z=             -1.6859  Tot=              5.0805
 Quadrupole moment (field-independent basis, Debye-Ang):
   XX=            -77.3426   YY=            -99.4844   ZZ=            -95.7854
   XY=              5.6824   XZ=             -4.1520   YZ=              0.0718

 Normal termination of Gaussian 16 at Thu May  6 09:12:49 2021.
