 Gaussian 16, Revision A.03,
 Gaussian 16:  EM64L-G16RevA.03 25-Dec-2016

 -------------
 #p 6-31g* mp2
 -------------

 ------------------------------------------------------
 Input file generated by CHIRIPA (05-May-2021 14:53:11)
 ------------------------------------------------------
 Symbolic Z-matrix:
 Charge =  0 Multiplicity = 1

                         Standard orientation:
 ---------------------------------------------------------------------
 Center     Atomic      Atomic             Coordinates (Angstroms)
 Number     Number       Type             X           Y           Z
 ---------------------------------------------------------------------
      1          6           0       -4.159708    0.178653   -0.376161
      2          6           0       -4.685090   -1.158685    0.146796
      3          6           0       -5.716238   -1.794329   -0.786202
      4          1           0       -5.003913    0.867684   -0.515798
      5          1           0       -3.713054    0.026427   -1.368493
      6          1           0       -5.129382   -1.004233    1.138444
      7          1           0       -3.839514   -1.844549    0.285386
      8          1           0       -5.281021   -1.977066   -1.774025
      9          1           0       -6.578217   -1.131974   -0.916120
     10          1           0       -6.078464   -2.749386   -0.393114
     11          6           0       -3.128036    0.826473    0.545636
     12          6           0       -2.602653    2.163812    0.022679
     13          6           0       -1.571506    2.799455    0.955677
     14          1           0       -3.574690    0.978700    1.537968
     15          1           0       -2.283830    0.137443    0.685273
     16          1           0       -3.448229    2.849676   -0.115911
     17          1           0       -2.158361    2.009359   -0.968969
     18          1           0       -0.709526    2.137101    1.085595
     19          1           0       -2.006723    2.982192    1.943500
     20          1           0       -1.209280    3.754513    0.562589
     21          6           0        0.465276   -1.168234    0.238464
     22          6           0        0.752105   -0.115706   -0.636999
     23          6           0        2.067954    0.322343   -0.813647
     24          6           0        3.077009   -0.317645   -0.095655
     25          6           0        2.823145   -1.368940    0.783902
     26          6           0        1.499887   -1.790395    0.944875
     27          1           0       -0.559784   -1.502075    0.369600
     28          1           0       -0.049375    0.369333   -1.186918
     29          1           0        2.318165    1.134848   -1.484950
     30          1           0        3.643301   -1.832849    1.318273
     31          1           0        1.280083   -2.608045    1.625447
     32          7           0        4.473961    0.137314   -0.274367
     33          8           0        5.345042   -0.443065    0.369849
     34          8           0        4.671359    1.065676   -1.055274
 ---------------------------------------------------------------------

 SCF Done:  E(RHF) =  -669.535034758     A.U. after   15 cycles
 E2 =    -0.2093215483D+01 EUMP2 =    -0.67162825024093D+03

 The electronic state is 1-A.
 Alpha  occ. eigenvalues --  -20.60788 -20.60782 -15.85842 -11.31231 -11.27803
 Alpha  occ. eigenvalues --  -11.27797 -11.27537 -11.26818 -11.26807 -11.22569
 Alpha  occ. eigenvalues --  -11.22562 -11.22451 -11.22348 -11.21842 -11.21704
 Alpha  occ. eigenvalues --   -1.59862  -1.39415  -1.19409  -1.09425  -1.08797
 Alpha  occ. eigenvalues --   -1.04818  -1.04406  -0.96829  -0.95631  -0.87837
 Alpha  occ. eigenvalues --   -0.86210  -0.82463  -0.80478  -0.79246  -0.77503
 Alpha  occ. eigenvalues --   -0.72060  -0.71185  -0.70548  -0.66171  -0.65054
 Alpha  occ. eigenvalues --   -0.64751  -0.62253  -0.61690  -0.60196  -0.58448
 Alpha  occ. eigenvalues --   -0.56190  -0.55285  -0.53483  -0.53250  -0.53122
 Alpha  occ. eigenvalues --   -0.52887  -0.50768  -0.48829  -0.48814  -0.48763
 Alpha  occ. eigenvalues --   -0.47539  -0.46750  -0.46712  -0.44816  -0.44685
 Alpha  occ. eigenvalues --   -0.37364  -0.36397
 Alpha virt. eigenvalues --    0.05010   0.11119   0.16429   0.18323   0.22456
 Alpha virt. eigenvalues --    0.23237   0.24854   0.25336   0.27090   0.28233
 Alpha virt. eigenvalues --    0.29724   0.30678   0.30941   0.31303   0.32011

 Mulliken charges:
               1
     1  C   -0.298797
     2  C   -0.299268
     3  C   -0.476163
     4  H    0.154588
     5  H    0.146660
     6  H    0.155185
     7  H    0.144314
     8  H    0.155801
     9  H    0.158076
    10  H    0.162428
    11  C   -0.303693
    12  C   -0.301448
    13  C   -0.481320
    14  H    0.154986
    15  H    0.142438
    16  H    0.157358
    17  H    0.144650
    18  H    0.159711
    19  H    0.157870
    20  H    0.163319
    21  C   -0.174863
    22  C   -0.221032
    23  C   -0.172250
    24  C    0.158651
    25  C   -0.170571
    26  C   -0.218876
    27  H    0.229214
    28  H    0.229245
    29  H    0.276267
    30  H    0.275862
    31  H    0.223993
    32  N    0.488093
    33  O   -0.460269
    34  O   -0.460158
 Sum of Mulliken charges =  -0.00000

 Dipole moment (field-independent basis, Debye):
    X=             -5.0549    Y=             -1.5448    Z=              0.6761  Tot=              5.3288
 Quadrupole moment (field-independent basis, Debye-Ang):
   XX=           -124.1615   YY=            -91.5947   ZZ=            -93.2637
   XY=             -5.5813   XZ=              2.6928   YZ=             -2.6761

 Normal termination of Gaussian 16 at Thu May  6 04:04:09 2021.
