 Gaussian 16, Revision A.03,
 Gaussian 16:  EM64L-G16RevA.03 25-Dec-2016

 -------------
 #p 6-31g* mp2
 -------------

 ------------------------------------------------------
 Input file generated by CHIRIPA (05-May-2021 14:51:07)
 ------------------------------------------------------
 Symbolic Z-matrix:
 Charge =  0 Multiplicity = 1

                         Standard orientation:
 ---------------------------------------------------------------------
 Center     Atomic      Atomic             Coordinates (Angstroms)
 Number     Number       Type             X           Y           Z
 ---------------------------------------------------------------------
      1          6           0       -3.655018    0.382874   -0.077264
      2          6           0       -3.379738    1.809562    0.398935
      3          6           0       -4.638644    2.676853    0.426436
      4          1           0       -4.100065    0.417621   -1.081092
      5          1           0       -4.404464   -0.077813    0.581138
      6          1           0       -2.630013    2.266946   -0.259342
      7          1           0       -2.935118    1.771406    1.401667
      8          1           0       -5.388468    2.246310    1.097999
      9          1           0       -5.081630    2.744666   -0.572447
     10          1           0       -4.418979    3.692579    0.769814
     11          6           0       -2.406193   -0.496376   -0.110184
     12          6           0       -2.681472   -1.923065   -0.586383
     13          6           0       -1.422566   -2.790356   -0.613884
     14          1           0       -1.656746   -0.035690   -0.768586
     15          1           0       -1.961145   -0.531124    0.893644
     16          1           0       -3.126093   -1.884909   -1.589116
     17          1           0       -3.431198   -2.380449    0.071893
     18          1           0       -0.979581   -2.858168    0.384999
     19          1           0       -0.672743   -2.359813   -1.285448
     20          1           0       -1.642232   -3.806081   -0.957262
     21          6           0        3.107491   -0.631917    0.415060
     22          6           0        1.940958   -1.574168    0.116148
     23          6           0        2.109288   -2.947972    0.765855
     24          1           0        4.041510   -1.092566    0.065266
     25          1           0        3.205289   -0.514441    1.503191
     26          1           0        1.844518   -1.688740   -0.971139
     27          1           0        1.009583   -1.111138    0.466520
     28          1           0        2.183139   -2.853046    1.854035
     29          1           0        3.022818   -3.433930    0.408209
     30          1           0        1.264210   -3.605504    0.539240
     31          6           0        2.953720    0.745420   -0.227612
     32          6           0        4.120253    1.687670    0.071301
     33          6           0        3.951922    3.061475   -0.578406
     34          1           0        2.855923    0.627943   -1.315743
     35          1           0        2.019700    1.206069    0.122181
     36          1           0        5.051628    1.224641   -0.279071
     37          1           0        4.216692    1.802242    1.158586
     38          1           0        3.038393    3.547432   -0.220761
     39          1           0        3.878072    2.966548   -1.666586
     40          1           0        4.797000    3.719007   -0.351792
 ---------------------------------------------------------------------

 SCF Done:  E(RHF) =  -470.731823014     A.U. after   11 cycles
 E2 =    -0.1584233782D+01 EUMP2 =    -0.47231605679571D+03

 The electronic state is 1-A.
 Alpha  occ. eigenvalues --  -11.21621 -11.21584 -11.21574 -11.21475 -11.21421
 Alpha  occ. eigenvalues --  -11.21362 -11.21352 -11.21282 -11.21085 -11.21054
 Alpha  occ. eigenvalues --  -11.20973 -11.20933  -1.08454  -1.08361  -1.03593
 Alpha  occ. eigenvalues --   -1.03411  -0.96065  -0.95843  -0.87043  -0.86900
 Alpha  occ. eigenvalues --   -0.79705  -0.79465  -0.78349  -0.78082  -0.65090
 Alpha  occ. eigenvalues --   -0.64990  -0.61014  -0.60802  -0.59478  -0.59260
 Alpha  occ. eigenvalues --   -0.57897  -0.57224  -0.55340  -0.55151  -0.52828
 Alpha  occ. eigenvalues --   -0.52614  -0.52466  -0.52070  -0.49934  -0.49863
 Alpha  occ. eigenvalues --   -0.48005  -0.47740  -0.46703  -0.46509  -0.45985
 Alpha  occ. eigenvalues --   -0.45771  -0.45589  -0.45413  -0.43818  -0.43680
 Alpha virt. eigenvalues --    0.21727   0.23183   0.23473   0.24773   0.25678
 Alpha virt. eigenvalues --    0.26185   0.26795   0.27282   0.28668   0.29444
 Alpha virt. eigenvalues --    0.29903   0.30739   0.31322   0.31621   0.32286

 Mulliken charges:
               1
     1  C   -0.298205
     2  C   -0.299705
     3  C   -0.475694
     4  H    0.149861
     5  H    0.149581
     6  H    0.152020
     7  H    0.151578
     8  H    0.155217
     9  H    0.155295
    10  H    0.160263
    11  C   -0.299780
    12  C   -0.299987
    13  C   -0.480227
    14  H    0.150801
    15  H    0.149174
    16  H    0.151595
    17  H    0.151515
    18  H    0.158208
    19  H    0.160421
    20  H    0.158972
    21  C   -0.297990
    22  C   -0.302011
    23  C   -0.481178
    24  H    0.149207
    25  H    0.149024
    26  H    0.150793
    27  H    0.156894
    28  H    0.153780
    29  H    0.154677
    30  H    0.166753
    31  C   -0.298398
    32  C   -0.299509
    33  C   -0.475691
    34  H    0.148819
    35  H    0.149859
    36  H    0.151901
    37  H    0.151889
    38  H    0.155143
    39  H    0.154969
    40  H    0.160169
 Sum of Mulliken charges =  -0.00000

 Dipole moment (field-independent basis, Debye):
    X=             -0.0301    Y=             -0.0133    Z=             -0.0115  Tot=              0.0348
 Quadrupole moment (field-independent basis, Debye-Ang):
   XX=            -85.4280   YY=            -86.2695   ZZ=            -83.3187
   XY=              0.4551   XZ=             -0.5450   YZ=              0.3809

 Normal termination of Gaussian 16 at Wed May  5 22:53:17 2021.
