 Gaussian 16, Revision A.03,
 Gaussian 16:  EM64L-G16RevA.03 25-Dec-2016

 -------------
 #p 6-31g* mp2
 -------------

 ------------------------------------------------------
 Input file generated by CHIRIPA (05-May-2021 14:57:22)
 ------------------------------------------------------
 Symbolic Z-matrix:
 Charge =  0 Multiplicity = 1

                         Standard orientation:
 ---------------------------------------------------------------------
 Center     Atomic      Atomic             Coordinates (Angstroms)
 Number     Number       Type             X           Y           Z
 ---------------------------------------------------------------------
      1          6           0       -3.807803   -2.290512    0.225730
      2          6           0       -2.485527   -1.840508    0.300599
      3          6           0       -2.188806   -0.481749    0.158202
      4          6           0       -3.243650    0.403362   -0.058993
      5          6           0       -4.571294   -0.014167   -0.138508
      6          6           0       -4.844638   -1.377514    0.006801
      7          1           0       -4.029223   -3.347811    0.337479
      8          1           0       -1.678289   -2.547285    0.470537
      9          1           0       -1.174169   -0.106176    0.211821
     10          1           0       -5.354724    0.714291   -0.308816
     11          1           0       -5.872480   -1.724142   -0.051799
     12          7           0       -2.941899    1.844248   -0.211284
     13          8           0       -3.889171    2.603847   -0.401868
     14          8           0       -1.763828    2.186732   -0.137183
     15          6           0        4.023869    2.239507    0.249302
     16          6           0        2.729876    1.864540    0.625474
     17          6           0        2.314311    0.534645    0.510439
     18          6           0        3.222761   -0.398431    0.013069
     19          6           0        4.518593   -0.055915   -0.370070
     20          6           0        4.912529    1.279774   -0.246395
     21          1           0        4.338288    3.274852    0.342020
     22          1           0        2.037597    2.607741    1.010763
     23          1           0        1.318365    0.216940    0.794292
     24          1           0        5.186222   -0.819317   -0.750738
     25          1           0        5.918071    1.568105   -0.539307
     26          7           0        2.794270   -1.809398   -0.113287
     27          8           0        3.613586   -2.612408   -0.554346
     28          8           0        1.647215   -2.085588    0.231128
 ---------------------------------------------------------------------

 SCF Done:  E(RHF) =  -868.340706475     A.U. after   16 cycles
 E2 =    -0.2599092871D+01 EUMP2 =    -0.87093979934620D+03

 The electronic state is 1-A.
 Alpha  occ. eigenvalues --  -20.61229 -20.61171 -20.60875 -20.60834 -15.86237
 Alpha  occ. eigenvalues --  -15.85895 -11.31247 -11.30956 -11.27775 -11.27751
 Alpha  occ. eigenvalues --  -11.27480 -11.27446 -11.27379 -11.27094 -11.26714
 Alpha  occ. eigenvalues --  -11.26588 -11.26460 -11.26236  -1.60260  -1.59927
 Alpha  occ. eigenvalues --   -1.39832  -1.39495  -1.19362  -1.19072  -1.08816
 Alpha  occ. eigenvalues --   -1.08519  -1.04700  -1.04402  -0.95723  -0.95416
 Alpha  occ. eigenvalues --   -0.86126  -0.85823  -0.82572  -0.82240  -0.77689
 Alpha  occ. eigenvalues --   -0.77312  -0.72481  -0.72132  -0.71558  -0.71236
 Alpha  occ. eigenvalues --   -0.70494  -0.70177  -0.65014  -0.64720  -0.64698
 Alpha  occ. eigenvalues --   -0.64353  -0.62121  -0.61684  -0.55218  -0.54917
 Alpha  occ. eigenvalues --   -0.53052  -0.52815  -0.52775  -0.52420  -0.49249
 Alpha  occ. eigenvalues --   -0.49170  -0.48901  -0.48839  -0.45312  -0.44967
 Alpha  occ. eigenvalues --   -0.37312  -0.37039  -0.36275  -0.35994
 Alpha virt. eigenvalues --    0.04825   0.05154   0.11342   0.11647   0.16438
 Alpha virt. eigenvalues --    0.16744   0.19833   0.22413   0.25048   0.27829
 Alpha virt. eigenvalues --    0.28378   0.29878   0.31233   0.31432   0.31817

 Mulliken charges:
               1
     1  C   -0.171166
     2  C   -0.224965
     3  C   -0.177416
     4  C    0.158364
     5  C   -0.171555
     6  C   -0.218633
     7  H    0.227022
     8  H    0.243638
     9  H    0.278392
    10  H    0.273707
    11  H    0.222427
    12  N    0.488072
    13  O   -0.459377
    14  O   -0.470121
    15  C   -0.170359
    16  C   -0.219335
    17  C   -0.173236
    18  C    0.157325
    19  C   -0.170867
    20  C   -0.218374
    21  H    0.227947
    22  H    0.235554
    23  H    0.276452
    24  H    0.274644
    25  H    0.223713
    26  N    0.490755
    27  O   -0.456894
    28  O   -0.475713
 Sum of Mulliken charges =  -0.00000

 Dipole moment (field-independent basis, Debye):
    X=              0.6088    Y=             -0.1163    Z=              0.9916  Tot=              1.1694
 Quadrupole moment (field-independent basis, Debye-Ang):
   XX=            -79.1612   YY=           -112.9809   ZZ=           -105.7921
   XY=             30.3928   XZ=             -1.4545   YZ=              0.8748

 Normal termination of Gaussian 16 at Thu May  6 03:22:53 2021.
