 Gaussian 16, Revision A.03,
 Gaussian 16:  EM64L-G16RevA.03 25-Dec-2016

 -------------
 #p 6-31g* mp2
 -------------

 ------------------------------------------------------
 Input file generated by CHIRIPA (05-May-2021 14:53:17)
 ------------------------------------------------------
 Symbolic Z-matrix:
 Charge =  0 Multiplicity = 1

                         Standard orientation:
 ---------------------------------------------------------------------
 Center     Atomic      Atomic             Coordinates (Angstroms)
 Number     Number       Type             X           Y           Z
 ---------------------------------------------------------------------
      1          6           0        2.557180   -0.690659   -0.367939
      2          6           0        3.329546   -1.685838    0.498694
      3          6           0        2.768219   -3.105402    0.411839
      4          1           0        1.502237   -0.688735   -0.061285
      5          1           0        2.578437   -1.031079   -1.412476
      6          1           0        3.308012   -1.342914    1.541074
      7          1           0        4.382811   -1.685252    0.190069
      8          1           0        2.804715   -3.471678   -0.619234
      9          1           0        1.723810   -3.127395    0.739446
     10          1           0        3.335218   -3.800391    1.039025
     11          6           0        3.106414    0.732807   -0.291692
     12          6           0        2.334048    1.727987   -1.158326
     13          6           0        2.895375    3.147551   -1.071470
     14          1           0        3.085157    1.073228    0.752845
     15          1           0        4.161358    0.730884   -0.598346
     16          1           0        1.280784    1.727401   -0.849701
     17          1           0        2.355582    1.385063   -2.200705
     18          1           0        3.939785    3.169543   -1.399078
     19          1           0        2.858879    3.513827   -0.040397
     20          1           0        2.328376    3.842540   -1.698656
     21          6           0       -1.063984    0.964562    2.278754
     22          6           0       -2.168645    1.613597    1.717505
     23          6           0       -2.812723    1.079153    0.597647
     24          6           0       -2.323361   -0.111306    0.062277
     25          6           0       -1.225019   -0.781522    0.598698
     26          6           0       -0.596521   -0.228822    1.718545
     27          1           0       -0.569700    1.386823    3.148682
     28          1           0       -2.533868    2.540530    2.150463
     29          1           0       -3.669908    1.560819    0.143062
     30          1           0       -0.883963   -1.704112    0.144904
     31          1           0        0.261165   -0.735051    2.152312
     32          7           0       -2.996970   -0.686762   -1.123260
     33          8           0       -2.546410   -1.736761   -1.576181
     34          8           0       -3.962750   -0.076910   -1.577117
 ---------------------------------------------------------------------

 SCF Done:  E(RHF) =  -669.534220560     A.U. after   15 cycles
 E2 =    -0.2094317620D+01 EUMP2 =    -0.67162853818093D+03

 The electronic state is 1-A.
 Alpha  occ. eigenvalues --  -20.60814 -20.60808 -15.85869 -11.31276 -11.27846
 Alpha  occ. eigenvalues --  -11.27841 -11.27599 -11.26874 -11.26863 -11.22196
 Alpha  occ. eigenvalues --  -11.21832 -11.21775 -11.21716 -11.21707 -11.21329
 Alpha  occ. eigenvalues --   -1.59888  -1.39440  -1.19466  -1.08889  -1.08818
 Alpha  occ. eigenvalues --   -1.04886  -1.03961  -0.96409  -0.95672  -0.87427
 Alpha  occ. eigenvalues --   -0.86261  -0.82523  -0.80018  -0.78678  -0.77532
 Alpha  occ. eigenvalues --   -0.72087  -0.71212  -0.70563  -0.65633  -0.65092
 Alpha  occ. eigenvalues --   -0.64824  -0.62253  -0.61312  -0.59771  -0.58012
 Alpha  occ. eigenvalues --   -0.55747  -0.55360  -0.53272  -0.53069  -0.52954
 Alpha  occ. eigenvalues --   -0.52802  -0.50373  -0.48850  -0.48840  -0.48328
 Alpha  occ. eigenvalues --   -0.47070  -0.46185  -0.46119  -0.44834  -0.44193
 Alpha  occ. eigenvalues --   -0.37441  -0.36360
 Alpha virt. eigenvalues --    0.04959   0.11123   0.16312   0.18968   0.22945
 Alpha virt. eigenvalues --    0.23521   0.25604   0.26074   0.27810   0.28332
 Alpha virt. eigenvalues --    0.29054   0.30002   0.31281   0.31452   0.32320

 Mulliken charges:
               1
     1  C   -0.307759
     2  C   -0.301346
     3  C   -0.475617
     4  H    0.152279
     5  H    0.154810
     6  H    0.144976
     7  H    0.156117
     8  H    0.162163
     9  H    0.145775
    10  H    0.163054
    11  C   -0.296167
    12  C   -0.302004
    13  C   -0.475599
    14  H    0.143546
    15  H    0.151192
    16  H    0.154898
    17  H    0.155144
    18  H    0.155859
    19  H    0.152008
    20  H    0.161878
    21  C   -0.172231
    22  C   -0.218613
    23  C   -0.171145
    24  C    0.157714
    25  C   -0.171849
    26  C   -0.219551
    27  H    0.226191
    28  H    0.224025
    29  H    0.276078
    30  H    0.278708
    31  H    0.227292
    32  N    0.488129
    33  O   -0.459698
    34  O   -0.460256
 Sum of Mulliken charges =  -0.00000

 Dipole moment (field-independent basis, Debye):
    X=              2.3554    Y=              2.0286    Z=              4.0726  Tot=              5.1233
 Quadrupole moment (field-independent basis, Debye-Ang):
   XX=           -103.6712   YY=            -93.6324   ZZ=            -94.2411
   XY=             -8.5503   XZ=            -10.4267   YZ=              0.0443

 Normal termination of Gaussian 16 at Thu May  6 07:34:27 2021.
