 Gaussian 16, Revision A.03,
 Gaussian 16:  EM64L-G16RevA.03 25-Dec-2016

 -------------
 #p 6-31g* mp2
 -------------

 ------------------------------------------------------
 Input file generated by CHIRIPA (05-May-2021 14:51:13)
 ------------------------------------------------------
 Symbolic Z-matrix:
 Charge =  0 Multiplicity = 1

                         Standard orientation:
 ---------------------------------------------------------------------
 Center     Atomic      Atomic             Coordinates (Angstroms)
 Number     Number       Type             X           Y           Z
 ---------------------------------------------------------------------
      1          6           0        3.028579   -0.361635    0.069327
      2          6           0        3.292829   -1.848410   -0.170793
      3          6           0        2.039898   -2.707219    0.003580
      4          1           0        2.627555   -0.226066    1.083105
      5          1           0        2.248247   -0.018405   -0.623976
      6          1           0        4.073412   -2.188407    0.521817
      7          1           0        3.693450   -1.980435   -1.184049
      8          1           0        1.258827   -2.395922   -0.697578
      9          1           0        1.640947   -2.605076    1.017980
     10          1           0        2.251500   -3.766470   -0.172691
     11          6           0        4.271591    0.509881   -0.101287
     12          6           0        4.007342    1.996656    0.138832
     13          6           0        5.260272    2.855465   -0.035541
     14          1           0        5.051924    0.166651    0.592015
     15          1           0        4.672615    0.374312   -1.115065
     16          1           0        3.606720    2.128681    1.152088
     17          1           0        3.226758    2.336653   -0.553777
     18          1           0        5.659223    2.753322   -1.049940
     19          1           0        6.041343    2.544168    0.665618
     20          1           0        5.048670    3.914716    0.140731
     21          6           0       -3.991652    0.522082    0.349601
     22          6           0       -4.998603    1.229756   -0.557721
     23          6           0       -5.673641    2.420378    0.123847
     24          1           0       -4.503622    0.183027    1.260576
     25          1           0       -3.227587    1.243582    0.670593
     26          1           0       -5.759766    0.506807   -0.878021
     27          1           0       -4.484218    1.566997   -1.466727
     28          1           0       -4.928998    3.162846    0.428558
     29          1           0       -6.211793    2.096633    1.020610
     30          1           0       -6.389491    2.911578   -0.542592
     31          6           0       -3.308518   -0.670328   -0.317641
     32          6           0       -2.301567   -1.378002    0.589681
     33          6           0       -1.626530   -2.568625   -0.091887
     34          1           0       -4.072583   -1.391829   -0.638633
     35          1           0       -2.796549   -0.331273   -1.228616
     36          1           0       -2.815952   -1.715242    1.498687
     37          1           0       -1.540404   -0.655053    0.909981
     38          1           0       -1.088377   -2.244879   -0.988650
     39          1           0       -2.371172   -3.311093   -0.396598
     40          1           0       -0.910679   -3.059824    0.574553
 ---------------------------------------------------------------------

 SCF Done:  E(RHF) =  -470.732012133     A.U. after   11 cycles
 E2 =    -0.1583061992D+01 EUMP2 =    -0.47231507412559D+03

 The electronic state is 1-A.
 Alpha  occ. eigenvalues --  -11.21612 -11.21586 -11.21552 -11.21543 -11.21405
 Alpha  occ. eigenvalues --  -11.21377 -11.21346 -11.21317 -11.21079 -11.21059
 Alpha  occ. eigenvalues --  -11.20946 -11.20931  -1.08426  -1.08392  -1.03549
 Alpha  occ. eigenvalues --   -1.03452  -0.96055  -0.95851  -0.87128  -0.86817
 Alpha  occ. eigenvalues --   -0.79690  -0.79448  -0.78244  -0.78204  -0.65077
 Alpha  occ. eigenvalues --   -0.65012  -0.61023  -0.60807  -0.59354  -0.59312
 Alpha  occ. eigenvalues --   -0.57672  -0.57460  -0.55451  -0.55065  -0.52918
 Alpha  occ. eigenvalues --   -0.52610  -0.52377  -0.52115  -0.50112  -0.49674
 Alpha  occ. eigenvalues --   -0.47898  -0.47820  -0.46721  -0.46443  -0.45795
 Alpha  occ. eigenvalues --   -0.45744  -0.45703  -0.45625  -0.43806  -0.43669
 Alpha virt. eigenvalues --    0.21969   0.23096   0.23590   0.25003   0.26044
 Alpha virt. eigenvalues --    0.26600   0.27048   0.27461   0.27684   0.29178
 Alpha virt. eigenvalues --    0.29556   0.31239   0.31755   0.31912   0.32471

 Mulliken charges:
               1
     1  C   -0.297979
     2  C   -0.300405
     3  C   -0.478402
     4  H    0.149396
     5  H    0.148560
     6  H    0.151371
     7  H    0.151508
     8  H    0.162116
     9  H    0.153758
    10  H    0.159602
    11  C   -0.298179
    12  C   -0.299613
    13  C   -0.475693
    14  H    0.149656
    15  H    0.149647
    16  H    0.151877
    17  H    0.151639
    18  H    0.155195
    19  H    0.155253
    20  H    0.160213
    21  C   -0.298257
    22  C   -0.299597
    23  C   -0.475685
    24  H    0.149585
    25  H    0.149524
    26  H    0.151894
    27  H    0.151787
    28  H    0.155159
    29  H    0.155157
    30  H    0.160171
    31  C   -0.298307
    32  C   -0.300508
    33  C   -0.477910
    34  H    0.149511
    35  H    0.149256
    36  H    0.151574
    37  H    0.152220
    38  H    0.154199
    39  H    0.153962
    40  H    0.166745
 Sum of Mulliken charges =  -0.00000

 Dipole moment (field-independent basis, Debye):
    X=             -0.0013    Y=             -0.0254    Z=              0.0027  Tot=              0.0256
 Quadrupole moment (field-independent basis, Debye-Ang):
   XX=            -85.4108   YY=            -85.7172   ZZ=            -83.8129
   XY=              0.3562   XZ=              0.2094   YZ=             -0.5925

 Normal termination of Gaussian 16 at Wed May  5 23:12:04 2021.
