 Gaussian 16, Revision A.03,
 Gaussian 16:  EM64L-G16RevA.03 25-Dec-2016

 -------------
 #p 6-31g* mp2
 -------------

 ------------------------------------------------------
 Input file generated by CHIRIPA (05-May-2021 14:55:21)
 ------------------------------------------------------
 Symbolic Z-matrix:
 Charge =  0 Multiplicity = 1

                         Standard orientation:
 ---------------------------------------------------------------------
 Center     Atomic      Atomic             Coordinates (Angstroms)
 Number     Number       Type             X           Y           Z
 ---------------------------------------------------------------------
      1          6           0        1.083155   -1.799408    0.905775
      2          6           0        0.788672   -0.708035    0.081940
      3          6           0        1.813684    0.098318   -0.421741
      4          6           0        3.127838   -0.216984   -0.079870
      5          6           0        3.453272   -1.297476    0.738616
      6          6           0        2.412173   -2.090133    1.230911
      7          1           0        0.280653   -2.420482    1.292624
      8          1           0       -0.242537   -0.479882   -0.172223
      9          1           0        1.613971    0.949284   -1.061575
     10          1           0        4.490959   -1.499917    0.974504
     11          1           0        2.643835   -2.937072    1.870497
     12          7           0        4.221488    0.629416   -0.607067
     13          8           0        5.371048    0.330535   -0.291125
     14          8           0        3.908423    1.575679   -1.326243
     15          6           0       -3.153531    0.900664    0.039286
     16          6           0       -3.416907    2.233937    0.740001
     17          6           0       -2.168251    3.111867    0.828830
     18          1           0       -2.361787    0.361240    0.576973
     19          1           0       -2.768373    1.095298   -0.971241
     20          1           0       -3.802760    2.036847    1.748411
     21          1           0       -4.208251    2.770165    0.200694
     22          1           0       -1.784140    3.337660   -0.171209
     23          1           0       -1.376345    2.600177    1.385301
     24          1           0       -2.379151    4.059967    1.333300
     25          6           0       -4.392302    0.011926   -0.057254
     26          6           0       -4.128926   -1.321347   -0.757969
     27          6           0       -5.377582   -2.199278   -0.846798
     28          1           0       -4.777460   -0.182708    0.953274
     29          1           0       -5.184047    0.551349   -0.594940
     30          1           0       -3.337582   -1.857575   -0.218662
     31          1           0       -3.743074   -1.124258   -1.766378
     32          1           0       -6.169488   -1.687588   -1.403269
     33          1           0       -5.761693   -2.425071    0.153241
     34          1           0       -5.166682   -3.147376   -1.351267
 ---------------------------------------------------------------------

 SCF Done:  E(RHF) =  -669.535674434     A.U. after   15 cycles
 E2 =    -0.2091456719D+01 EUMP2 =    -0.67162713115340D+03

 The electronic state is 1-A.
 Alpha  occ. eigenvalues --  -20.60711 -20.60706 -15.85763 -11.31119 -11.27692
 Alpha  occ. eigenvalues --  -11.27669 -11.27429 -11.26711 -11.26630 -11.22509
 Alpha  occ. eigenvalues --  -11.22422 -11.22309 -11.22220 -11.21787 -11.21658
 Alpha  occ. eigenvalues --   -1.59786  -1.39340  -1.19288  -1.09302  -1.08687
 Alpha  occ. eigenvalues --   -1.04685  -1.04297  -0.96740  -0.95524  -0.87752
 Alpha  occ. eigenvalues --   -0.86088  -0.82355  -0.80369  -0.79173  -0.77393
 Alpha  occ. eigenvalues --   -0.71982  -0.71109  -0.70404  -0.65949  -0.64938
 Alpha  occ. eigenvalues --   -0.64679  -0.62045  -0.61680  -0.60109  -0.58361
 Alpha  occ. eigenvalues --   -0.56023  -0.55197  -0.53396  -0.53216  -0.53021
 Alpha  occ. eigenvalues --   -0.52735  -0.50674  -0.48752  -0.48737  -0.48668
 Alpha  occ. eigenvalues --   -0.47405  -0.46643  -0.46596  -0.44747  -0.44583
 Alpha  occ. eigenvalues --   -0.37275  -0.36285
 Alpha virt. eigenvalues --    0.05125   0.11311   0.16589   0.19783   0.22638
 Alpha virt. eigenvalues --    0.23499   0.24923   0.25812   0.27152   0.28261
 Alpha virt. eigenvalues --    0.29465   0.30619   0.31000   0.31220   0.31564

 Mulliken charges:
               1
     1  C   -0.172870
     2  C   -0.226272
     3  C   -0.172765
     4  C    0.158841
     5  C   -0.171356
     6  C   -0.218429
     7  H    0.224744
     8  H    0.235105
     9  H    0.275934
    10  H    0.275328
    11  H    0.223011
    12  N    0.488045
    13  O   -0.460731
    14  O   -0.460454
    15  C   -0.304607
    16  C   -0.299367
    17  C   -0.477905
    18  H    0.143888
    19  H    0.149467
    20  H    0.153822
    21  H    0.155438
    22  H    0.155839
    23  H    0.155271
    24  H    0.164823
    25  C   -0.297911
    26  C   -0.299953
    27  C   -0.476051
    28  H    0.151442
    29  H    0.153973
    30  H    0.143882
    31  H    0.153483
    32  H    0.158233
    33  H    0.156245
    34  H    0.161861
 Sum of Mulliken charges =  -0.00000

 Dipole moment (field-independent basis, Debye):
    X=             -4.0937    Y=             -2.8853    Z=              1.8520  Tot=              5.3398
 Quadrupole moment (field-independent basis, Debye-Ang):
   XX=           -116.6277   YY=            -92.3405   ZZ=            -93.7424
   XY=            -11.6370   XZ=              8.1612   YZ=             -2.1673

 Normal termination of Gaussian 16 at Thu May  6 14:09:38 2021.
