 Gaussian 16, Revision A.03,
 Gaussian 16:  EM64L-G16RevA.03 25-Dec-2016

 -------------
 #p 6-31g* mp2
 -------------

 ------------------------------------------------------
 Input file generated by CHIRIPA (05-May-2021 14:53:13)
 ------------------------------------------------------
 Symbolic Z-matrix:
 Charge =  0 Multiplicity = 1

                         Standard orientation:
 ---------------------------------------------------------------------
 Center     Atomic      Atomic             Coordinates (Angstroms)
 Number     Number       Type             X           Y           Z
 ---------------------------------------------------------------------
      1          6           0       -2.960948    1.232640    0.251108
      2          6           0       -1.613893    1.181331   -0.470553
      3          6           0       -0.720046    2.376872   -0.139623
      4          1           0       -3.478039    2.164171   -0.016866
      5          1           0       -2.786904    1.272516    1.335320
      6          1           0       -1.790451    1.140167   -1.553027
      7          1           0       -1.100031    0.249724   -0.200980
      8          1           0       -0.514609    2.418518    0.934929
      9          1           0       -1.208951    3.314021   -0.424800
     10          1           0        0.237739    2.319974   -0.666186
     11          6           0       -3.865676    0.044215   -0.069578
     12          6           0       -5.212731    0.095523    0.652084
     13          6           0       -6.106578   -1.100017    0.321154
     14          1           0       -4.039720    0.004339   -1.153789
     15          1           0       -3.348585   -0.887317    0.198396
     16          1           0       -5.726593    1.027131    0.382510
     17          1           0       -5.036173    0.136687    1.734557
     18          1           0       -5.617673   -2.037166    0.606331
     19          1           0       -6.312015   -1.141663   -0.753398
     20          1           0       -7.064364   -1.043120    0.847717
     21          6           0        4.533816    1.014531    0.696899
     22          6           0        3.871723    1.275344   -0.507315
     23          6           0        2.835726    0.443591   -0.942568
     24          6           0        2.486139   -0.645072   -0.145139
     25          6           0        3.126719   -0.931223    1.059463
     26          6           0        4.159860   -0.085980    1.475072
     27          1           0        5.337494    1.665897    1.027385
     28          1           0        4.160015    2.129295   -1.113700
     29          1           0        2.306321    0.622301   -1.870583
     30          1           0        2.816926   -1.790088    1.642384
     31          1           0        4.672286   -0.290963    2.410725
     32          7           0        1.390888   -1.532752   -0.595525
     33          8           0        1.101821   -2.485445    0.125208
     34          8           0        0.842236   -1.259016   -1.660741
 ---------------------------------------------------------------------

 SCF Done:  E(RHF) =  -669.535617293     A.U. after   15 cycles
 E2 =    -0.2092558161D+01 EUMP2 =    -0.67162817545398D+03

 The electronic state is 1-A.
 Alpha  occ. eigenvalues --  -20.60906 -20.60886 -15.85920 -11.31262 -11.27831
 Alpha  occ. eigenvalues --  -11.27828 -11.27563 -11.26840 -11.26830 -11.21014
 Alpha  occ. eigenvalues --  -11.20853 -11.20758 -11.20735 -11.20624 -11.20501
 Alpha  occ. eigenvalues --   -1.59965  -1.39517  -1.19434  -1.08834  -1.07781
 Alpha  occ. eigenvalues --   -1.04835  -1.02953  -0.95678  -0.95436  -0.86459
 Alpha  occ. eigenvalues --   -0.86228  -0.82510  -0.78990  -0.77602  -0.77523
 Alpha  occ. eigenvalues --   -0.72148  -0.71297  -0.70544  -0.65089  -0.64836
 Alpha  occ. eigenvalues --   -0.64412  -0.62189  -0.60354  -0.58808  -0.57039
 Alpha  occ. eigenvalues --   -0.55334  -0.54736  -0.53186  -0.52929  -0.52135
 Alpha  occ. eigenvalues --   -0.51845  -0.49375  -0.48914  -0.48912  -0.47329
 Alpha  occ. eigenvalues --   -0.46044  -0.45274  -0.45058  -0.44640  -0.43199
 Alpha  occ. eigenvalues --   -0.37402  -0.36412
 Alpha virt. eigenvalues --    0.04931   0.11168   0.16430   0.21187   0.23405
 Alpha virt. eigenvalues --    0.24543   0.26913   0.27285   0.27774   0.28306
 Alpha virt. eigenvalues --    0.28830   0.30821   0.31510   0.31920   0.32453

 Mulliken charges:
               1
     1  C   -0.298570
     2  C   -0.299434
     3  C   -0.477013
     4  H    0.145956
     5  H    0.146345
     6  H    0.155644
     7  H    0.160442
     8  H    0.152463
     9  H    0.152754
    10  H    0.152729
    11  C   -0.299104
    12  C   -0.299212
    13  C   -0.475527
    14  H    0.150590
    15  H    0.157185
    16  H    0.149391
    17  H    0.150105
    18  H    0.157195
    19  H    0.155169
    20  H    0.157684
    21  C   -0.170333
    22  C   -0.218828
    23  C   -0.169822
    24  C    0.158313
    25  C   -0.171033
    26  C   -0.218349
    27  H    0.226014
    28  H    0.224044
    29  H    0.276027
    30  H    0.275628
    31  H    0.223719
    32  N    0.486822
    33  O   -0.460059
    34  O   -0.456934
 Sum of Mulliken charges =  -0.00000

 Dipole moment (field-independent basis, Debye):
    X=              3.9851    Y=              2.9605    Z=              1.5227  Tot=              5.1927
 Quadrupole moment (field-independent basis, Debye-Ang):
   XX=            -76.8770   YY=            -98.4997   ZZ=            -91.5015
   XY=              4.5778   XZ=              4.5248   YZ=             -4.7132

 Normal termination of Gaussian 16 at Thu May  6 13:43:15 2021.
