 Gaussian 16, Revision A.03,
 Gaussian 16:  EM64L-G16RevA.03 25-Dec-2016

 -------------
 #p 6-31g* mp2
 -------------

 ------------------------------------------------------
 Input file generated by CHIRIPA (05-May-2021 14:55:25)
 ------------------------------------------------------
 Symbolic Z-matrix:
 Charge =  0 Multiplicity = 1

                         Standard orientation:
 ---------------------------------------------------------------------
 Center     Atomic      Atomic             Coordinates (Angstroms)
 Number     Number       Type             X           Y           Z
 ---------------------------------------------------------------------
      1          6           0       -2.588045   -2.298160    0.405471
      2          6           0       -2.001656   -1.373584    1.276005
      3          6           0       -2.257106   -0.006157    1.136591
      4          6           0       -3.107725    0.403601    0.111001
      5          6           0       -3.707050   -0.493094   -0.772196
      6          6           0       -3.437373   -1.855744   -0.614053
      7          1           0       -2.384080   -3.358554    0.521046
      8          1           0       -1.341648   -1.714300    2.068689
      9          1           0       -1.816459    0.731221    1.796532
     10          1           0       -4.360678   -0.123209   -1.552820
     11          1           0       -3.894167   -2.571517   -1.291589
     12          7           0       -3.385689    1.848706   -0.046504
     13          8           0       -4.138717    2.184170   -0.958123
     14          8           0       -2.845267    2.618551    0.744646
     15          6           0        3.254804   -0.315261   -0.537566
     16          6           0        2.390504   -1.413403    0.082964
     17          6           0        1.064496   -1.608646   -0.652818
     18          1           0        2.692248    0.628387   -0.539045
     19          1           0        3.451353   -0.563636   -1.589742
     20          1           0        2.196798   -1.163722    1.134036
     21          1           0        2.955256   -2.354504    0.083141
     22          1           0        1.240616   -1.881902   -1.698243
     23          1           0        0.477848   -0.684354   -0.641377
     24          1           0        0.462454   -2.398306   -0.192554
     25          6           0        4.583695   -0.108239    0.186948
     26          6           0        5.447994    0.989902   -0.433581
     27          6           0        6.774003    1.185145    0.302201
     28          1           0        4.387145    0.140134    1.239125
     29          1           0        5.146251   -1.051888    0.188428
     30          1           0        4.883242    1.931003   -0.433758
     31          1           0        5.641701    0.740222   -1.484654
     32          1           0        7.360650    0.260853    0.290760
     33          1           0        6.597883    1.458401    1.347626
     34          1           0        7.376044    1.974805   -0.158064
 ---------------------------------------------------------------------

 SCF Done:  E(RHF) =  -669.534580118     A.U. after   15 cycles
 E2 =    -0.2092466826D+01 EUMP2 =    -0.67162704694475D+03

 The electronic state is 1-A.
 Alpha  occ. eigenvalues --  -20.60786 -20.60781 -15.85839 -11.31212 -11.27752
 Alpha  occ. eigenvalues --  -11.27745 -11.27483 -11.26784 -11.26767 -11.21969
 Alpha  occ. eigenvalues --  -11.21699 -11.21610 -11.21536 -11.21361 -11.21150
 Alpha  occ. eigenvalues --   -1.59862  -1.39415  -1.19372  -1.08774  -1.08639
 Alpha  occ. eigenvalues --   -1.04776  -1.03748  -0.96192  -0.95604  -0.87213
 Alpha  occ. eigenvalues --   -0.86169  -0.82435  -0.79818  -0.78446  -0.77483
 Alpha  occ. eigenvalues --   -0.72057  -0.71185  -0.70481  -0.65277  -0.65026
 Alpha  occ. eigenvalues --   -0.64783  -0.62127  -0.61153  -0.59597  -0.57809
 Alpha  occ. eigenvalues --   -0.55518  -0.55275  -0.53397  -0.52872  -0.52615
 Alpha  occ. eigenvalues --   -0.52581  -0.50089  -0.48816  -0.48812  -0.48134
 Alpha  occ. eigenvalues --   -0.46846  -0.45987  -0.45908  -0.44820  -0.44019
 Alpha  occ. eigenvalues --   -0.37290  -0.36319
 Alpha virt. eigenvalues --    0.05015   0.11228   0.16470   0.20831   0.22771
 Alpha virt. eigenvalues --    0.24144   0.26335   0.26881   0.27335   0.27780
 Alpha virt. eigenvalues --    0.28457   0.30570   0.31145   0.31622   0.31952

 Mulliken charges:
               1
     1  C   -0.169924
     2  C   -0.211907
     3  C   -0.173845
     4  C    0.158760
     5  C   -0.171278
     6  C   -0.218027
     7  H    0.225311
     8  H    0.223673
     9  H    0.275188
    10  H    0.275600
    11  H    0.223605
    12  N    0.488029
    13  O   -0.460186
    14  O   -0.460670
    15  C   -0.298940
    16  C   -0.300045
    17  C   -0.473964
    18  H    0.152536
    19  H    0.150500
    20  H    0.146712
    21  H    0.151092
    22  H    0.154943
    23  H    0.160561
    24  H    0.151139
    25  C   -0.298261
    26  C   -0.300131
    27  C   -0.475841
    28  H    0.148987
    29  H    0.149021
    30  H    0.153915
    31  H    0.152227
    32  H    0.154663
    33  H    0.155305
    34  H    0.161253
 Sum of Mulliken charges =  -0.00000

 Dipole moment (field-independent basis, Debye):
    X=              0.9655    Y=             -5.0564    Z=              0.5176  Tot=              5.1738
 Quadrupole moment (field-independent basis, Debye-Ang):
   XX=           -100.3154   YY=            -99.0251   ZZ=            -91.7412
   XY=             16.7582   XZ=              0.3041   YZ=              0.8705

 Normal termination of Gaussian 16 at Thu May  6 01:39:14 2021.
