 Gaussian 16, Revision A.03,
 Gaussian 16:  EM64L-G16RevA.03 25-Dec-2016

 -------------
 #p 6-31g* mp2
 -------------

 ------------------------------------------------------
 Input file generated by CHIRIPA (05-May-2021 14:55:23)
 ------------------------------------------------------
 Symbolic Z-matrix:
 Charge =  0 Multiplicity = 1

                         Standard orientation:
 ---------------------------------------------------------------------
 Center     Atomic      Atomic             Coordinates (Angstroms)
 Number     Number       Type             X           Y           Z
 ---------------------------------------------------------------------
      1          6           0        2.794788    2.123447   -0.797813
      2          6           0        3.937561    1.452776   -0.349716
      3          6           0        3.868016    0.110489    0.034961
      4          6           0        2.633930   -0.533311   -0.041475
      5          6           0        1.477628    0.107581   -0.483643
      6          6           0        1.570627    1.449897   -0.863231
      7          1           0        2.857922    3.166179   -1.094663
      8          1           0        4.889595    1.973342   -0.297870
      9          1           0        4.737069   -0.432823    0.385642
     10          1           0        0.542651   -0.437927   -0.524353
     11          1           0        0.681495    1.968222   -1.210834
     12          7           0        2.547891   -1.954346    0.363072
     13          8           0        1.448792   -2.499093    0.286468
     14          8           0        3.581182   -2.496498    0.749099
     15          6           0       -3.686372   -0.083742   -0.388478
     16          6           0       -4.351479   -1.325311    0.206605
     17          6           0       -4.940491   -2.249022   -0.859986
     18          1           0       -4.423966    0.468315   -0.986920
     19          1           0       -2.893493   -0.397616   -1.081458
     20          1           0       -5.141946   -1.009176    0.899307
     21          1           0       -3.612266   -1.874374    0.803856
     22          1           0       -4.159454   -2.592753   -1.545866
     23          1           0       -5.697826   -1.722639   -1.449872
     24          1           0       -5.410945   -3.130147   -0.412603
     25          6           0       -3.092791    0.849457    0.665340
     26          6           0       -2.427684    2.091026    0.070257
     27          6           0       -1.838671    3.014737    1.136848
     28          1           0       -3.885670    1.163331    1.358320
     29          1           0       -2.355197    0.297400    1.263781
     30          1           0       -3.166897    2.640089   -0.526995
     31          1           0       -1.637217    1.774891   -0.622445
     32          1           0       -1.081337    2.488354    1.726734
     33          1           0       -2.619708    3.358468    1.822727
     34          1           0       -1.368217    3.895862    0.689464
 ---------------------------------------------------------------------

 SCF Done:  E(RHF) =  -669.535519839     A.U. after   15 cycles
 E2 =    -0.2091836621D+01 EUMP2 =    -0.67162735646000D+03

 The electronic state is 1-A.
 Alpha  occ. eigenvalues --  -20.60791 -20.60785 -15.85843 -11.31200 -11.27767
 Alpha  occ. eigenvalues --  -11.27763 -11.27495 -11.26778 -11.26745 -11.22372
 Alpha  occ. eigenvalues --  -11.21818 -11.21722 -11.21697 -11.21629 -11.21038
 Alpha  occ. eigenvalues --   -1.59866  -1.39420  -1.19368  -1.08827  -1.08760
 Alpha  occ. eigenvalues --   -1.04773  -1.03893  -0.96323  -0.95601  -0.87341
 Alpha  occ. eigenvalues --   -0.86168  -0.82439  -0.79997  -0.78594  -0.77484
 Alpha  occ. eigenvalues --   -0.72062  -0.71189  -0.70477  -0.65510  -0.65013
 Alpha  occ. eigenvalues --   -0.64771  -0.62183  -0.61216  -0.59727  -0.57928
 Alpha  occ. eigenvalues --   -0.55601  -0.55264  -0.53096  -0.53033  -0.52860
 Alpha  occ. eigenvalues --   -0.52734  -0.50266  -0.48822  -0.48818  -0.48285
 Alpha  occ. eigenvalues --   -0.47032  -0.46134  -0.46027  -0.44828  -0.44146
 Alpha  occ. eigenvalues --   -0.37344  -0.36366
 Alpha virt. eigenvalues --    0.05037   0.11264   0.16470   0.18954   0.22766
 Alpha virt. eigenvalues --    0.23849   0.25231   0.26353   0.27022   0.28472
 Alpha virt. eigenvalues --    0.29493   0.30604   0.31179   0.31385   0.32334

 Mulliken charges:
               1
     1  C   -0.171209
     2  C   -0.218496
     3  C   -0.170928
     4  C    0.158615
     5  C   -0.173995
     6  C   -0.221920
     7  H    0.226036
     8  H    0.223486
     9  H    0.275604
    10  H    0.275621
    11  H    0.230059
    12  N    0.488130
    13  O   -0.460981
    14  O   -0.460260
    15  C   -0.298332
    16  C   -0.301087
    17  C   -0.476213
    18  H    0.149809
    19  H    0.146456
    20  H    0.151871
    21  H    0.158126
    22  H    0.157370
    23  H    0.153657
    24  H    0.162411
    25  C   -0.300410
    26  C   -0.302558
    27  C   -0.477005
    28  H    0.152719
    29  H    0.153678
    30  H    0.155039
    31  H    0.140098
    32  H    0.159155
    33  H    0.159700
    34  H    0.155752
 Sum of Mulliken charges =  -0.00000

 Dipole moment (field-independent basis, Debye):
    X=              0.1900    Y=              4.9589    Z=             -1.3269  Tot=              5.1369
 Quadrupole moment (field-independent basis, Debye-Ang):
   XX=            -87.2135   YY=           -101.0111   ZZ=            -95.6069
   XY=             12.5656   XZ=             -3.2353   YZ=              0.1492

 Normal termination of Gaussian 16 at Wed May  5 19:05:22 2021.
