 Gaussian 16, Revision A.03,
 Gaussian 16:  EM64L-G16RevA.03 25-Dec-2016

 -------------
 #p 6-31g* mp2
 -------------

 ------------------------------------------------------
 Input file generated by CHIRIPA (05-May-2021 14:51:14)
 ------------------------------------------------------
 Symbolic Z-matrix:
 Charge =  0 Multiplicity = 1

                         Standard orientation:
 ---------------------------------------------------------------------
 Center     Atomic      Atomic             Coordinates (Angstroms)
 Number     Number       Type             X           Y           Z
 ---------------------------------------------------------------------
      1          6           0       -4.012296    0.027792    0.044822
      2          6           0       -4.472349   -1.170407   -0.786235
      3          6           0       -5.849488   -0.959196   -1.416054
      4          1           0       -4.751467    0.224457    0.833424
      5          1           0       -3.991243    0.921711   -0.593818
      6          1           0       -4.491199   -2.062075   -0.146556
      7          1           0       -3.731901   -1.364362   -1.572832
      8          1           0       -5.841192   -0.086186   -2.076649
      9          1           0       -6.604805   -0.787863   -0.642269
     10          1           0       -6.158799   -1.827851   -2.005652
     11          6           0       -2.637282   -0.168255    0.680927
     12          6           0       -2.177229    1.029944    1.511984
     13          6           0       -0.800089    0.818733    2.141802
     14          1           0       -2.658334   -1.062174    1.319566
     15          1           0       -1.898111   -0.364921   -0.107676
     16          1           0       -2.917676    1.223899    2.298581
     17          1           0       -2.158378    1.921612    0.872305
     18          1           0       -0.044773    0.647400    1.368017
     19          1           0       -0.808385   -0.054277    2.802397
     20          1           0       -0.490779    1.687387    2.731401
     21          6           0        3.299083   -0.587545    0.024555
     22          6           0        4.404821   -1.567210   -0.369889
     23          6           0        4.340124   -2.878452    0.413854
     24          1           0        3.370942   -0.377230    1.100449
     25          1           0        2.322109   -1.064065   -0.136212
     26          1           0        5.379392   -1.088485   -0.209731
     27          1           0        4.330439   -1.775067   -1.445007
     28          1           0        3.382049   -3.380873    0.245738
     29          1           0        4.436960   -2.690391    1.488031
     30          1           0        5.139586   -3.564037    0.116036
     31          6           0        3.350495    0.728008   -0.750303
     32          6           0        2.244757    1.707673   -0.355860
     33          6           0        2.309452    3.018915   -1.139602
     34          1           0        4.327468    1.204529   -0.589537
     35          1           0        3.278636    0.517695   -1.826198
     36          1           0        2.319138    1.915532    0.719258
     37          1           0        1.270185    1.228949   -0.516017
     38          1           0        2.212617    2.830855   -2.213780
     39          1           0        3.267529    3.521337   -0.971486
     40          1           0        1.509992    3.704500   -0.841785
 ---------------------------------------------------------------------

 SCF Done:  E(RHF) =  -470.732953301     A.U. after   11 cycles
 E2 =    -0.1582995561D+01 EUMP2 =    -0.47231594886185D+03

 The electronic state is 1-A.
 Alpha  occ. eigenvalues --  -11.21626 -11.21611 -11.21602 -11.21551 -11.21425
 Alpha  occ. eigenvalues --  -11.21397 -11.21365 -11.21337 -11.21103 -11.21072
 Alpha  occ. eigenvalues --  -11.21069 -11.20911  -1.08460  -1.08406  -1.03565
 Alpha  occ. eigenvalues --   -1.03482  -0.95999  -0.95939  -0.87032  -0.86943
 Alpha  occ. eigenvalues --   -0.79693  -0.79501  -0.78308  -0.78186  -0.65115
 Alpha  occ. eigenvalues --   -0.65017  -0.61006  -0.60858  -0.59369  -0.59311
 Alpha  occ. eigenvalues --   -0.57613  -0.57551  -0.55290  -0.55231  -0.52710
 Alpha  occ. eigenvalues --   -0.52628  -0.52446  -0.52338  -0.49975  -0.49897
 Alpha  occ. eigenvalues --   -0.48051  -0.47769  -0.46714  -0.46571  -0.45910
 Alpha  occ. eigenvalues --   -0.45743  -0.45720  -0.45448  -0.43803  -0.43753
 Alpha virt. eigenvalues --    0.21294   0.23158   0.23732   0.24702   0.25759
 Alpha virt. eigenvalues --    0.26447   0.27049   0.27746   0.27975   0.29207
 Alpha virt. eigenvalues --    0.30736   0.31347   0.31759   0.31911   0.32092

 Mulliken charges:
               1
     1  C   -0.298252
     2  C   -0.299605
     3  C   -0.475695
     4  H    0.149785
     5  H    0.149471
     6  H    0.151944
     7  H    0.151655
     8  H    0.155171
     9  H    0.155231
    10  H    0.160206
    11  C   -0.298185
    12  C   -0.299504
    13  C   -0.482674
    14  H    0.149681
    15  H    0.148310
    16  H    0.151648
    17  H    0.151372
    18  H    0.164771
    19  H    0.154145
    20  H    0.158989
    21  C   -0.299277
    22  C   -0.299604
    23  C   -0.475731
    24  H    0.150572
    25  H    0.149546
    26  H    0.152023
    27  H    0.151858
    28  H    0.155335
    29  H    0.155377
    30  H    0.160221
    31  C   -0.298018
    32  C   -0.303489
    33  C   -0.475296
    34  H    0.149680
    35  H    0.149364
    36  H    0.154669
    37  H    0.153611
    38  H    0.154938
    39  H    0.155395
    40  H    0.160363
 Sum of Mulliken charges =  -0.00000

 Dipole moment (field-independent basis, Debye):
    X=              0.0480    Y=              0.0062    Z=             -0.0057  Tot=              0.0487
 Quadrupole moment (field-independent basis, Debye-Ang):
   XX=            -85.1635   YY=            -85.4595   ZZ=            -84.1560
   XY=              0.5608   XZ=             -0.4195   YZ=              0.4229

 Normal termination of Gaussian 16 at Wed May  5 20:01:58 2021.
