 Gaussian 16, Revision A.03,
 Gaussian 16:  EM64L-G16RevA.03 25-Dec-2016

 -------------
 #p 6-31g* mp2
 -------------

 ------------------------------------------------------
 Input file generated by CHIRIPA (05-May-2021 14:51:14)
 ------------------------------------------------------
 Symbolic Z-matrix:
 Charge =  0 Multiplicity = 1

                         Standard orientation:
 ---------------------------------------------------------------------
 Center     Atomic      Atomic             Coordinates (Angstroms)
 Number     Number       Type             X           Y           Z
 ---------------------------------------------------------------------
      1          6           0        3.181535   -0.438490    0.799536
      2          6           0        1.776248    0.116892    0.565646
      3          6           0        0.802133   -0.248543    1.686070
      4          1           0        3.125514   -1.531361    0.896695
      5          1           0        3.563629   -0.058726    1.757230
      6          1           0        1.397466   -0.262702   -0.391980
      7          1           0        1.835646    1.208550    0.468841
      8          1           0        1.153942    0.143920    2.645655
      9          1           0        0.713271   -1.335692    1.779942
     10          1           0       -0.196366    0.158533    1.498587
     11          6           0        4.166777   -0.081543   -0.312046
     12          6           0        5.572064   -0.636925   -0.078155
     13          6           0        6.546179   -0.271490   -1.198579
     14          1           0        3.784683   -0.461307   -1.269740
     15          1           0        4.222798    1.011328   -0.409204
     16          1           0        5.512665   -1.728583    0.018649
     17          1           0        5.950846   -0.257331    0.879471
     18          1           0        6.635040    0.815659   -1.292451
     19          1           0        6.194370   -0.663953   -2.158164
     20          1           0        7.544678   -0.678566   -1.011097
     21          6           0       -3.027700    0.656435   -0.335278
     22          6           0       -3.184424    2.148517   -0.040128
     23          6           0       -1.882583    2.928154   -0.227668
     24          1           0       -2.251041    0.239108    0.320148
     25          1           0       -2.668364    0.529408   -1.365879
     26          1           0       -3.544677    2.272642    0.989157
     27          1           0       -3.960934    2.562301   -0.696201
     28          1           0       -1.522028    2.833978   -1.257101
     29          1           0       -1.103407    2.542673    0.437832
     30          1           0       -2.017360    3.992552   -0.011444
     31          6           0       -4.320613   -0.136402   -0.152213
     32          6           0       -4.163888   -1.628484   -0.447363
     33          6           0       -5.465729   -2.408121   -0.259824
     34          1           0       -4.679947   -0.009375    0.878388
     35          1           0       -5.097270    0.280926   -0.807639
     36          1           0       -3.387377   -2.042268    0.208710
     37          1           0       -3.803634   -1.752608   -1.476647
     38          1           0       -6.244904   -2.022639   -0.925322
     39          1           0       -5.826283   -2.313945    0.769610
     40          1           0       -5.330951   -3.472519   -0.476047
 ---------------------------------------------------------------------

 SCF Done:  E(RHF) =  -470.733197129     A.U. after   11 cycles
 E2 =    -0.1583002066D+01 EUMP2 =    -0.47231619919477D+03

 The electronic state is 1-A.
 Alpha  occ. eigenvalues --  -11.21601 -11.21599 -11.21597 -11.21593 -11.21402
 Alpha  occ. eigenvalues --  -11.21396 -11.21342 -11.21336 -11.21094 -11.21066
 Alpha  occ. eigenvalues --  -11.21064 -11.21064  -1.08441  -1.08416  -1.03552
 Alpha  occ. eigenvalues --   -1.03508  -0.95990  -0.95974  -0.87016  -0.86983
 Alpha  occ. eigenvalues --   -0.79600  -0.79582  -0.78252  -0.78232  -0.65080
 Alpha  occ. eigenvalues --   -0.65057  -0.60965  -0.60917  -0.59464  -0.59241
 Alpha  occ. eigenvalues --   -0.57606  -0.57575  -0.55319  -0.55219  -0.52739
 Alpha  occ. eigenvalues --   -0.52655  -0.52432  -0.52380  -0.49940  -0.49905
 Alpha  occ. eigenvalues --   -0.47957  -0.47871  -0.46639  -0.46593  -0.45788
 Alpha  occ. eigenvalues --   -0.45763  -0.45713  -0.45679  -0.43784  -0.43736
 Alpha virt. eigenvalues --    0.20673   0.23092   0.23528   0.24954   0.26221
 Alpha virt. eigenvalues --    0.26478   0.27042   0.27391   0.27923   0.29198
 Alpha virt. eigenvalues --    0.30587   0.31394   0.31553   0.31779   0.31935

 Mulliken charges:
               1
     1  C   -0.298466
     2  C   -0.299708
     3  C   -0.484749
     4  H    0.149634
     5  H    0.149485
     6  H    0.152828
     7  H    0.152804
     8  H    0.155279
     9  H    0.155188
    10  H    0.167369
    11  C   -0.298285
    12  C   -0.299658
    13  C   -0.475710
    14  H    0.149586
    15  H    0.149822
    16  H    0.151909
    17  H    0.151911
    18  H    0.155223
    19  H    0.155180
    20  H    0.160228
    21  C   -0.306627
    22  C   -0.299297
    23  C   -0.479363
    24  H    0.157138
    25  H    0.149529
    26  H    0.151722
    27  H    0.152082
    28  H    0.155495
    29  H    0.158506
    30  H    0.160228
    31  C   -0.297566
    32  C   -0.299811
    33  C   -0.475707
    34  H    0.149513
    35  H    0.149660
    36  H    0.152277
    37  H    0.151773
    38  H    0.155138
    39  H    0.155256
    40  H    0.160185
 Sum of Mulliken charges =  -0.00000

 Dipole moment (field-independent basis, Debye):
    X=              0.0066    Y=              0.0004    Z=             -0.0061  Tot=              0.0089
 Quadrupole moment (field-independent basis, Debye-Ang):
   XX=            -86.1286   YY=            -84.5536   ZZ=            -84.1215
   XY=             -0.5510   XZ=              1.0249   YZ=              0.4709

 Normal termination of Gaussian 16 at Thu May  6 05:37:37 2021.
