 Gaussian 16, Revision A.03,
 Gaussian 16:  EM64L-G16RevA.03 25-Dec-2016

 -------------
 #p 6-31g* mp2
 -------------

 ------------------------------------------------------
 Input file generated by CHIRIPA (05-May-2021 14:53:14)
 ------------------------------------------------------
 Symbolic Z-matrix:
 Charge =  0 Multiplicity = 1

                         Standard orientation:
 ---------------------------------------------------------------------
 Center     Atomic      Atomic             Coordinates (Angstroms)
 Number     Number       Type             X           Y           Z
 ---------------------------------------------------------------------
      1          6           0        4.036902   -0.443595   -0.392858
      2          6           0        3.441604   -1.835323   -0.176757
      3          6           0        4.377026   -2.955669   -0.632393
      4          1           0        4.274343   -0.314622   -1.457720
      5          1           0        4.989116   -0.371279    0.150699
      6          1           0        2.490115   -1.904525   -0.719432
      7          1           0        3.205375   -1.960926    0.887684
      8          1           0        5.323019   -2.915084   -0.082801
      9          1           0        4.603695   -2.858362   -1.699048
     10          1           0        3.931666   -3.941949   -0.468794
     11          6           0        3.113540    0.686922    0.057767
     12          6           0        3.708838    2.078650   -0.158333
     13          6           0        2.773415    3.198996    0.297302
     14          1           0        2.161325    0.614606   -0.485789
     15          1           0        2.876099    0.557949    1.122630
     16          1           0        3.945066    2.204253   -1.222775
     17          1           0        4.660327    2.147852    0.384341
     18          1           0        2.546746    3.101689    1.363958
     19          1           0        1.827422    3.158411   -0.252290
     20          1           0        3.218776    4.185276    0.133704
     21          6           0       -0.420931   -0.144853    0.988835
     22          6           0       -0.888754    0.971990    0.288602
     23          6           0       -2.201274    1.010515   -0.191350
     24          6           0       -3.022478   -0.090235    0.047952
     25          6           0       -2.585686   -1.217395    0.742224
     26          6           0       -1.269394   -1.234061    1.213015
     27          1           0        0.600132   -0.166289    1.358115
     28          1           0       -0.232059    1.819320    0.113025
     29          1           0       -2.589313    1.862410   -0.736435
     30          1           0       -3.263841   -2.046907    0.901707
     31          1           0       -0.908788   -2.102749    1.756512
     32          7           0       -4.413981   -0.061021   -0.455302
     33          8           0       -5.117598   -1.043573   -0.231358
     34          8           0       -4.774676    0.943876   -1.064169
 ---------------------------------------------------------------------

 SCF Done:  E(RHF) =  -669.534597691     A.U. after   15 cycles
 E2 =    -0.2093476568D+01 EUMP2 =    -0.67162807425917D+03

 The electronic state is 1-A.
 Alpha  occ. eigenvalues --  -20.60680 -20.60675 -15.85733 -11.31067 -11.27644
 Alpha  occ. eigenvalues --  -11.27638 -11.27260 -11.26619 -11.26585 -11.22738
 Alpha  occ. eigenvalues --  -11.22675 -11.22592 -11.22397 -11.22318 -11.21839
 Alpha  occ. eigenvalues --   -1.59757  -1.39311  -1.19235  -1.09574  -1.08617
 Alpha  occ. eigenvalues --   -1.04652  -1.04573  -0.97055  -0.95466  -0.88063
 Alpha  occ. eigenvalues --   -0.86036  -0.82313  -0.80676  -0.79455  -0.77361
 Alpha  occ. eigenvalues --   -0.71950  -0.71081  -0.70309  -0.66199  -0.64877
 Alpha  occ. eigenvalues --   -0.64649  -0.62104  -0.61866  -0.60400  -0.58706
 Alpha  occ. eigenvalues --   -0.56349  -0.55154  -0.53686  -0.53471  -0.52964
 Alpha  occ. eigenvalues --   -0.52702  -0.50980  -0.48974  -0.48709  -0.48704
 Alpha  occ. eigenvalues --   -0.47683  -0.46881  -0.46822  -0.44854  -0.44724
 Alpha  occ. eigenvalues --   -0.37167  -0.36248
 Alpha virt. eigenvalues --    0.05155   0.11294   0.16611   0.19716   0.22266
 Alpha virt. eigenvalues --    0.22768   0.24342   0.25892   0.26502   0.28425
 Alpha virt. eigenvalues --    0.29506   0.30273   0.30839   0.31453   0.31614

 Mulliken charges:
               1
     1  C   -0.297183
     2  C   -0.303376
     3  C   -0.476019
     4  H    0.154325
     5  H    0.152680
     6  H    0.155137
     7  H    0.146195
     8  H    0.156961
     9  H    0.158352
    10  H    0.162182
    11  C   -0.310186
    12  C   -0.299035
    13  C   -0.481572
    14  H    0.153137
    15  H    0.143482
    16  H    0.156921
    17  H    0.156416
    18  H    0.155642
    19  H    0.150471
    20  H    0.168159
    21  C   -0.175125
    22  C   -0.228989
    23  C   -0.172842
    24  C    0.158182
    25  C   -0.170955
    26  C   -0.221201
    27  H    0.236106
    28  H    0.232204
    29  H    0.275434
    30  H    0.274989
    31  H    0.223182
    32  N    0.488075
    33  O   -0.460907
    34  O   -0.460842
 Sum of Mulliken charges =  -0.00000

 Dipole moment (field-independent basis, Debye):
    X=              5.2390    Y=             -0.0876    Z=              1.6800  Tot=              5.5025
 Quadrupole moment (field-independent basis, Debye-Ang):
   XX=           -124.1107   YY=            -91.0828   ZZ=            -93.7578
   XY=              1.3524   XZ=             -5.3042   YZ=             -2.4144

 Normal termination of Gaussian 16 at Thu May  6 10:32:35 2021.
