 Gaussian 16, Revision A.03,
 Gaussian 16:  EM64L-G16RevA.03 25-Dec-2016

 -------------
 #p 6-31g* mp2
 -------------

 ------------------------------------------------------
 Input file generated by CHIRIPA (05-May-2021 14:51:08)
 ------------------------------------------------------
 Symbolic Z-matrix:
 Charge =  0 Multiplicity = 1

                         Standard orientation:
 ---------------------------------------------------------------------
 Center     Atomic      Atomic             Coordinates (Angstroms)
 Number     Number       Type             X           Y           Z
 ---------------------------------------------------------------------
      1          6           0       -2.990419   -0.526053   -0.484902
      2          6           0       -4.329855   -0.004487    0.036505
      3          6           0       -5.188460    0.622240   -1.062497
      4          1           0       -2.440406    0.300427   -0.955392
      5          1           0       -3.175812   -1.267558   -1.274328
      6          1           0       -4.142010    0.734798    0.825674
      7          1           0       -4.876661   -0.832264    0.505978
      8          1           0       -5.405058   -0.110154   -1.846898
      9          1           0       -4.666233    1.465812   -1.525386
     10          1           0       -6.141330    0.988425   -0.667772
     11          6           0       -2.120828   -1.155464    0.602012
     12          6           0       -0.781392   -1.677030    0.080605
     13          6           0        0.077213   -2.303757    1.179607
     14          1           0       -1.935434   -0.413959    1.391439
     15          1           0       -2.670841   -1.981945    1.072502
     16          1           0       -0.234586   -0.849254   -0.388868
     17          1           0       -0.969237   -2.416316   -0.708563
     18          1           0       -0.445013   -3.147329    1.642497
     19          1           0        0.293811   -1.571364    1.964009
     20          1           0        1.030083   -2.669942    0.784883
     21          6           0        2.954051    0.453878   -0.582969
     22          6           0        4.076744   -0.395658    0.013550
     23          6           0        4.864764   -1.163672   -1.048041
     24          1           0        2.272517   -0.195741   -1.149054
     25          1           0        3.383549    1.161549   -1.305553
     26          1           0        3.645422   -1.100578    0.735815
     27          1           0        4.755578    0.256030    0.578440
     28          1           0        5.321814   -0.472544   -1.763617
     29          1           0        4.205350   -1.836861   -1.605348
     30          1           0        5.662308   -1.764318   -0.599703
     31          6           0        2.157196    1.227640    0.465859
     32          6           0        1.034503    2.077176   -0.130661
     33          6           0        0.246483    2.845189    0.930930
     34          1           0        1.727697    0.519968    1.188442
     35          1           0        2.838730    1.877259    1.031944
     36          1           0        0.355668    1.425487   -0.695550
     37          1           0        1.465824    2.782095   -0.852925
     38          1           0        0.905896    3.518378    1.488237
     39          1           0       -0.210568    2.154062    1.646507
     40          1           0       -0.551062    3.445835    0.482593
 ---------------------------------------------------------------------

 SCF Done:  E(RHF) =  -470.732744331     A.U. after   11 cycles
 E2 =    -0.1585274769D+01 EUMP2 =    -0.47231801909977D+03

 The electronic state is 1-A.
 Alpha  occ. eigenvalues --  -11.21651 -11.21651 -11.21621 -11.21593 -11.21457
 Alpha  occ. eigenvalues --  -11.21409 -11.21395 -11.21350 -11.21171 -11.21151
 Alpha  occ. eigenvalues --  -11.21084 -11.21071  -1.08535  -1.08405  -1.03604
 Alpha  occ. eigenvalues --   -1.03541  -0.96069  -0.95975  -0.87053  -0.87025
 Alpha  occ. eigenvalues --   -0.79680  -0.79605  -0.78375  -0.78183  -0.65574
 Alpha  occ. eigenvalues --   -0.64730  -0.61168  -0.60727  -0.59429  -0.59344
 Alpha  occ. eigenvalues --   -0.57678  -0.57584  -0.55554  -0.55067  -0.52735
 Alpha  occ. eigenvalues --   -0.52703  -0.52471  -0.52423  -0.50012  -0.49940
 Alpha  occ. eigenvalues --   -0.48055  -0.47866  -0.46952  -0.46576  -0.46075
 Alpha  occ. eigenvalues --   -0.45856  -0.45662  -0.45250  -0.43829  -0.43807
 Alpha virt. eigenvalues --    0.18711   0.21800   0.24033   0.24264   0.25317
 Alpha virt. eigenvalues --    0.26077   0.26675   0.28342   0.28888   0.29718
 Alpha virt. eigenvalues --    0.30282   0.31178   0.31553   0.32027   0.32510

 Mulliken charges:
               1
     1  C   -0.300180
     2  C   -0.299743
     3  C   -0.475773
     4  H    0.151012
     5  H    0.149667
     6  H    0.152447
     7  H    0.151997
     8  H    0.155155
     9  H    0.155297
    10  H    0.160387
    11  C   -0.298925
    12  C   -0.309497
    13  C   -0.478164
    14  H    0.150320
    15  H    0.150080
    16  H    0.161222
    17  H    0.152276
    18  H    0.155984
    19  H    0.155633
    20  H    0.161327
    21  C   -0.300445
    22  C   -0.301487
    23  C   -0.475788
    24  H    0.151714
    25  H    0.149573
    26  H    0.153948
    27  H    0.151905
    28  H    0.155205
    29  H    0.155034
    30  H    0.160300
    31  C   -0.303555
    32  C   -0.305040
    33  C   -0.476541
    34  H    0.155256
    35  H    0.150217
    36  H    0.155366
    37  H    0.152641
    38  H    0.155877
    39  H    0.155120
    40  H    0.160176
 Sum of Mulliken charges =  -0.00000

 Dipole moment (field-independent basis, Debye):
    X=             -0.0057    Y=             -0.0047    Z=              0.0040  Tot=              0.0085
 Quadrupole moment (field-independent basis, Debye-Ang):
   XX=            -85.1243   YY=            -83.9357   ZZ=            -85.6333
   XY=              1.6822   XZ=             -0.0293   YZ=              0.0256

 Normal termination of Gaussian 16 at Wed May  5 16:36:15 2021.
