 Gaussian 16, Revision A.03,
 Gaussian 16:  EM64L-G16RevA.03 25-Dec-2016

 -------------
 #p 6-31g* mp2
 -------------

 ------------------------------------------------------
 Input file generated by CHIRIPA (05-May-2021 14:53:15)
 ------------------------------------------------------
 Symbolic Z-matrix:
 Charge =  0 Multiplicity = 1

                         Standard orientation:
 ---------------------------------------------------------------------
 Center     Atomic      Atomic             Coordinates (Angstroms)
 Number     Number       Type             X           Y           Z
 ---------------------------------------------------------------------
      1          6           0        3.340625    0.408030    0.716110
      2          6           0        2.591855   -0.361383    1.804839
      3          6           0        1.633632    0.524211    2.601913
      4          1           0        3.899980    1.233161    1.177873
      5          1           0        2.611663    0.867571    0.034323
      6          1           0        3.322035   -0.820484    2.483572
      7          1           0        2.034369   -1.184895    1.340453
      8          1           0        0.883316    0.971485    1.941933
      9          1           0        2.178298    1.337966    3.091548
     10          1           0        1.108900   -0.046041    3.374784
     11          6           0        4.302382   -0.463738   -0.089353
     12          6           0        5.051152    0.305675   -1.178083
     13          6           0        6.009375   -0.579919   -1.975157
     14          1           0        5.031343   -0.923279    0.592433
     15          1           0        3.743027   -1.288869   -0.551117
     16          1           0        5.608637    1.129187   -0.713696
     17          1           0        4.320972    0.764776   -1.856816
     18          1           0        5.464709   -1.393674   -2.464791
     19          1           0        6.759691   -1.027193   -1.315177
     20          1           0        6.534106   -0.009667   -2.748028
     21          6           0       -2.487649    2.489741   -0.409413
     22          6           0       -3.761414    2.009631   -0.731182
     23          6           0       -4.048547    0.644187   -0.643629
     24          6           0       -3.033685   -0.216835   -0.228915
     25          6           0       -1.754784    0.230926    0.098518
     26          6           0       -1.490157    1.600425    0.003682
     27          1           0       -2.273339    3.552027   -0.480255
     28          1           0       -4.538024    2.697971   -1.052288
     29          1           0       -5.025991    0.245513   -0.886691
     30          1           0       -1.001121   -0.479637    0.415554
     31          1           0       -0.500026    1.970456    0.254206
     32          7           0       -3.325746   -1.664515   -0.132372
     33          8           0       -2.414342   -2.402484    0.235572
     34          8           0       -4.460537   -2.033826   -0.426473
 ---------------------------------------------------------------------

 SCF Done:  E(RHF) =  -669.535315653     A.U. after   15 cycles
 E2 =    -0.2091677131D+01 EUMP2 =    -0.67162699278371D+03

 The electronic state is 1-A.
 Alpha  occ. eigenvalues --  -20.60761 -20.60756 -15.85815 -11.31176 -11.27753
 Alpha  occ. eigenvalues --  -11.27739 -11.27493 -11.26764 -11.26743 -11.22145
 Alpha  occ. eigenvalues --  -11.21958 -11.21919 -11.21815 -11.21731 -11.21287
 Alpha  occ. eigenvalues --   -1.59837  -1.39390  -1.19352  -1.08897  -1.08747
 Alpha  occ. eigenvalues --   -1.04762  -1.03990  -0.96453  -0.95582  -0.87468
 Alpha  occ. eigenvalues --   -0.86155  -0.82423  -0.80052  -0.78693  -0.77467
 Alpha  occ. eigenvalues --   -0.72034  -0.71159  -0.70463  -0.65551  -0.65004
 Alpha  occ. eigenvalues --   -0.64772  -0.62226  -0.61295  -0.59809  -0.58044
 Alpha  occ. eigenvalues --   -0.55778  -0.55236  -0.53138  -0.53082  -0.52969
 Alpha  occ. eigenvalues --   -0.52748  -0.50396  -0.48794  -0.48788  -0.48357
 Alpha  occ. eigenvalues --   -0.47085  -0.46234  -0.46148  -0.44797  -0.44232
 Alpha  occ. eigenvalues --   -0.37332  -0.36351
 Alpha virt. eigenvalues --    0.05061   0.11287   0.16495   0.18876   0.22822
 Alpha virt. eigenvalues --    0.23746   0.25158   0.26225   0.27379   0.28200
 Alpha virt. eigenvalues --    0.29306   0.29471   0.31308   0.31486   0.32119

 Mulliken charges:
               1
     1  C   -0.297787
     2  C   -0.303415
     3  C   -0.480153
     4  H    0.150527
     5  H    0.141815
     6  H    0.156923
     7  H    0.156227
     8  H    0.144480
     9  H    0.157790
    10  H    0.167854
    11  C   -0.299071
    12  C   -0.299869
    13  C   -0.476132
    14  H    0.151749
    15  H    0.152860
    16  H    0.151658
    17  H    0.150871
    18  H    0.156964
    19  H    0.156116
    20  H    0.160759
    21  C   -0.170782
    22  C   -0.218736
    23  C   -0.170633
    24  C    0.158122
    25  C   -0.172328
    26  C   -0.223159
    27  H    0.225942
    28  H    0.223434
    29  H    0.275591
    30  H    0.277858
    31  H    0.227506
    32  N    0.488131
    33  O   -0.460654
    34  O   -0.460459
 Sum of Mulliken charges =  -0.00000

 Dipole moment (field-independent basis, Debye):
    X=              1.1656    Y=              5.0204    Z=             -0.2923  Tot=              5.1622
 Quadrupole moment (field-independent basis, Debye-Ang):
   XX=            -95.9809   YY=            -97.6555   ZZ=            -94.6457
   XY=            -16.5277   XZ=              3.6263   YZ=             -1.7049

 Normal termination of Gaussian 16 at Wed May  5 18:41:08 2021.
