 Gaussian 16, Revision A.03,
 Gaussian 16:  EM64L-G16RevA.03 25-Dec-2016

 -------------
 #p 6-31g* mp2
 -------------

 ------------------------------------------------------
 Input file generated by CHIRIPA (05-May-2021 14:57:21)
 ------------------------------------------------------
 Symbolic Z-matrix:
 Charge =  0 Multiplicity = 1

                         Standard orientation:
 ---------------------------------------------------------------------
 Center     Atomic      Atomic             Coordinates (Angstroms)
 Number     Number       Type             X           Y           Z
 ---------------------------------------------------------------------
      1          6           0        1.666266   -1.471870    1.407466
      2          6           0        1.336876   -0.249419    0.812792
      3          6           0        2.304960    0.490255    0.127049
      4          6           0        3.598399   -0.024660    0.055159
      5          6           0        3.957543   -1.239383    0.637186
      6          6           0        2.973244   -1.962086    1.317923
      7          1           0        0.907937   -2.039875    1.938223
      8          1           0        0.322668    0.133740    0.880730
      9          1           0        2.077280    1.439490   -0.342559
     10          1           0        4.977069   -1.595508    0.552578
     11          1           0        3.231916   -2.911158    1.778787
     12          7           0        4.631849    0.749417   -0.668156
     13          8           0        5.764183    0.273971   -0.717237
     14          8           0        4.289966    1.816927   -1.172314
     15          6           0       -3.109007    2.494738    0.707001
     16          6           0       -4.327191    1.834581    0.898684
     17          6           0       -4.515175    0.536535    0.414652
     18          6           0       -3.458920   -0.074227   -0.259578
     19          6           0       -2.233462    0.557250   -0.466413
     20          6           0       -2.067866    1.855093    0.026264
     21          1           0       -2.971672    3.503011    1.086366
     22          1           0       -5.137506    2.328883    1.426982
     23          1           0       -5.447884    0.002299    0.549056
     24          1           0       -1.444158    0.038648   -0.996950
     25          1           0       -1.120722    2.365350   -0.124066
     26          7           0       -3.646081   -1.448302   -0.776578
     27          8           0       -2.699934   -1.964553   -1.367279
     28          8           0       -4.735378   -1.983033   -0.581310
 ---------------------------------------------------------------------

 SCF Done:  E(RHF) =  -868.337187659     A.U. after   16 cycles
 E2 =    -0.2600942388D+01 EUMP2 =    -0.87093813004640D+03

 The electronic state is 1-A.
 Alpha  occ. eigenvalues --  -20.61487 -20.61479 -20.60982 -20.60967 -15.86545
 Alpha  occ. eigenvalues --  -15.86032 -11.32027 -11.31406 -11.28637 -11.28577
 Alpha  occ. eigenvalues --  -11.28328 -11.28067 -11.27940 -11.27698 -11.27654
 Alpha  occ. eigenvalues --  -11.27574 -11.26973 -11.26912  -1.60564  -1.60052
 Alpha  occ. eigenvalues --   -1.40112  -1.39607  -1.20221  -1.19570  -1.09570
 Alpha  occ. eigenvalues --   -1.08943  -1.05661  -1.04991  -0.96388  -0.95786
 Alpha  occ. eigenvalues --   -0.87015  -0.86381  -0.83241  -0.82631  -0.78289
 Alpha  occ. eigenvalues --   -0.77680  -0.72753  -0.72251  -0.71897  -0.71374
 Alpha  occ. eigenvalues --   -0.71283  -0.70655  -0.65880  -0.65632  -0.65222
 Alpha  occ. eigenvalues --   -0.65017  -0.63059  -0.62255  -0.56080  -0.55434
 Alpha  occ. eigenvalues --   -0.54015  -0.53733  -0.53277  -0.53004  -0.49524
 Alpha  occ. eigenvalues --   -0.49505  -0.49013  -0.49001  -0.45491  -0.45012
 Alpha  occ. eigenvalues --   -0.38172  -0.37505  -0.37244  -0.36595
 Alpha virt. eigenvalues --    0.04218   0.04857   0.10316   0.11090   0.15528
 Alpha virt. eigenvalues --    0.16303   0.19324   0.21981   0.24883   0.27434
 Alpha virt. eigenvalues --    0.28151   0.28731   0.30864   0.31304   0.31708

 Mulliken charges:
               1
     1  C   -0.169551
     2  C   -0.225542
     3  C   -0.174545
     4  C    0.159568
     5  C   -0.169968
     6  C   -0.217900
     7  H    0.230347
     8  H    0.224890
     9  H    0.268503
    10  H    0.276798
    11  H    0.225797
    12  N    0.488345
    13  O   -0.458751
    14  O   -0.462530
    15  C   -0.170200
    16  C   -0.218164
    17  C   -0.170049
    18  C    0.157864
    19  C   -0.179670
    20  C   -0.223425
    21  H    0.229907
    22  H    0.227078
    23  H    0.278324
    24  H    0.279105
    25  H    0.223611
    26  N    0.487565
    27  O   -0.459495
    28  O   -0.457912
 Sum of Mulliken charges =  -0.00000

 Dipole moment (field-independent basis, Debye):
    X=             -3.1924    Y=              2.0090    Z=              4.4426  Tot=              5.8279
 Quadrupole moment (field-independent basis, Debye-Ang):
   XX=           -127.8873   YY=           -103.3825   ZZ=           -105.9931
   XY=            -30.1189   XZ=              1.3711   YZ=             -2.5236

 Normal termination of Gaussian 16 at Thu May  6 03:18:19 2021.
