 Gaussian 16, Revision A.03,
 Gaussian 16:  EM64L-G16RevA.03 25-Dec-2016

 -------------
 #p 6-31g* mp2
 -------------

 ------------------------------------------------------
 Input file generated by CHIRIPA (05-May-2021 14:51:13)
 ------------------------------------------------------
 Symbolic Z-matrix:
 Charge =  0 Multiplicity = 1

                         Standard orientation:
 ---------------------------------------------------------------------
 Center     Atomic      Atomic             Coordinates (Angstroms)
 Number     Number       Type             X           Y           Z
 ---------------------------------------------------------------------
      1          6           0        3.439047    0.473291   -0.269495
      2          6           0        3.389562    2.001276   -0.241264
      3          6           0        1.970176    2.549638   -0.391053
      4          1           0        3.004088    0.116057   -1.212967
      5          1           0        2.805277    0.077904    0.536359
      6          1           0        4.024331    2.393682   -1.046063
      7          1           0        3.824864    2.354921    0.702168
      8          1           0        1.329299    2.186128    0.418723
      9          1           0        1.529900    2.225109   -1.339441
     10          1           0        1.958014    3.643800   -0.368182
     11          6           0        4.851276   -0.089953   -0.120852
     12          6           0        4.900761   -1.617938   -0.149083
     13          6           0        6.320146   -2.166300    0.000706
     14          1           0        5.485045    0.305434   -0.926706
     15          1           0        5.286235    0.267281    0.822620
     16          1           0        4.465458   -1.971583   -1.092515
     17          1           0        4.265991   -2.010344    0.655716
     18          1           0        6.760422   -1.841770    0.949093
     19          1           0        6.961023   -1.802790   -0.809071
     20          1           0        6.332309   -3.260462   -0.022165
     21          6           0       -4.844342    0.058597    0.016443
     22          6           0       -5.799399   -1.059085   -0.403841
     23          6           0       -7.194194   -0.542669   -0.758318
     24          1           0       -5.269722    0.591001    0.878152
     25          1           0       -4.768657    0.792304   -0.798014
     26          1           0       -5.872188   -1.791180    0.410626
     27          1           0       -5.371607   -1.589013   -1.264530
     28          1           0       -7.141567    0.171795   -1.586191
     29          1           0       -7.644992   -0.031520    0.098483
     30          1           0       -7.860624   -1.358254   -1.055893
     31          6           0       -3.445980   -0.441934    0.373904
     32          6           0       -2.490923    0.675748    0.794188
     33          6           0       -1.096128    0.159330    1.148665
     34          1           0       -3.521666   -1.175642    1.188361
     35          1           0       -3.020601   -0.974340   -0.487805
     36          1           0       -2.918716    1.205675    1.654876
     37          1           0       -2.418135    1.407841   -0.020280
     38          1           0       -0.645331   -0.351819    0.291863
     39          1           0       -1.148755   -0.555134    1.976538
     40          1           0       -0.429699    0.974916    1.446241
 ---------------------------------------------------------------------

 SCF Done:  E(RHF) =  -470.733191394     A.U. after   11 cycles
 E2 =    -0.1582450830D+01 EUMP2 =    -0.47231564222351D+03

 The electronic state is 1-A.
 Alpha  occ. eigenvalues --  -11.21594 -11.21586 -11.21574 -11.21565 -11.21394
 Alpha  occ. eigenvalues --  -11.21367 -11.21335 -11.21306 -11.21065 -11.21054
 Alpha  occ. eigenvalues --  -11.21050 -11.21006  -1.08421  -1.08393  -1.03532
 Alpha  occ. eigenvalues --   -1.03484  -0.95998  -0.95920  -0.87030  -0.86925
 Alpha  occ. eigenvalues --   -0.79623  -0.79520  -0.78236  -0.78198  -0.65053
 Alpha  occ. eigenvalues --   -0.65023  -0.60949  -0.60885  -0.59415  -0.59262
 Alpha  occ. eigenvalues --   -0.57685  -0.57463  -0.55286  -0.55209  -0.52774
 Alpha  occ. eigenvalues --   -0.52641  -0.52446  -0.52228  -0.49934  -0.49852
 Alpha  occ. eigenvalues --   -0.47947  -0.47814  -0.46634  -0.46565  -0.45787
 Alpha  occ. eigenvalues --   -0.45737  -0.45697  -0.45660  -0.43762  -0.43729
 Alpha virt. eigenvalues --    0.21814   0.23015   0.23507   0.24959   0.26176
 Alpha virt. eigenvalues --    0.26620   0.27131   0.27264   0.27900   0.29183
 Alpha virt. eigenvalues --    0.29781   0.31364   0.31661   0.31936   0.32027

 Mulliken charges:
               1
     1  C   -0.299150
     2  C   -0.299354
     3  C   -0.480921
     4  H    0.149134
     5  H    0.151353
     6  H    0.151647
     7  H    0.151622
     8  H    0.161199
     9  H    0.154664
    10  H    0.159677
    11  C   -0.298273
    12  C   -0.299653
    13  C   -0.475681
    14  H    0.149372
    15  H    0.149568
    16  H    0.151760
    17  H    0.152185
    18  H    0.155150
    19  H    0.155090
    20  H    0.160169
    21  C   -0.298276
    22  C   -0.299639
    23  C   -0.475699
    24  H    0.149626
    25  H    0.149613
    26  H    0.151890
    27  H    0.151925
    28  H    0.155195
    29  H    0.155169
    30  H    0.160217
    31  C   -0.298530
    32  C   -0.299713
    33  C   -0.479846
    34  H    0.149439
    35  H    0.149697
    36  H    0.151720
    37  H    0.152854
    38  H    0.156596
    39  H    0.154644
    40  H    0.163559
 Sum of Mulliken charges =  -0.00000

 Dipole moment (field-independent basis, Debye):
    X=             -0.0173    Y=             -0.0051    Z=              0.0063  Tot=              0.0191
 Quadrupole moment (field-independent basis, Debye-Ang):
   XX=            -86.8594   YY=            -85.1992   ZZ=            -82.8734
   XY=              0.7492   XZ=             -0.7636   YZ=              0.0025

 Normal termination of Gaussian 16 at Wed May  5 21:36:10 2021.
