 Gaussian 16, Revision A.03,
 Gaussian 16:  EM64L-G16RevA.03 25-Dec-2016

 -------------
 #p 6-31g* mp2
 -------------

 ------------------------------------------------------
 Input file generated by CHIRIPA (05-May-2021 14:53:18)
 ------------------------------------------------------
 Symbolic Z-matrix:
 Charge =  0 Multiplicity = 1

                         Standard orientation:
 ---------------------------------------------------------------------
 Center     Atomic      Atomic             Coordinates (Angstroms)
 Number     Number       Type             X           Y           Z
 ---------------------------------------------------------------------
      1          6           0       -3.134338    0.634044   -0.443191
      2          6           0       -3.519979    2.009896    0.101140
      3          6           0       -2.549881    3.109814   -0.331163
      4          1           0       -2.119645    0.383957   -0.104370
      5          1           0       -3.095233    0.679310   -1.540377
      6          1           0       -3.559695    1.961694    1.196911
      7          1           0       -4.533946    2.256654   -0.238858
      8          1           0       -2.516615    3.186962   -1.422741
      9          1           0       -1.536829    2.890326    0.021186
     10          1           0       -2.844438    4.084971    0.069044
     11          6           0       -4.094638   -0.475970   -0.019610
     12          6           0       -3.708996   -1.851822   -0.563941
     13          6           0       -4.679094   -2.951740   -0.131638
     14          1           0       -4.133742   -0.521236    1.077576
     15          1           0       -5.109331   -0.225883   -0.358431
     16          1           0       -2.695030   -2.098580   -0.223943
     17          1           0       -3.669281   -1.803620   -1.659712
     18          1           0       -5.692147   -2.732252   -0.483987
     19          1           0       -4.712360   -3.028888    0.959940
     20          1           0       -4.384538   -3.926897   -0.531845
     21          6           0        0.573792    0.641030    1.080451
     22          6           0        1.393219    1.574607    0.437418
     23          6           0        2.641860    1.196392   -0.064974
     24          6           0        3.041343   -0.129690    0.093805
     25          6           0        2.247626   -1.083085    0.729683
     26          6           0        1.002853   -0.682504    1.224278
     27          1           0       -0.394680    0.943524    1.467693
     28          1           0        1.062594    2.603166    0.324288
     29          1           0        3.296263    1.898622   -0.567017
     30          1           0        2.604500   -2.101180    0.827369
     31          1           0        0.368575   -1.409682    1.723223
     32          7           0        4.361175   -0.541929   -0.433928
     33          8           0        4.690080   -1.716307   -0.281306
     34          8           0        5.041764    0.317143   -0.990194
 ---------------------------------------------------------------------

 SCF Done:  E(RHF) =  -669.534687974     A.U. after   15 cycles
 E2 =    -0.2093054371D+01 EUMP2 =    -0.67162774234544D+03

 The electronic state is 1-A.
 Alpha  occ. eigenvalues --  -20.60782 -20.60777 -15.85836 -11.31221 -11.27793
 Alpha  occ. eigenvalues --  -11.27785 -11.27519 -11.26821 -11.26793 -11.22609
 Alpha  occ. eigenvalues --  -11.22305 -11.22265 -11.22201 -11.22164 -11.21660
 Alpha  occ. eigenvalues --   -1.59857  -1.39410  -1.19398  -1.09311  -1.08791
 Alpha  occ. eigenvalues --   -1.04800  -1.04395  -0.96841  -0.95628  -0.87860
 Alpha  occ. eigenvalues --   -0.86201  -0.82458  -0.80454  -0.79093  -0.77492
 Alpha  occ. eigenvalues --   -0.72055  -0.71180  -0.70567  -0.65970  -0.65054
 Alpha  occ. eigenvalues --   -0.64797  -0.62181  -0.61776  -0.60203  -0.58431
 Alpha  occ. eigenvalues --   -0.56172  -0.55311  -0.53522  -0.53271  -0.53134
 Alpha  occ. eigenvalues --   -0.52877  -0.50805  -0.48814  -0.48809  -0.48749
 Alpha  occ. eigenvalues --   -0.47494  -0.46617  -0.46550  -0.44811  -0.44629
 Alpha  occ. eigenvalues --   -0.37329  -0.36398
 Alpha virt. eigenvalues --    0.04994   0.11158   0.16359   0.18982   0.22522
 Alpha virt. eigenvalues --    0.23351   0.25308   0.25882   0.26734   0.27975
 Alpha virt. eigenvalues --    0.29528   0.29984   0.30864   0.31393   0.31751

 Mulliken charges:
               1
     1  C   -0.304360
     2  C   -0.301897
     3  C   -0.477674
     4  H    0.147100
     5  H    0.154471
     6  H    0.148766
     7  H    0.157470
     8  H    0.161204
     9  H    0.144416
    10  H    0.164126
    11  C   -0.298580
    12  C   -0.299289
    13  C   -0.476232
    14  H    0.146689
    15  H    0.152851
    16  H    0.148236
    17  H    0.155375
    18  H    0.157175
    19  H    0.154277
    20  H    0.162678
    21  C   -0.169429
    22  C   -0.221397
    23  C   -0.170850
    24  C    0.158760
    25  C   -0.170472
    26  C   -0.220396
    27  H    0.228089
    28  H    0.225904
    29  H    0.275990
    30  H    0.275821
    31  H    0.223653
    32  N    0.488017
    33  O   -0.460291
    34  O   -0.460200
 Sum of Mulliken charges =  -0.00000

 Dipole moment (field-independent basis, Debye):
    X=             -4.7781    Y=              1.4404    Z=              1.7467  Tot=              5.2874
 Quadrupole moment (field-independent basis, Debye-Ang):
   XX=           -122.9293   YY=            -91.4367   ZZ=            -93.9250
   XY=              5.2419   XZ=              5.9326   YZ=             -1.9042

 Normal termination of Gaussian 16 at Thu May  6 19:00:24 2021.
