 Gaussian 16, Revision A.03,
 Gaussian 16:  EM64L-G16RevA.03 25-Dec-2016

 -------------
 #p 6-31g* mp2
 -------------

 ------------------------------------------------------
 Input file generated by CHIRIPA (05-May-2021 14:53:14)
 ------------------------------------------------------
 Symbolic Z-matrix:
 Charge =  0 Multiplicity = 1

                         Standard orientation:
 ---------------------------------------------------------------------
 Center     Atomic      Atomic             Coordinates (Angstroms)
 Number     Number       Type             X           Y           Z
 ---------------------------------------------------------------------
      1          6           0        5.416635   -0.021773   -0.223675
      2          6           0        6.013655   -1.349786    0.243160
      3          6           0        7.299490   -1.713563   -0.499865
      4          1           0        5.215542   -0.076482   -1.302337
      5          1           0        6.159824    0.775500   -0.084314
      6          1           0        5.269069   -2.144085    0.104248
      7          1           0        6.213172   -1.291977    1.320874
      8          1           0        8.061609   -0.941682   -0.351623
      9          1           0        7.112142   -1.798633   -1.575162
     10          1           0        7.709212   -2.666401   -0.150454
     11          6           0        4.130825    0.355552    0.509841
     12          6           0        3.533806    1.683565    0.043006
     13          6           0        2.247970    2.047342    0.786032
     14          1           0        3.387637   -0.441721    0.370481
     15          1           0        4.331918    0.410261    1.588504
     16          1           0        3.334289    1.625756   -1.034707
     17          1           0        4.278392    2.477864    0.181919
     18          1           0        2.435319    2.132412    1.861329
     19          1           0        1.485851    1.275461    0.637790
     20          1           0        1.838249    3.000180    0.436621
     21          6           0       -1.462411    0.889663   -0.542881
     22          6           0       -2.607545    1.692494   -0.568431
     23          6           0       -3.868807    1.138062   -0.331004
     24          6           0       -3.948648   -0.228997   -0.070107
     25          6           0       -2.826255   -1.055120   -0.037822
     26          6           0       -1.575222   -0.479168   -0.278125
     27          1           0       -0.486606    1.328718   -0.728437
     28          1           0       -2.522946    2.755847   -0.773777
     29          1           0       -4.771682    1.736430   -0.344759
     30          1           0       -2.942314   -2.111948    0.169689
     31          1           0       -0.687610   -1.105085   -0.257651
     32          7           0       -5.278475   -0.827340    0.182769
     33          8           0       -5.322030   -2.034401    0.410245
     34          8           0       -6.252059   -0.077932    0.148707
 ---------------------------------------------------------------------

 SCF Done:  E(RHF) =  -669.535380148     A.U. after   15 cycles
 E2 =    -0.2090996694D+01 EUMP2 =    -0.67162637684184D+03

 The electronic state is 1-A.
 Alpha  occ. eigenvalues --  -20.60733 -20.60728 -15.85787 -11.31147 -11.27724
 Alpha  occ. eigenvalues --  -11.27717 -11.27411 -11.26735 -11.26714 -11.22581
 Alpha  occ. eigenvalues --  -11.22270 -11.22233 -11.22172 -11.22046 -11.21541
 Alpha  occ. eigenvalues --   -1.59809  -1.39362  -1.19320  -1.09216  -1.08712
 Alpha  occ. eigenvalues --   -1.04725  -1.04331  -0.96795  -0.95547  -0.87811
 Alpha  occ. eigenvalues --   -0.86122  -0.82385  -0.80398  -0.78992  -0.77433
 Alpha  occ. eigenvalues --   -0.72005  -0.71132  -0.70443  -0.65852  -0.64971
 Alpha  occ. eigenvalues --   -0.64734  -0.62078  -0.61737  -0.60178  -0.58379
 Alpha  occ. eigenvalues --   -0.56213  -0.55128  -0.53477  -0.53213  -0.53031
 Alpha  occ. eigenvalues --   -0.52817  -0.50712  -0.48764  -0.48760  -0.48702
 Alpha  occ. eigenvalues --   -0.47426  -0.46539  -0.46448  -0.44769  -0.44572
 Alpha  occ. eigenvalues --   -0.37283  -0.36332
 Alpha virt. eigenvalues --    0.05091   0.11295   0.16542   0.19786   0.22547
 Alpha virt. eigenvalues --    0.23810   0.25533   0.26408   0.26589   0.27549
 Alpha virt. eigenvalues --    0.29345   0.30594   0.30752   0.31009   0.31408

 Mulliken charges:
               1
     1  C   -0.298857
     2  C   -0.300052
     3  C   -0.476124
     4  H    0.149792
     5  H    0.151446
     6  H    0.151430
     7  H    0.153254
     8  H    0.156175
     9  H    0.155581
    10  H    0.162013
    11  C   -0.297732
    12  C   -0.300916
    13  C   -0.479922
    14  H    0.145452
    15  H    0.152572
    16  H    0.150390
    17  H    0.156506
    18  H    0.162532
    19  H    0.147829
    20  H    0.159055
    21  C   -0.173157
    22  C   -0.219825
    23  C   -0.170783
    24  C    0.158247
    25  C   -0.170716
    26  C   -0.220435
    27  H    0.232401
    28  H    0.223486
    29  H    0.275451
    30  H    0.275436
    31  H    0.222493
    32  N    0.488100
    33  O   -0.460597
    34  O   -0.460523
 Sum of Mulliken charges =  -0.00000

 Dipole moment (field-independent basis, Debye):
    X=              4.9163    Y=              2.1431    Z=             -0.8452  Tot=              5.4293
 Quadrupole moment (field-independent basis, Debye-Ang):
   XX=           -131.0272   YY=            -91.6161   ZZ=            -95.0712
   XY=            -10.9632   XZ=              4.4817   YZ=             -0.3188

 Normal termination of Gaussian 16 at Thu May  6 01:02:04 2021.
