 Gaussian 16, Revision A.03,
 Gaussian 16:  EM64L-G16RevA.03 25-Dec-2016

 -------------
 #p 6-31g* mp2
 -------------

 ------------------------------------------------------
 Input file generated by CHIRIPA (05-May-2021 14:51:12)
 ------------------------------------------------------
 Symbolic Z-matrix:
 Charge =  0 Multiplicity = 1

                         Standard orientation:
 ---------------------------------------------------------------------
 Center     Atomic      Atomic             Coordinates (Angstroms)
 Number     Number       Type             X           Y           Z
 ---------------------------------------------------------------------
      1          6           0        2.055472   -1.032932   -0.404100
      2          6           0        1.613417   -2.444131   -0.015398
      3          6           0        0.325927   -2.875036   -0.718594
      4          1           0        1.250586   -0.324496   -0.164890
      5          1           0        2.198353   -0.987757   -1.492649
      6          1           0        1.472750   -2.487004    1.072256
      7          1           0        2.419524   -3.149265   -0.255384
      8          1           0        0.457187   -2.860585   -1.805407
      9          1           0       -0.494967   -2.194561   -0.470224
     10          1           0        0.028124   -3.886823   -0.426260
     11          6           0        3.341115   -0.587872    0.290718
     12          6           0        3.783169    0.823327   -0.097984
     13          6           0        5.070659    1.254231    0.605212
     14          1           0        3.198234   -0.633047    1.379267
     15          1           0        4.146001   -1.296308    0.051508
     16          1           0        2.977062    1.528461    0.142002
     17          1           0        3.923837    0.866200   -1.185638
     18          1           0        5.891553    0.573756    0.356842
     19          1           0        4.939399    1.239780    1.692025
     20          1           0        5.368463    2.266019    0.312878
     21          6           0       -2.472080    1.490507    0.320732
     22          6           0       -1.775737    2.349800   -0.735064
     23          6           0       -1.329020    3.707358   -0.191673
     24          1           0       -3.342498    2.035017    0.711664
     25          1           0       -1.790286    1.340511    1.169291
     26          1           0       -2.458141    2.496977   -1.581988
     27          1           0       -0.906987    1.803102   -1.123666
     28          1           0       -0.628344    3.577967    0.639539
     29          1           0       -2.188312    4.275784    0.178612
     30          1           0       -0.833650    4.305261   -0.963022
     31          6           0       -2.924506    0.130298   -0.207350
     32          6           0       -3.620849   -0.728996    0.848446
     33          6           0       -4.067566   -2.086554    0.305055
     34          1           0       -3.606301    0.280294   -1.055909
     35          1           0       -2.054089   -0.414212   -0.598282
     36          1           0       -4.489599   -0.182298    1.237047
     37          1           0       -2.938445   -0.876172    1.695370
     38          1           0       -3.208274   -2.654980   -0.065231
     39          1           0       -4.768242   -1.957163   -0.526156
     40          1           0       -4.562936   -2.684457    1.076404
 ---------------------------------------------------------------------

 SCF Done:  E(RHF) =  -470.733277490     A.U. after   11 cycles
 E2 =    -0.1583582555D+01 EUMP2 =    -0.47231686004496D+03

 The electronic state is 1-A.
 Alpha  occ. eigenvalues --  -11.21677 -11.21643 -11.21612 -11.21603 -11.21478
 Alpha  occ. eigenvalues --  -11.21417 -11.21413 -11.21353 -11.21140 -11.21100
 Alpha  occ. eigenvalues --  -11.21087 -11.21031  -1.08500  -1.08439  -1.03595
 Alpha  occ. eigenvalues --   -1.03528  -0.96042  -0.95980  -0.87061  -0.86995
 Alpha  occ. eigenvalues --   -0.79674  -0.79577  -0.78347  -0.78218  -0.65259
 Alpha  occ. eigenvalues --   -0.64968  -0.61090  -0.60841  -0.59409  -0.59350
 Alpha  occ. eigenvalues --   -0.57658  -0.57581  -0.55333  -0.55271  -0.52733
 Alpha  occ. eigenvalues --   -0.52672  -0.52492  -0.52383  -0.50038  -0.49897
 Alpha  occ. eigenvalues --   -0.48042  -0.47867  -0.46808  -0.46563  -0.46055
 Alpha  occ. eigenvalues --   -0.45795  -0.45755  -0.45365  -0.43845  -0.43788
 Alpha virt. eigenvalues --    0.19648   0.22571   0.23621   0.24764   0.25529
 Alpha virt. eigenvalues --    0.26943   0.27197   0.27240   0.28158   0.29627
 Alpha virt. eigenvalues --    0.30758   0.31583   0.31707   0.31756   0.32169

 Mulliken charges:
               1
     1  C   -0.300525
     2  C   -0.299362
     3  C   -0.485257
     4  H    0.150401
     5  H    0.149944
     6  H    0.151957
     7  H    0.152510
     8  H    0.155847
     9  H    0.163450
    10  H    0.160975
    11  C   -0.298336
    12  C   -0.299767
    13  C   -0.475753
    14  H    0.149566
    15  H    0.150061
    16  H    0.151933
    17  H    0.152105
    18  H    0.155265
    19  H    0.155213
    20  H    0.160529
    21  C   -0.297586
    22  C   -0.301719
    23  C   -0.475548
    24  H    0.149903
    25  H    0.148595
    26  H    0.152237
    27  H    0.153774
    28  H    0.154603
    29  H    0.155283
    30  H    0.160531
    31  C   -0.306637
    32  C   -0.299157
    33  C   -0.478884
    34  H    0.150121
    35  H    0.156364
    36  H    0.152098
    37  H    0.151270
    38  H    0.158778
    39  H    0.155139
    40  H    0.160081
 Sum of Mulliken charges =  -0.00000

 Dipole moment (field-independent basis, Debye):
    X=              0.0213    Y=             -0.0124    Z=             -0.0202  Tot=              0.0318
 Quadrupole moment (field-independent basis, Debye-Ang):
   XX=            -84.5929   YY=            -85.6780   ZZ=            -84.3577
   XY=             -1.4127   XZ=             -0.6466   YZ=             -0.2517

 Normal termination of Gaussian 16 at Wed May  5 16:48:21 2021.
