 Gaussian 16, Revision A.03,
 Gaussian 16:  EM64L-G16RevA.03 25-Dec-2016

 -------------
 #p 6-31g* mp2
 -------------

 ------------------------------------------------------
 Input file generated by CHIRIPA (05-May-2021 14:53:15)
 ------------------------------------------------------
 Symbolic Z-matrix:
 Charge =  0 Multiplicity = 1

                         Standard orientation:
 ---------------------------------------------------------------------
 Center     Atomic      Atomic             Coordinates (Angstroms)
 Number     Number       Type             X           Y           Z
 ---------------------------------------------------------------------
      1          6           0        3.040630    1.276647    0.083490
      2          6           0        1.996823    1.744240    1.098284
      3          6           0        1.678214    3.234537    0.974594
      4          1           0        3.960618    1.862066    0.217106
      5          1           0        2.677697    1.491985   -0.931056
      6          1           0        2.361009    1.526827    2.110567
      7          1           0        1.079278    1.157510    0.962364
      8          1           0        1.290756    3.464118   -0.023288
      9          1           0        2.579769    3.835534    1.131439
     10          1           0        0.929833    3.547412    1.709370
     11          6           0        3.369711   -0.210995    0.194638
     12          6           0        4.413519   -0.678588   -0.820157
     13          6           0        4.732128   -2.168884   -0.696467
     14          1           0        3.732644   -0.426333    1.209184
     15          1           0        2.449723   -0.796413    0.061021
     16          1           0        5.331064   -0.091858   -0.684236
     17          1           0        4.049333   -0.461175   -1.832439
     18          1           0        3.830572   -2.769882   -0.853311
     19          1           0        5.119585   -2.398466    0.301416
     20          1           0        5.480508   -2.481760   -1.431243
     21          6           0       -1.555265   -2.607961    0.705139
     22          6           0       -0.726724   -1.681915    0.062893
     23          6           0       -1.241607   -0.464381   -0.392138
     24          6           0       -2.595763   -0.204386   -0.187317
     25          6           0       -3.446781   -1.106654    0.449056
     26          6           0       -2.910261   -2.317887    0.895834
     27          1           0       -1.146888   -3.551324    1.055412
     28          1           0        0.325967   -1.904508   -0.086574
     29          1           0       -0.622696    0.270509   -0.892440
     30          1           0       -4.492119   -0.856488    0.583604
     31          1           0       -3.556078   -3.035181    1.394285
     32          7           0       -3.152300    1.081227   -0.664670
     33          8           0       -4.348721    1.286412   -0.472023
     34          8           0       -2.381555    1.859363   -1.222426
 ---------------------------------------------------------------------

 SCF Done:  E(RHF) =  -669.535230307     A.U. after   15 cycles
 E2 =    -0.2092750388D+01 EUMP2 =    -0.67162798069498D+03

 The electronic state is 1-A.
 Alpha  occ. eigenvalues --  -20.60792 -20.60787 -15.85846 -11.31221 -11.27789
 Alpha  occ. eigenvalues --  -11.27785 -11.27521 -11.26805 -11.26787 -11.22200
 Alpha  occ. eigenvalues --  -11.22109 -11.21852 -11.21786 -11.21716 -11.20989
 Alpha  occ. eigenvalues --   -1.59866  -1.39420  -1.19395  -1.08943  -1.08782
 Alpha  occ. eigenvalues --   -1.04802  -1.03920  -0.96371  -0.95618  -0.87379
 Alpha  occ. eigenvalues --   -0.86195  -0.82457  -0.80006  -0.78762  -0.77492
 Alpha  occ. eigenvalues --   -0.72064  -0.71189  -0.70502  -0.65637  -0.65038
 Alpha  occ. eigenvalues --   -0.64810  -0.62145  -0.61306  -0.59754  -0.57975
 Alpha  occ. eigenvalues --   -0.55680  -0.55291  -0.53138  -0.53008  -0.52960
 Alpha  occ. eigenvalues --   -0.52724  -0.50302  -0.48826  -0.48818  -0.48300
 Alpha  occ. eigenvalues --   -0.47055  -0.46278  -0.46187  -0.44822  -0.44203
 Alpha  occ. eigenvalues --   -0.37367  -0.36372
 Alpha virt. eigenvalues --    0.04989   0.11209   0.16398   0.18936   0.22920
 Alpha virt. eigenvalues --    0.23204   0.24952   0.26597   0.27551   0.28248
 Alpha virt. eigenvalues --    0.29584   0.30663   0.31389   0.31666   0.32106

 Mulliken charges:
               1
     1  C   -0.300088
     2  C   -0.304019
     3  C   -0.476379
     4  H    0.153288
     5  H    0.150391
     6  H    0.151964
     7  H    0.149650
     8  H    0.162549
     9  H    0.154229
    10  H    0.163809
    11  C   -0.301840
    12  C   -0.299955
    13  C   -0.475059
    14  H    0.152364
    15  H    0.139386
    16  H    0.155845
    17  H    0.153250
    18  H    0.148746
    19  H    0.156395
    20  H    0.163559
    21  C   -0.171538
    22  C   -0.223079
    23  C   -0.172880
    24  C    0.157720
    25  C   -0.170969
    26  C   -0.218223
    27  H    0.226439
    28  H    0.231236
    29  H    0.276377
    30  H    0.275774
    31  H    0.223653
    32  N    0.488247
    33  O   -0.460282
    34  O   -0.460558
 Sum of Mulliken charges =  -0.00000

 Dipole moment (field-independent basis, Debye):
    X=              2.0232    Y=             -4.4166    Z=              1.6936  Tot=              5.1447
 Quadrupole moment (field-independent basis, Debye-Ang):
   XX=            -99.8925   YY=            -93.8718   ZZ=            -95.0934
   XY=             13.5644   XZ=             -6.1481   YZ=              0.0171

 Normal termination of Gaussian 16 at Wed May  5 20:16:55 2021.
