 Gaussian 16, Revision A.03,
 Gaussian 16:  EM64L-G16RevA.03 25-Dec-2016

 -------------
 #p 6-31g* mp2
 -------------

 ------------------------------------------------------
 Input file generated by CHIRIPA (05-May-2021 14:51:09)
 ------------------------------------------------------
 Symbolic Z-matrix:
 Charge =  0 Multiplicity = 1

                         Standard orientation:
 ---------------------------------------------------------------------
 Center     Atomic      Atomic             Coordinates (Angstroms)
 Number     Number       Type             X           Y           Z
 ---------------------------------------------------------------------
      1          6           0        2.661888   -0.444973   -0.096833
      2          6           0        1.821749   -1.715997   -0.225872
      3          6           0        0.327520   -1.424983   -0.368652
      4          1           0        2.314189    0.130096    0.772273
      5          1           0        2.493409    0.188659   -0.978605
      6          1           0        1.992822   -2.347675    0.655225
      7          1           0        2.171614   -2.288202   -1.094660
      8          1           0        0.137092   -0.814810   -1.257486
      9          1           0       -0.042716   -0.874622    0.502341
     10          1           0       -0.254283   -2.347545   -0.459452
     11          6           0        4.157798   -0.719536    0.046678
     12          6           0        4.997937    0.551488    0.175716
     13          6           0        6.492166    0.260474    0.318496
     14          1           0        4.326277   -1.353168    0.928449
     15          1           0        4.505497   -1.294605   -0.822429
     16          1           0        4.648072    1.123693    1.044504
     17          1           0        4.826865    1.183166   -0.705381
     18          1           0        6.862402   -0.289887   -0.552496
     19          1           0        6.682594   -0.349699    1.207331
     20          1           0        7.073969    1.183036    0.409297
     21          6           0       -3.981873    0.269148    0.422794
     22          6           0       -4.709093   -0.842789   -0.333997
     23          6           0       -5.850872   -1.459356    0.474695
     24          1           0       -3.588840   -0.134359    1.366008
     25          1           0       -4.704195    1.051388    0.694360
     26          1           0       -3.985358   -1.622044   -0.605262
     27          1           0       -5.100275   -0.436633   -1.275606
     28          1           0       -6.594470   -0.698556    0.733236
     29          1           0       -5.473218   -1.890701    1.407390
     30          1           0       -6.356995   -2.251982   -0.085165
     31          6           0       -2.837813    0.895360   -0.372639
     32          6           0       -2.110593    2.007298    0.384152
     33          6           0       -0.968815    2.623866   -0.424540
     34          1           0       -2.115492    0.113121   -0.644205
     35          1           0       -3.230846    1.298869   -1.315852
     36          1           0       -1.719412    1.601142    1.325763
     37          1           0       -2.834328    2.786552    0.655418
     38          1           0       -1.346468    3.055210   -1.357235
     39          1           0       -0.225216    1.863065   -0.683081
     40          1           0       -0.462691    3.416490    0.135322
 ---------------------------------------------------------------------

 SCF Done:  E(RHF) =  -470.732709347     A.U. after   11 cycles
 E2 =    -0.1583847969D+01 EUMP2 =    -0.47231655731593D+03

 The electronic state is 1-A.
 Alpha  occ. eigenvalues --  -11.21690 -11.21626 -11.21525 -11.21506 -11.21467
 Alpha  occ. eigenvalues --  -11.21402 -11.21281 -11.21210 -11.21158 -11.21090
 Alpha  occ. eigenvalues --  -11.21016 -11.20956  -1.08498  -1.08317  -1.03613
 Alpha  occ. eigenvalues --   -1.03431  -0.96066  -0.95880  -0.87101  -0.86890
 Alpha  occ. eigenvalues --   -0.79719  -0.79479  -0.78332  -0.78091  -0.65124
 Alpha  occ. eigenvalues --   -0.64965  -0.61001  -0.60866  -0.59431  -0.59251
 Alpha  occ. eigenvalues --   -0.57652  -0.57496  -0.55349  -0.55178  -0.52777
 Alpha  occ. eigenvalues --   -0.52597  -0.52512  -0.52278  -0.50017  -0.49807
 Alpha  occ. eigenvalues --   -0.48160  -0.47736  -0.46722  -0.46517  -0.45984
 Alpha  occ. eigenvalues --   -0.45768  -0.45657  -0.45279  -0.43843  -0.43678
 Alpha virt. eigenvalues --    0.20851   0.22890   0.23588   0.24889   0.25674
 Alpha virt. eigenvalues --    0.26189   0.26962   0.27363   0.28300   0.29443
 Alpha virt. eigenvalues --    0.30505   0.31080   0.31555   0.31872   0.32298

 Mulliken charges:
               1
     1  C   -0.299634
     2  C   -0.300479
     3  C   -0.480489
     4  H    0.150348
     5  H    0.150388
     6  H    0.152198
     7  H    0.152381
     8  H    0.157539
     9  H    0.157570
    10  H    0.160737
    11  C   -0.298388
    12  C   -0.299722
    13  C   -0.475766
    14  H    0.149664
    15  H    0.149811
    16  H    0.152145
    17  H    0.152270
    18  H    0.155212
    19  H    0.155173
    20  H    0.160438
    21  C   -0.297479
    22  C   -0.299635
    23  C   -0.475614
    24  H    0.148782
    25  H    0.148908
    26  H    0.151958
    27  H    0.151684
    28  H    0.155037
    29  H    0.154966
    30  H    0.159904
    31  C   -0.308875
    32  C   -0.298894
    33  C   -0.480297
    34  H    0.164072
    35  H    0.148298
    36  H    0.150304
    37  H    0.151527
    38  H    0.154397
    39  H    0.160020
    40  H    0.159537
 Sum of Mulliken charges =  -0.00000

 Dipole moment (field-independent basis, Debye):
    X=              0.0783    Y=             -0.0501    Z=             -0.0194  Tot=              0.0949
 Quadrupole moment (field-independent basis, Debye-Ang):
   XX=            -86.5042   YY=            -84.7323   ZZ=            -83.8142
   XY=             -0.7889   XZ=              0.4415   YZ=             -0.0409

 Normal termination of Gaussian 16 at Wed May  5 19:44:47 2021.
