 Gaussian 16, Revision A.03,
 Gaussian 16:  EM64L-G16RevA.03 25-Dec-2016

 -------------
 #p 6-31g* mp2
 -------------

 ------------------------------------------------------
 Input file generated by CHIRIPA (05-May-2021 14:57:23)
 ------------------------------------------------------
 Symbolic Z-matrix:
 Charge =  0 Multiplicity = 1

                         Standard orientation:
 ---------------------------------------------------------------------
 Center     Atomic      Atomic             Coordinates (Angstroms)
 Number     Number       Type             X           Y           Z
 ---------------------------------------------------------------------
      1          6           0       -2.453667    2.279600    1.162108
      2          6           0       -3.051474    1.258041    1.907470
      3          6           0       -3.314314    0.014624    1.324909
      4          6           0       -2.964706   -0.173576   -0.011372
      5          6           0       -2.367982    0.824472   -0.780208
      6          6           0       -2.114427    2.059942   -0.176991
      7          1           0       -2.253093    3.242429    1.622679
      8          1           0       -3.316007    1.425795    2.947627
      9          1           0       -3.776133   -0.793665    1.878812
     10          1           0       -2.115602    0.627376   -1.815039
     11          1           0       -1.650059    2.851471   -0.758274
     12          7           0       -3.238048   -1.485720   -0.639037
     13          8           0       -2.920486   -1.626306   -1.818031
     14          8           0       -3.764680   -2.348746    0.059878
     15          6           0        2.192511    2.187662   -1.020922
     16          6           0        3.426032    2.068045   -0.372353
     17          6           0        3.839156    0.837191    0.146180
     18          6           0        2.989953   -0.258302   -0.002278
     19          6           0        1.755143   -0.171035   -0.643307
     20          6           0        1.362468    1.069712   -1.154093
     21          1           0        1.879529    3.147661   -1.420721
     22          1           0        4.072708    2.934563   -0.267471
     23          1           0        4.788967    0.716431    0.652829
     24          1           0        1.132148   -1.052704   -0.732485
     25          1           0        0.403961    1.159657   -1.657303
     26          7           0        3.416486   -1.566588    0.542569
     27          8           0        2.650064   -2.516622    0.398798
     28          8           0        4.509146   -1.617216    1.103075
 ---------------------------------------------------------------------

 SCF Done:  E(RHF) =  -868.335575546     A.U. after   16 cycles
 E2 =    -0.2601947145D+01 EUMP2 =    -0.87093752269039D+03

 The electronic state is 1-A.
 Alpha  occ. eigenvalues --  -20.61276 -20.61243 -20.60812 -20.60793 -15.86322
 Alpha  occ. eigenvalues --  -15.85862 -11.31852 -11.31354 -11.28525 -11.28336
 Alpha  occ. eigenvalues --  -11.28145 -11.27941 -11.27898 -11.27785 -11.27565
 Alpha  occ. eigenvalues --  -11.27379 -11.27023 -11.27013  -1.60334  -1.59880
 Alpha  occ. eigenvalues --   -1.39884  -1.39428  -1.20027  -1.19550  -1.09376
 Alpha  occ. eigenvalues --   -1.08947  -1.05490  -1.04957  -0.96193  -0.95749
 Alpha  occ. eigenvalues --   -0.86849  -0.86389  -0.83050  -0.82567  -0.78098
 Alpha  occ. eigenvalues --   -0.77566  -0.72532  -0.72077  -0.71664  -0.71207
 Alpha  occ. eigenvalues --   -0.71126  -0.70693  -0.65711  -0.65488  -0.65201
 Alpha  occ. eigenvalues --   -0.65028  -0.62897  -0.62220  -0.55919  -0.55537
 Alpha  occ. eigenvalues --   -0.53862  -0.53580  -0.53248  -0.52993  -0.49305
 Alpha  occ. eigenvalues --   -0.49279  -0.48853  -0.48822  -0.45253  -0.44805
 Alpha  occ. eigenvalues --   -0.38000  -0.37640  -0.37162  -0.36332
 Alpha virt. eigenvalues --    0.04435   0.04963   0.10387   0.11183   0.15841
 Alpha virt. eigenvalues --    0.16433   0.19085   0.22054   0.25165   0.26466
 Alpha virt. eigenvalues --    0.28052   0.29035   0.30312   0.30964   0.32556

 Mulliken charges:
               1
     1  C   -0.169966
     2  C   -0.217022
     3  C   -0.169178
     4  C    0.159850
     5  C   -0.179750
     6  C   -0.213408
     7  H    0.227068
     8  H    0.227064
     9  H    0.279437
    10  H    0.271007
    11  H    0.216751
    12  N    0.487992
    13  O   -0.462021
    14  O   -0.454771
    15  C   -0.174499
    16  C   -0.218384
    17  C   -0.171142
    18  C    0.158637
    19  C   -0.172234
    20  C   -0.212714
    21  H    0.220370
    22  H    0.222924
    23  H    0.276137
    24  H    0.281123
    25  H    0.216510
    26  N    0.487676
    27  O   -0.456530
    28  O   -0.460929
 Sum of Mulliken charges =  -0.00000

 Dipole moment (field-independent basis, Debye):
    X=             -0.7013    Y=              9.0258    Z=              0.5539  Tot=              9.0700
 Quadrupole moment (field-independent basis, Debye-Ang):
   XX=           -115.3607   YY=           -108.5528   ZZ=           -101.5068
   XY=              3.0387   XZ=            -13.2300   YZ=             -0.4998

 Normal termination of Gaussian 16 at Fri May  7 12:32:50 2021.
