 Gaussian 16, Revision A.03,
 Gaussian 16:  EM64L-G16RevA.03 25-Dec-2016

 -------------
 #p 6-31g* mp2
 -------------

 ------------------------------------------------------
 Input file generated by CHIRIPA (05-May-2021 14:51:14)
 ------------------------------------------------------
 Symbolic Z-matrix:
 Charge =  0 Multiplicity = 1

                         Standard orientation:
 ---------------------------------------------------------------------
 Center     Atomic      Atomic             Coordinates (Angstroms)
 Number     Number       Type             X           Y           Z
 ---------------------------------------------------------------------
      1          6           0       -4.290363   -0.383651    0.260184
      2          6           0       -5.125386   -1.339983   -0.591960
      3          6           0       -5.721625   -2.489252    0.221351
      4          1           0       -3.483092   -0.947005    0.747924
      5          1           0       -4.918427    0.022723    1.065039
      6          1           0       -4.496305   -1.743369   -1.395796
      7          1           0       -5.930648   -0.774252   -1.077879
      8          1           0       -6.371605   -2.103913    1.013588
      9          1           0       -4.929112   -3.078537    0.693864
     10          1           0       -6.314644   -3.160680   -0.407436
     11          6           0       -3.687608    0.770540   -0.538727
     12          6           0       -2.852585    1.726872    0.313417
     13          6           0       -2.256346    2.876141   -0.499893
     14          1           0       -3.059544    0.364166   -1.343582
     15          1           0       -4.494879    1.333894   -1.026466
     16          1           0       -2.047323    1.161141    0.799336
     17          1           0       -3.481666    2.130258    1.117253
     18          1           0       -3.048859    3.465426   -0.972407
     19          1           0       -1.606366    2.490802   -1.292131
     20          1           0       -1.663327    3.547569    0.128893
     21          6           0        3.246322   -0.286543   -0.013095
     22          6           0        2.329229    0.422416    0.984053
     23          6           0        0.846546    0.226863    0.665927
     24          1           0        3.034734    0.085645   -1.024851
     25          1           0        3.010059   -1.359641   -0.019036
     26          1           0        2.568090    1.493647    0.989126
     27          1           0        2.543158    0.048636    1.993578
     28          1           0        0.586418   -0.836493    0.680417
     29          1           0        0.611492    0.616728   -0.329742
     30          1           0        0.208987    0.742006    1.391189
     31          6           0        4.731649   -0.100347    0.291637
     32          6           0        5.648743   -0.809305   -0.705511
     33          6           0        7.131425   -0.613751   -0.387383
     34          1           0        4.967911    0.972752    0.297580
     35          1           0        4.943238   -0.472534    1.303394
     36          1           0        5.434814   -0.435525   -1.715035
     37          1           0        5.409880   -1.880535   -0.710583
     38          1           0        7.366478   -1.003617    0.608285
     39          1           0        7.391553    0.449604   -0.401874
     40          1           0        7.768984   -1.128894   -1.112646
 ---------------------------------------------------------------------

 SCF Done:  E(RHF) =  -470.733028018     A.U. after   11 cycles
 E2 =    -0.1582813819D+01 EUMP2 =    -0.47231584183698D+03

 The electronic state is 1-A.
 Alpha  occ. eigenvalues --  -11.21646 -11.21623 -11.21554 -11.21451 -11.21438
 Alpha  occ. eigenvalues --  -11.21377 -11.21331 -11.21268 -11.21137 -11.21088
 Alpha  occ. eigenvalues --  -11.21037 -11.21007  -1.08466  -1.08353  -1.03580
 Alpha  occ. eigenvalues --   -1.03449  -0.96036  -0.95905  -0.87050  -0.86929
 Alpha  occ. eigenvalues --   -0.79672  -0.79493  -0.78280  -0.78164  -0.65102
 Alpha  occ. eigenvalues --   -0.64985  -0.61033  -0.60833  -0.59449  -0.59219
 Alpha  occ. eigenvalues --   -0.57663  -0.57493  -0.55379  -0.55135  -0.52755
 Alpha  occ. eigenvalues --   -0.52599  -0.52449  -0.52337  -0.49972  -0.49837
 Alpha  occ. eigenvalues --   -0.47958  -0.47836  -0.46659  -0.46549  -0.45830
 Alpha  occ. eigenvalues --   -0.45743  -0.45705  -0.45639  -0.43774  -0.43685
 Alpha virt. eigenvalues --    0.21490   0.22991   0.23674   0.24925   0.26162
 Alpha virt. eigenvalues --    0.26426   0.26968   0.27626   0.27827   0.29087
 Alpha virt. eigenvalues --    0.29959   0.30724   0.31655   0.31872   0.32388

 Mulliken charges:
               1
     1  C   -0.298380
     2  C   -0.299601
     3  C   -0.475650
     4  H    0.149873
     5  H    0.149223
     6  H    0.151877
     7  H    0.151798
     8  H    0.155077
     9  H    0.155053
    10  H    0.160065
    11  C   -0.297587
    12  C   -0.307541
    13  C   -0.475317
    14  H    0.149362
    15  H    0.149048
    16  H    0.161791
    17  H    0.150801
    18  H    0.154729
    19  H    0.154873
    20  H    0.159563
    21  C   -0.298729
    22  C   -0.299740
    23  C   -0.479297
    24  H    0.149680
    25  H    0.149447
    26  H    0.152450
    27  H    0.152077
    28  H    0.154736
    29  H    0.156785
    30  H    0.163163
    31  C   -0.298332
    32  C   -0.299645
    33  C   -0.475723
    34  H    0.149674
    35  H    0.149713
    36  H    0.151985
    37  H    0.151917
    38  H    0.155208
    39  H    0.155251
    40  H    0.160323
 Sum of Mulliken charges =  -0.00000

 Dipole moment (field-independent basis, Debye):
    X=              0.0499    Y=             -0.0090    Z=              0.0140  Tot=              0.0526
 Quadrupole moment (field-independent basis, Debye-Ang):
   XX=            -85.7387   YY=            -84.6345   ZZ=            -84.6305
   XY=             -0.9043   XZ=             -0.0579   YZ=              0.0105

 Normal termination of Gaussian 16 at Thu May  6 00:51:16 2021.
