 Gaussian 16, Revision A.03,
 Gaussian 16:  EM64L-G16RevA.03 25-Dec-2016

 -------------
 #p 6-31g* mp2
 -------------

 ------------------------------------------------------
 Input file generated by CHIRIPA (05-May-2021 14:55:23)
 ------------------------------------------------------
 Symbolic Z-matrix:
 Charge =  0 Multiplicity = 1

                         Standard orientation:
 ---------------------------------------------------------------------
 Center     Atomic      Atomic             Coordinates (Angstroms)
 Number     Number       Type             X           Y           Z
 ---------------------------------------------------------------------
      1          6           0       -3.094041    1.076876    0.840340
      2          6           0       -2.281878    0.398244    1.754873
      3          6           0       -1.492390   -0.678623    1.340610
      4          6           0       -1.539659   -1.051772   -0.001707
      5          6           0       -2.338559   -0.395599   -0.936847
      6          6           0       -3.119744    0.678491   -0.500238
      7          1           0       -3.704109    1.912334    1.170829
      8          1           0       -2.259914    0.705437    2.796600
      9          1           0       -0.854572   -1.221614    2.027463
     10          1           0       -2.339344   -0.724992   -1.968796
     11          1           0       -3.749530    1.203679   -1.212693
     12          7           0       -0.708258   -2.190333   -0.452097
     13          8           0       -0.767724   -2.499517   -1.640165
     14          8           0       -0.012883   -2.751994    0.391483
     15          6           0        2.454135    0.438715   -0.300694
     16          6           0        3.426844   -0.128591    0.733707
     17          6           0        4.034740   -1.463960    0.303536
     18          1           0        1.651986   -0.290483   -0.478943
     19          1           0        2.979756    0.565264   -1.257303
     20          1           0        2.899905   -0.252733    1.688453
     21          1           0        4.226667    0.602123    0.909656
     22          1           0        4.584763   -1.351873   -0.636418
     23          1           0        3.250463   -2.211586    0.146805
     24          1           0        4.726982   -1.851404    1.057557
     25          6           0        1.838176    1.773440    0.115035
     26          6           0        0.865466    2.340746   -0.919366
     27          6           0        0.257570    3.676114   -0.489194
     28          1           0        1.312555    1.646892    1.071645
     29          1           0        2.640324    2.502638    0.293284
     30          1           0        0.065644    1.610032   -1.095314
     31          1           0        1.392405    2.464888   -1.874111
     32          1           0        1.041847    4.423741   -0.332463
     33          1           0       -0.292453    3.564027    0.450760
     34          1           0       -0.434672    4.063559   -1.243216
 ---------------------------------------------------------------------

 SCF Done:  E(RHF) =  -669.536091925     A.U. after   15 cycles
 E2 =    -0.2094962155D+01 EUMP2 =    -0.67163105407991D+03

 The electronic state is 1-A.
 Alpha  occ. eigenvalues --  -20.61006 -20.61000 -15.86032 -11.31376 -11.27947
 Alpha  occ. eigenvalues --  -11.27936 -11.27677 -11.26956 -11.26944 -11.21484
 Alpha  occ. eigenvalues --  -11.21208 -11.21198 -11.21078 -11.20959 -11.20180
 Alpha  occ. eigenvalues --   -1.60071  -1.39622  -1.19556  -1.08949  -1.08130
 Alpha  occ. eigenvalues --   -1.04949  -1.03186  -0.95787  -0.95642  -0.86656
 Alpha  occ. eigenvalues --   -0.86341  -0.82615  -0.79288  -0.77929  -0.77668
 Alpha  occ. eigenvalues --   -0.72253  -0.71413  -0.70644  -0.65204  -0.64939
 Alpha  occ. eigenvalues --   -0.64765  -0.62289  -0.60598  -0.59066  -0.57246
 Alpha  occ. eigenvalues --   -0.55439  -0.54923  -0.53269  -0.53030  -0.52340
 Alpha  occ. eigenvalues --   -0.52059  -0.49568  -0.49017  -0.49012  -0.47577
 Alpha  occ. eigenvalues --   -0.46330  -0.45491  -0.45424  -0.44904  -0.43461
 Alpha  occ. eigenvalues --   -0.37497  -0.36510
 Alpha virt. eigenvalues --    0.04819   0.11065   0.16288   0.21113   0.22808
 Alpha virt. eigenvalues --    0.24472   0.26423   0.26918   0.27763   0.28114
 Alpha virt. eigenvalues --    0.28478   0.30878   0.31363   0.31891   0.32367

 Mulliken charges:
               1
     1  C   -0.169743
     2  C   -0.218713
     3  C   -0.171241
     4  C    0.157561
     5  C   -0.173234
     6  C   -0.216606
     7  H    0.227016
     8  H    0.224576
     9  H    0.276346
    10  H    0.276745
    11  H    0.224813
    12  N    0.489620
    13  O   -0.457665
    14  O   -0.460032
    15  C   -0.299773
    16  C   -0.296528
    17  C   -0.481878
    18  H    0.150902
    19  H    0.150516
    20  H    0.148083
    21  H    0.148224
    22  H    0.152420
    23  H    0.174627
    24  H    0.156575
    25  C   -0.297289
    26  C   -0.302997
    27  C   -0.474174
    28  H    0.144653
    29  H    0.148433
    30  H    0.154620
    31  H    0.152297
    32  H    0.155387
    33  H    0.150519
    34  H    0.155941
 Sum of Mulliken charges =  -0.00000

 Dipole moment (field-independent basis, Debye):
    X=             -3.0871    Y=              3.7944    Z=              1.5469  Tot=              5.1303
 Quadrupole moment (field-independent basis, Debye-Ang):
   XX=            -85.4251   YY=           -104.8310   ZZ=            -90.3345
   XY=             -2.8490   XZ=             -1.0499   YZ=             -2.5972

 Normal termination of Gaussian 16 at Thu May  6 03:08:50 2021.
