 Gaussian 16, Revision A.03,
 Gaussian 16:  EM64L-G16RevA.03 25-Dec-2016

 -------------
 #p 6-31g* mp2
 -------------

 ------------------------------------------------------
 Input file generated by CHIRIPA (05-May-2021 14:53:12)
 ------------------------------------------------------
 Symbolic Z-matrix:
 Charge =  0 Multiplicity = 1

                         Standard orientation:
 ---------------------------------------------------------------------
 Center     Atomic      Atomic             Coordinates (Angstroms)
 Number     Number       Type             X           Y           Z
 ---------------------------------------------------------------------
      1          6           0        3.397149    0.120361    0.400281
      2          6           0        4.307377   -0.762813   -0.453811
      3          6           0        4.959367   -1.889692    0.347965
      4          1           0        3.981574    0.547172    1.226856
      5          1           0        2.617314   -0.503626    0.858422
      6          1           0        5.084438   -0.137124   -0.911311
      7          1           0        3.720762   -1.187417   -1.278560
      8          1           0        4.196779   -2.537788    0.791846
      9          1           0        5.568203   -1.481527    1.161181
     10          1           0        5.605762   -2.508668   -0.282037
     11          6           0        2.738067    1.251428   -0.387136
     12          6           0        1.827839    2.134602    0.466957
     13          6           0        1.175849    3.261482   -0.334819
     14          1           0        3.517902    1.875415   -0.845277
     15          1           0        2.153642    0.824618   -1.213711
     16          1           0        2.414454    2.559207    1.291705
     17          1           0        1.050778    1.508913    0.924457
     18          1           0        0.567013    2.853317   -1.148036
     19          1           0        1.938437    3.909578   -0.778701
     20          1           0        0.529454    3.880457    0.295183
     21          6           0       -4.766457    0.313451    0.162886
     22          6           0       -3.997425    0.150923    1.319906
     23          6           0       -2.683200   -0.318941    1.238735
     24          6           0       -2.167457   -0.617963   -0.021378
     25          6           0       -2.908476   -0.466594   -1.192390
     26          6           0       -4.220491    0.004718   -1.087365
     27          1           0       -5.786520    0.679015    0.235207
     28          1           0       -4.418819    0.389896    2.292203
     29          1           0       -2.065616   -0.454084    2.118362
     30          1           0       -2.460911   -0.713171   -2.147534
     31          1           0       -4.815403    0.129963   -1.987608
     32          7           0       -0.777316   -1.116153   -0.119938
     33          8           0       -0.346162   -1.372536   -1.241994
     34          8           0       -0.145198   -1.240819    0.926736
 ---------------------------------------------------------------------

 SCF Done:  E(RHF) =  -669.537119344     A.U. after   15 cycles
 E2 =    -0.2092794381D+01 EUMP2 =    -0.67162991372538D+03

 The electronic state is 1-A.
 Alpha  occ. eigenvalues --  -20.61223 -20.61211 -15.86199 -11.31418 -11.27964
 Alpha  occ. eigenvalues --  -11.27961 -11.27684 -11.26947 -11.26938 -11.20592
 Alpha  occ. eigenvalues --  -11.20424 -11.20168 -11.20058 -11.19817 -11.19696
 Alpha  occ. eigenvalues --   -1.60246  -1.39807  -1.19572  -1.08999  -1.07098
 Alpha  occ. eigenvalues --   -1.04952  -1.02378  -0.95858  -0.94828  -0.86358
 Alpha  occ. eigenvalues --   -0.85860  -0.82696  -0.78449  -0.77763  -0.76865
 Alpha  occ. eigenvalues --   -0.72422  -0.71555  -0.70682  -0.65231  -0.64958
 Alpha  occ. eigenvalues --   -0.63688  -0.62300  -0.59773  -0.58238  -0.56443
 Alpha  occ. eigenvalues --   -0.55464  -0.54118  -0.53281  -0.53043  -0.51607
 Alpha  occ. eigenvalues --   -0.51276  -0.49243  -0.49179  -0.48731  -0.46779
 Alpha  occ. eigenvalues --   -0.45692  -0.45161  -0.44428  -0.44013  -0.42558
 Alpha  occ. eigenvalues --   -0.37542  -0.36545
 Alpha virt. eigenvalues --    0.04717   0.11099   0.16191   0.21218   0.24047
 Alpha virt. eigenvalues --    0.25358   0.27160   0.27708   0.28310   0.28871
 Alpha virt. eigenvalues --    0.29182   0.30919   0.32194   0.32459   0.32633

 Mulliken charges:
               1
     1  C   -0.308402
     2  C   -0.299322
     3  C   -0.475873
     4  H    0.140175
     5  H    0.178018
     6  H    0.144338
     7  H    0.158857
     8  H    0.160209
     9  H    0.150165
    10  H    0.155221
    11  C   -0.299268
    12  C   -0.303652
    13  C   -0.474779
    14  H    0.142448
    15  H    0.157825
    16  H    0.148187
    17  H    0.155941
    18  H    0.152032
    19  H    0.153805
    20  H    0.154244
    21  C   -0.170102
    22  C   -0.218473
    23  C   -0.170640
    24  C    0.158110
    25  C   -0.170466
    26  C   -0.218502
    27  H    0.226559
    28  H    0.224388
    29  H    0.276227
    30  H    0.275980
    31  H    0.224340
    32  N    0.489161
    33  O   -0.458224
    34  O   -0.458528
 Sum of Mulliken charges =  -0.00000

 Dipole moment (field-independent basis, Debye):
    X=             -5.2837    Y=              1.4845    Z=              0.3461  Tot=              5.4991
 Quadrupole moment (field-independent basis, Debye-Ang):
   XX=            -74.9068   YY=            -98.8659   ZZ=            -89.9484
   XY=             -0.2524   XZ=             -0.2366   YZ=              0.6237

 Normal termination of Gaussian 16 at Thu May  6 07:15:05 2021.
