 Gaussian 16, Revision A.03,
 Gaussian 16:  EM64L-G16RevA.03 25-Dec-2016

 -------------
 #p 6-31g* mp2
 -------------

 ------------------------------------------------------
 Input file generated by CHIRIPA (05-May-2021 14:57:24)
 ------------------------------------------------------
 Symbolic Z-matrix:
 Charge =  0 Multiplicity = 1

                         Standard orientation:
 ---------------------------------------------------------------------
 Center     Atomic      Atomic             Coordinates (Angstroms)
 Number     Number       Type             X           Y           Z
 ---------------------------------------------------------------------
      1          6           0        4.196059    1.991233   -1.157664
      2          6           0        5.089641    0.971367   -0.814290
      3          6           0        4.634265   -0.187122   -0.177828
      4          6           0        3.272646   -0.293046    0.101569
      5          6           0        2.357549    0.705608   -0.227944
      6          6           0        2.835264    1.855338   -0.863913
      7          1           0        4.558483    2.887773   -1.651892
      8          1           0        6.146992    1.074179   -1.041193
      9          1           0        5.304164   -0.992077    0.099119
     10          1           0        1.309207    0.574397    0.011181
     11          1           0        2.139003    2.645764   -1.129417
     12          7           0        2.778735   -1.514850    0.775102
     13          8           0        1.574353   -1.583919    1.010329
     14          8           0        3.605341   -2.380296    1.055036
     15          6           0       -2.974190    2.281642    1.203458
     16          6           0       -1.989419    1.288705    1.232159
     17          6           0       -2.189091    0.071459    0.574137
     18          6           0       -3.390772   -0.120040   -0.105996
     19          6           0       -4.391012    0.849808   -0.152935
     20          6           0       -4.169736    2.059416    0.512222
     21          1           0       -2.810690    3.224261    1.717398
     22          1           0       -1.059969    1.458523    1.768191
     23          1           0       -1.443558   -0.714392    0.580171
     24          1           0       -5.307272    0.651378   -0.695622
     25          1           0       -4.936287    2.828746    0.488236
     26          7           0       -3.613590   -1.404641   -0.806391
     27          8           0       -4.680936   -1.548744   -1.398544
     28          8           0       -2.716671   -2.243083   -0.749946
 ---------------------------------------------------------------------

 SCF Done:  E(RHF) =  -868.338134530     A.U. after   16 cycles
 E2 =    -0.2599925176D+01 EUMP2 =    -0.87093805970560D+03

 The electronic state is 1-A.
 Alpha  occ. eigenvalues --  -20.61190 -20.61165 -20.60444 -20.60405 -15.86229
 Alpha  occ. eigenvalues --  -15.85485 -11.31577 -11.30977 -11.28200 -11.28101
 Alpha  occ. eigenvalues --  -11.27856 -11.27631 -11.27475 -11.27424 -11.27171
 Alpha  occ. eigenvalues --  -11.27116 -11.26668 -11.26648  -1.60233  -1.59507
 Alpha  occ. eigenvalues --   -1.39796  -1.39051  -1.19740  -1.19196  -1.09130
 Alpha  occ. eigenvalues --   -1.08579  -1.05148  -1.04613  -0.95974  -0.95374
 Alpha  occ. eigenvalues --   -0.86546  -0.86003  -0.82814  -0.82200  -0.77882
 Alpha  occ. eigenvalues --   -0.77197  -0.72452  -0.71695  -0.71545  -0.70856
 Alpha  occ. eigenvalues --   -0.70839  -0.70288  -0.65399  -0.65156  -0.64842
 Alpha  occ. eigenvalues --   -0.64614  -0.62532  -0.61891  -0.55637  -0.55135
 Alpha  occ. eigenvalues --   -0.53466  -0.53254  -0.52944  -0.52688  -0.49210
 Alpha  occ. eigenvalues --   -0.49176  -0.48482  -0.48435  -0.45198  -0.44429
 Alpha  occ. eigenvalues --   -0.37705  -0.37218  -0.36747  -0.36239
 Alpha virt. eigenvalues --    0.04674   0.05277   0.10894   0.11415   0.16180
 Alpha virt. eigenvalues --    0.16601   0.19907   0.21917   0.25232   0.27315
 Alpha virt. eigenvalues --    0.28155   0.29153   0.30965   0.31072   0.32364

 Mulliken charges:
               1
     1  C   -0.170384
     2  C   -0.218201
     3  C   -0.169995
     4  C    0.159916
     5  C   -0.172309
     6  C   -0.219119
     7  H    0.226713
     8  H    0.225099
     9  H    0.277212
    10  H    0.269871
    11  H    0.223340
    12  N    0.492271
    13  O   -0.468666
    14  O   -0.455554
    15  C   -0.171320
    16  C   -0.226593
    17  C   -0.181332
    18  C    0.157838
    19  C   -0.170388
    20  C   -0.219469
    21  H    0.223566
    22  H    0.222881
    23  H    0.296670
    24  H    0.275366
    25  H    0.222345
    26  N    0.486997
    27  O   -0.463059
    28  O   -0.453698
 Sum of Mulliken charges =  -0.00000

 Dipole moment (field-independent basis, Debye):
    X=              2.7560    Y=              8.6449    Z=              0.0643  Tot=              9.0738
 Quadrupole moment (field-independent basis, Debye-Ang):
   XX=            -89.8820   YY=           -108.3466   ZZ=           -106.9793
   XY=             -5.2690   XZ=            -14.7327   YZ=             -0.4212

 Normal termination of Gaussian 16 at Thu May  6 16:21:22 2021.
