 Gaussian 16, Revision A.03,
 Gaussian 16:  EM64L-G16RevA.03 25-Dec-2016

 -------------
 #p 6-31g* mp2
 -------------

 ------------------------------------------------------
 Input file generated by CHIRIPA (05-May-2021 14:57:23)
 ------------------------------------------------------
 Symbolic Z-matrix:
 Charge =  0 Multiplicity = 1

                         Standard orientation:
 ---------------------------------------------------------------------
 Center     Atomic      Atomic             Coordinates (Angstroms)
 Number     Number       Type             X           Y           Z
 ---------------------------------------------------------------------
      1          6           0       -0.248492   -1.975728    0.768032
      2          6           0       -1.067610   -1.412263    1.751938
      3          6           0       -2.190950   -0.660223    1.395437
      4          6           0       -2.466809   -0.490933    0.039512
      5          6           0       -1.669987   -1.039624   -0.964133
      6          6           0       -0.551760   -1.787941   -0.584479
      7          1           0        0.622160   -2.558484    1.053963
      8          1           0       -0.834520   -1.556453    2.803092
      9          1           0       -2.842102   -0.212799    2.136538
     10          1           0       -1.927968   -0.878535   -2.003803
     11          1           0        0.082595   -2.224361   -1.350754
     12          7           0       -3.653332    0.303248   -0.350155
     13          8           0       -3.874730    0.437742   -1.551626
     14          8           0       -4.339464    0.776194    0.553273
     15          6           0        1.044353    2.785830    0.317823
     16          6           0        1.076577    2.238638   -0.969059
     17          6           0        1.753331    1.040121   -1.214229
     18          6           0        2.389868    0.412615   -0.144489
     19          6           0        2.375773    0.932692    1.148807
     20          6           0        1.692911    2.132263    1.370791
     21          1           0        0.516262    3.717276    0.499271
     22          1           0        0.573789    2.744018   -1.788718
     23          1           0        1.794168    0.594352   -2.200658
     24          1           0        2.886368    0.405846    1.945765
     25          1           0        1.669552    2.554897    2.371231
     26          7           0        3.109551   -0.856759   -0.391767
     27          8           0        3.662411   -1.390126    0.567661
     28          8           0        3.107150   -1.294292   -1.540330
 ---------------------------------------------------------------------

 SCF Done:  E(RHF) =  -868.339187153     A.U. after   16 cycles
 E2 =    -0.2603814740D+01 EUMP2 =    -0.87094300189308D+03

 The electronic state is 1-A.
 Alpha  occ. eigenvalues --  -20.61740 -20.61734 -20.60961 -20.60955 -15.86725
 Alpha  occ. eigenvalues --  -15.86006 -11.31673 -11.31217 -11.28255 -11.28223
 Alpha  occ. eigenvalues --  -11.27873 -11.27779 -11.27736 -11.27340 -11.27173
 Alpha  occ. eigenvalues --  -11.27119 -11.26744 -11.26594  -1.60805  -1.60042
 Alpha  occ. eigenvalues --   -1.40369  -1.39599  -1.19845  -1.19350  -1.09309
 Alpha  occ. eigenvalues --   -1.08763  -1.05203  -1.04732  -0.96207  -0.95635
 Alpha  occ. eigenvalues --   -0.86619  -0.86132  -0.83063  -0.82471  -0.78168
 Alpha  occ. eigenvalues --   -0.77555  -0.72962  -0.72261  -0.72149  -0.71368
 Alpha  occ. eigenvalues --   -0.70954  -0.70375  -0.65504  -0.65205  -0.64996
 Alpha  occ. eigenvalues --   -0.64693  -0.62576  -0.62076  -0.55691  -0.55166
 Alpha  occ. eigenvalues --   -0.54042  -0.53292  -0.52805  -0.52564  -0.49752
 Alpha  occ. eigenvalues --   -0.49683  -0.48993  -0.48968  -0.45838  -0.45041
 Alpha  occ. eigenvalues --   -0.38269  -0.37355  -0.36699  -0.35833
 Alpha virt. eigenvalues --    0.04142   0.05046   0.10413   0.11690   0.15897
 Alpha virt. eigenvalues --    0.16613   0.20783   0.21824   0.26560   0.27403
 Alpha virt. eigenvalues --    0.28169   0.28489   0.30716   0.30976   0.32124

 Mulliken charges:
               1
     1  C   -0.180272
     2  C   -0.217837
     3  C   -0.172500
     4  C    0.158561
     5  C   -0.172646
     6  C   -0.226311
     7  H    0.238784
     8  H    0.222311
     9  H    0.273099
    10  H    0.273115
    11  H    0.237465
    12  N    0.487456
    13  O   -0.462287
    14  O   -0.461981
    15  C   -0.169052
    16  C   -0.218135
    17  C   -0.169100
    18  C    0.161481
    19  C   -0.171891
    20  C   -0.217932
    21  H    0.230288
    22  H    0.228330
    23  H    0.272484
    24  H    0.272296
    25  H    0.224043
    26  N    0.485527
    27  O   -0.462427
    28  O   -0.462868
 Sum of Mulliken charges =  -0.00000

 Dipole moment (field-independent basis, Debye):
    X=              1.7348    Y=              1.7750    Z=              2.2337  Tot=              3.3391
 Quadrupole moment (field-independent basis, Debye-Ang):
   XX=           -139.3540   YY=            -98.9112   ZZ=            -95.7372
   XY=             14.3979   XZ=             -0.5209   YZ=             -0.4787

 Normal termination of Gaussian 16 at Thu May  6 03:26:29 2021.
