 Gaussian 16, Revision A.03,
 Gaussian 16:  EM64L-G16RevA.03 25-Dec-2016

 -------------
 #p 6-31g* mp2
 -------------

 ------------------------------------------------------
 Input file generated by CHIRIPA (05-May-2021 14:57:22)
 ------------------------------------------------------
 Symbolic Z-matrix:
 Charge =  0 Multiplicity = 1

                         Standard orientation:
 ---------------------------------------------------------------------
 Center     Atomic      Atomic             Coordinates (Angstroms)
 Number     Number       Type             X           Y           Z
 ---------------------------------------------------------------------
      1          6           0       -2.492115    2.439635    0.292651
      2          6           0       -1.657943    1.346102    0.037971
      3          6           0       -2.197808    0.070965   -0.154693
      4          6           0       -3.582417   -0.075218   -0.085560
      5          6           0       -4.439804    0.994673    0.166458
      6          6           0       -3.877940    2.260746    0.355970
      7          1           0       -2.064190    3.426672    0.441092
      8          1           0       -0.581335    1.482065   -0.011763
      9          1           0       -1.575209   -0.792928   -0.353380
     10          1           0       -5.509241    0.827903    0.210143
     11          1           0       -4.528199    3.108184    0.553598
     12          7           0       -4.165593   -1.420351   -0.287856
     13          8           0       -5.388625   -1.522768   -0.221977
     14          8           0       -3.388611   -2.346778   -0.508465
     15          6           0        3.830744    2.320123   -0.351727
     16          6           0        2.605442    1.855271    0.137219
     17          6           0        2.403397    0.490740    0.364775
     18          6           0        3.453004   -0.384939    0.091272
     19          6           0        4.685269    0.047432   -0.396447
     20          6           0        4.864923    1.416313   -0.616533
     21          1           0        3.979001    3.381813   -0.525596
     22          1           0        1.800507    2.554888    0.343766
     23          1           0        1.464927    0.103716    0.742800
     24          1           0        5.468929   -0.674158   -0.592918
     25          1           0        5.817569    1.774477   -0.996309
     26          7           0        3.250959   -1.831808    0.328221
     27          8           0        4.191484   -2.582869    0.079307
     28          8           0        2.155898   -2.187408    0.758369
 ---------------------------------------------------------------------

 SCF Done:  E(RHF) =  -868.335829275     A.U. after   16 cycles
 E2 =    -0.2600853897D+01 EUMP2 =    -0.87093668317216D+03

 The electronic state is 1-A.
 Alpha  occ. eigenvalues --  -20.61240 -20.61233 -20.60741 -20.60714 -15.86301
 Alpha  occ. eigenvalues --  -15.85793 -11.31873 -11.31356 -11.28568 -11.28412
 Alpha  occ. eigenvalues --  -11.28232 -11.27975 -11.27969 -11.27850 -11.27642
 Alpha  occ. eigenvalues --  -11.27446 -11.27160 -11.27024  -1.60309  -1.59804
 Alpha  occ. eigenvalues --   -1.39859  -1.39350  -1.20069  -1.19583  -1.09413
 Alpha  occ. eigenvalues --   -1.08957  -1.05534  -1.05026  -0.96217  -0.95742
 Alpha  occ. eigenvalues --   -0.86902  -0.86434  -0.83077  -0.82577  -0.78113
 Alpha  occ. eigenvalues --   -0.77555  -0.72511  -0.72007  -0.71637  -0.71174
 Alpha  occ. eigenvalues --   -0.71132  -0.70708  -0.65752  -0.65561  -0.65242
 Alpha  occ. eigenvalues --   -0.65096  -0.62989  -0.62228  -0.55986  -0.55560
 Alpha  occ. eigenvalues --   -0.53815  -0.53638  -0.53330  -0.53122  -0.49284
 Alpha  occ. eigenvalues --   -0.49258  -0.48790  -0.48744  -0.45219  -0.44711
 Alpha  occ. eigenvalues --   -0.38025  -0.37596  -0.37127  -0.36627
 Alpha virt. eigenvalues --    0.04453   0.04972   0.10523   0.11008   0.15796
 Alpha virt. eigenvalues --    0.16334   0.18346   0.22200   0.24942   0.25826
 Alpha virt. eigenvalues --    0.27878   0.29551   0.30044   0.31064   0.32747

 Mulliken charges:
               1
     1  C   -0.171459
     2  C   -0.224242
     3  C   -0.172429
     4  C    0.158813
     5  C   -0.169660
     6  C   -0.218543
     7  H    0.221604
     8  H    0.217091
     9  H    0.284577
    10  H    0.277076
    11  H    0.223929
    12  N    0.487666
    13  O   -0.460870
    14  O   -0.454933
    15  C   -0.170003
    16  C   -0.219746
    17  C   -0.174641
    18  C    0.160015
    19  C   -0.169113
    20  C   -0.217991
    21  H    0.227147
    22  H    0.215717
    23  H    0.272491
    24  H    0.278765
    25  H    0.226518
    26  N    0.488377
    27  O   -0.456806
    28  O   -0.459348
 Sum of Mulliken charges =  -0.00000

 Dipole moment (field-independent basis, Debye):
    X=              2.9001    Y=              9.5975    Z=             -0.1818  Tot=             10.0277
 Quadrupole moment (field-independent basis, Debye-Ang):
   XX=           -104.2045   YY=           -109.6720   ZZ=           -106.2039
   XY=             -2.6028   XZ=             -8.1210   YZ=              0.8873

 Normal termination of Gaussian 16 at Thu May  6 09:40:29 2021.
