 Gaussian 16, Revision A.03,
 Gaussian 16:  EM64L-G16RevA.03 25-Dec-2016

 -------------
 #p 6-31g* mp2
 -------------

 ------------------------------------------------------
 Input file generated by CHIRIPA (05-May-2021 14:55:25)
 ------------------------------------------------------
 Symbolic Z-matrix:
 Charge =  0 Multiplicity = 1

                         Standard orientation:
 ---------------------------------------------------------------------
 Center     Atomic      Atomic             Coordinates (Angstroms)
 Number     Number       Type             X           Y           Z
 ---------------------------------------------------------------------
      1          6           0        1.244998    2.625267   -0.078270
      2          6           0        0.606858    1.764643   -0.977506
      3          6           0        1.093067    0.471017   -1.188880
      4          6           0        2.224708    0.069045   -0.480997
      5          6           0        2.882604    0.903151    0.421628
      6          6           0        2.378835    2.192537    0.617200
      7          1           0        0.860479    3.628540    0.079793
      8          1           0       -0.273877    2.098009   -1.519002
      9          1           0        0.618541   -0.215858   -1.879131
     10          1           0        3.758644    0.542409    0.946829
     11          1           0        2.876468    2.858749    1.316177
     12          7           0        2.748730   -1.298215   -0.696405
     13          8           0        3.747328   -1.628352   -0.060443
     14          8           0        2.150938   -2.013846   -1.497126
     15          6           0       -2.140266   -0.808208    0.773079
     16          6           0       -1.278215   -0.175360    1.865945
     17          6           0       -0.088187   -1.050318    2.261008
     18          1           0       -2.501444   -1.786015    1.120054
     19          1           0       -1.516389   -1.001062   -0.110652
     20          1           0       -1.903841    0.017513    2.746858
     21          1           0       -0.919205    0.801138    1.516402
     22          1           0        0.559492   -1.232568    1.397353
     23          1           0       -0.430740   -2.020646    2.634801
     24          1           0        0.514489   -0.578847    3.043541
     25          6           0       -3.333891    0.054579    0.367389
     26          6           0       -4.195941   -0.578269   -0.725478
     27          6           0       -5.385970    0.296689   -1.120541
     28          1           0       -3.957768    0.247432    1.251119
     29          1           0       -2.972712    1.032385    0.020414
     30          1           0       -4.554952   -1.554767   -0.375935
     31          1           0       -3.570315   -0.771142   -1.606391
     32          1           0       -5.043417    1.267017   -1.494334
     33          1           0       -6.033649    0.478939   -0.256886
     34          1           0       -5.988645   -0.174782   -1.903074
 ---------------------------------------------------------------------

 SCF Done:  E(RHF) =  -669.533927592     A.U. after   15 cycles
 E2 =    -0.2096034757D+01 EUMP2 =    -0.67162996234902D+03

 The electronic state is 1-A.
 Alpha  occ. eigenvalues --  -20.60867 -20.60862 -15.85911 -11.31272 -11.27872
 Alpha  occ. eigenvalues --  -11.27857 -11.27629 -11.26914 -11.26899 -11.21895
 Alpha  occ. eigenvalues --  -11.21703 -11.21586 -11.21483 -11.21391 -11.20951
 Alpha  occ. eigenvalues --   -1.59942  -1.39493  -1.19498  -1.08889  -1.08625
 Alpha  occ. eigenvalues --   -1.04897  -1.03674  -0.96135  -0.95709  -0.87147
 Alpha  occ. eigenvalues --   -0.86292  -0.82536  -0.79754  -0.78435  -0.77578
 Alpha  occ. eigenvalues --   -0.72132  -0.71299  -0.70592  -0.65311  -0.65136
 Alpha  occ. eigenvalues --   -0.64895  -0.62235  -0.61149  -0.59506  -0.57741
 Alpha  occ. eigenvalues --   -0.55531  -0.55392  -0.53106  -0.52987  -0.52791
 Alpha  occ. eigenvalues --   -0.52516  -0.50103  -0.48896  -0.48887  -0.48043
 Alpha  occ. eigenvalues --   -0.46837  -0.45951  -0.45940  -0.44878  -0.43946
 Alpha  occ. eigenvalues --   -0.37357  -0.36448
 Alpha virt. eigenvalues --    0.04901   0.11043   0.16358   0.20339   0.22941
 Alpha virt. eigenvalues --    0.24024   0.25564   0.26363   0.27296   0.28351
 Alpha virt. eigenvalues --    0.29260   0.30441   0.31394   0.31701   0.31788

 Mulliken charges:
               1
     1  C   -0.171564
     2  C   -0.217270
     3  C   -0.170724
     4  C    0.154280
     5  C   -0.169597
     6  C   -0.217083
     7  H    0.226545
     8  H    0.224665
     9  H    0.275754
    10  H    0.276257
    11  H    0.224249
    12  N    0.492209
    13  O   -0.459372
    14  O   -0.460416
    15  C   -0.299111
    16  C   -0.303386
    17  C   -0.473587
    18  H    0.152991
    19  H    0.148192
    20  H    0.149913
    21  H    0.152917
    22  H    0.155294
    23  H    0.157406
    24  H    0.157371
    25  C   -0.297619
    26  C   -0.299421
    27  C   -0.475241
    28  H    0.150891
    29  H    0.140839
    30  H    0.155383
    31  H    0.149704
    32  H    0.151410
    33  H    0.156215
    34  H    0.161904
 Sum of Mulliken charges =  -0.00000

 Dipole moment (field-independent basis, Debye):
    X=             -1.7434    Y=              4.7948    Z=              0.7630  Tot=              5.1587
 Quadrupole moment (field-independent basis, Debye-Ang):
   XX=           -100.9713   YY=            -94.4611   ZZ=            -93.5706
   XY=             12.4499   XZ=              4.6393   YZ=             -1.7335

 Normal termination of Gaussian 16 at Wed May  5 20:51:02 2021.
