 Gaussian 16, Revision A.03,
 Gaussian 16:  EM64L-G16RevA.03 25-Dec-2016

 -------------
 #p 6-31g* mp2
 -------------

 ------------------------------------------------------
 Input file generated by CHIRIPA (05-May-2021 14:51:13)
 ------------------------------------------------------
 Symbolic Z-matrix:
 Charge =  0 Multiplicity = 1

                         Standard orientation:
 ---------------------------------------------------------------------
 Center     Atomic      Atomic             Coordinates (Angstroms)
 Number     Number       Type             X           Y           Z
 ---------------------------------------------------------------------
      1          6           0       -1.643202    1.989872    0.102281
      2          6           0       -0.124889    2.138338   -0.001005
      3          6           0        0.346133    3.573709    0.234880
      4          1           0       -2.121058    2.658578   -0.626712
      5          1           0       -1.970699    2.325605    1.095973
      6          1           0        0.199807    1.801126   -0.993717
      7          1           0        0.349413    1.469059    0.728186
      8          1           0        0.050442    3.917334    1.231419
      9          1           0       -0.100014    4.251287   -0.500268
     10          1           0        1.434595    3.657075    0.156386
     11          6           0       -2.129414    0.560587   -0.131110
     12          6           0       -3.647727    0.412121   -0.027824
     13          6           0       -4.118749   -1.023250   -0.263709
     14          1           0       -1.801916    0.224854   -1.124802
     15          1           0       -1.651558   -0.108119    0.597883
     16          1           0       -4.122029    1.081400   -0.757015
     17          1           0       -3.972422    0.749334    0.964888
     18          1           0       -3.672601   -1.700827    0.471439
     19          1           0       -3.823058   -1.366874   -1.260248
     20          1           0       -5.207211   -1.106615   -0.185215
     21          6           0        1.312639   -1.660717   -0.310757
     22          6           0        0.416648   -2.379898    0.698184
     23          6           0       -0.726440   -3.146639    0.032412
     24          1           0        0.701766   -0.967725   -0.905352
     25          1           0        1.724774   -2.396928   -1.014697
     26          1           0        0.007425   -1.642736    1.400854
     27          1           0        1.029760   -3.071117    1.290575
     28          1           0       -0.334018   -3.903181   -0.654792
     29          1           0       -1.362161   -2.466684   -0.543887
     30          1           0       -1.354402   -3.653186    0.771964
     31          6           0        2.459976   -0.889744    0.339586
     32          6           0        3.355967   -0.170561   -0.669356
     33          6           0        4.499056    0.596179   -0.003584
     34          1           0        2.047841   -0.153531    1.043526
     35          1           0        3.070850   -1.582734    0.934180
     36          1           0        2.742856    0.520657   -1.261747
     37          1           0        3.765190   -0.907724   -1.372025
     38          1           0        5.134777   -0.083776    0.572716
     39          1           0        4.106634    1.352721    0.683620
     40          1           0        5.127017    1.102727   -0.743134
 ---------------------------------------------------------------------

 SCF Done:  E(RHF) =  -470.730936599     A.U. after   11 cycles
 E2 =    -0.1587606284D+01 EUMP2 =    -0.47231854288306D+03

 The electronic state is 1-A.
 Alpha  occ. eigenvalues --  -11.21690 -11.21651 -11.21542 -11.21536 -11.21479
 Alpha  occ. eigenvalues --  -11.21415 -11.21306 -11.21235 -11.21155 -11.21069
 Alpha  occ. eigenvalues --  -11.21044 -11.20916  -1.08585  -1.08300  -1.03643
 Alpha  occ. eigenvalues --   -1.03435  -0.96054  -0.95909  -0.87095  -0.86902
 Alpha  occ. eigenvalues --   -0.79699  -0.79529  -0.78417  -0.78159  -0.65344
 Alpha  occ. eigenvalues --   -0.64828  -0.61131  -0.60861  -0.59387  -0.59278
 Alpha  occ. eigenvalues --   -0.57691  -0.57503  -0.55373  -0.55180  -0.52736
 Alpha  occ. eigenvalues --   -0.52683  -0.52431  -0.52340  -0.50080  -0.49755
 Alpha  occ. eigenvalues --   -0.48118  -0.47696  -0.46896  -0.46580  -0.46237
 Alpha  occ. eigenvalues --   -0.46120  -0.45182  -0.45100  -0.43850  -0.43704
 Alpha virt. eigenvalues --    0.20081   0.21705   0.23596   0.23861   0.24766
 Alpha virt. eigenvalues --    0.25969   0.26727   0.28196   0.28796   0.29638
 Alpha virt. eigenvalues --    0.30349   0.31230   0.31588   0.31942   0.32445

 Mulliken charges:
               1
     1  C   -0.297137
     2  C   -0.307439
     3  C   -0.476279
     4  H    0.149842
     5  H    0.149543
     6  H    0.153213
     7  H    0.157673
     8  H    0.155423
     9  H    0.155681
    10  H    0.160815
    11  C   -0.308077
    12  C   -0.298554
    13  C   -0.479177
    14  H    0.149545
    15  H    0.158888
    16  H    0.151906
    17  H    0.151843
    18  H    0.159555
    19  H    0.154990
    20  H    0.160374
    21  C   -0.303506
    22  C   -0.301826
    23  C   -0.482472
    24  H    0.156171
    25  H    0.149151
    26  H    0.150466
    27  H    0.152398
    28  H    0.154452
    29  H    0.165046
    30  H    0.158506
    31  C   -0.300579
    32  C   -0.301796
    33  C   -0.475993
    34  H    0.151877
    35  H    0.149427
    36  H    0.154330
    37  H    0.151655
    38  H    0.155181
    39  H    0.154913
    40  H    0.159971
 Sum of Mulliken charges =  -0.00000

 Dipole moment (field-independent basis, Debye):
    X=             -0.0570    Y=              0.0370    Z=             -0.0136  Tot=              0.0693
 Quadrupole moment (field-independent basis, Debye-Ang):
   XX=            -85.5144   YY=            -85.5394   ZZ=            -83.9069
   XY=             -1.4462   XZ=             -0.3490   YZ=             -0.4359

 Normal termination of Gaussian 16 at Wed May  5 23:12:07 2021.
