 Gaussian 16, Revision A.03,
 Gaussian 16:  EM64L-G16RevA.03 25-Dec-2016

 -------------
 #p 6-31g* mp2
 -------------

 ------------------------------------------------------
 Input file generated by CHIRIPA (05-May-2021 14:57:21)
 ------------------------------------------------------
 Symbolic Z-matrix:
 Charge =  0 Multiplicity = 1

                         Standard orientation:
 ---------------------------------------------------------------------
 Center     Atomic      Atomic             Coordinates (Angstroms)
 Number     Number       Type             X           Y           Z
 ---------------------------------------------------------------------
      1          6           0        4.747895   -2.041697   -0.954644
      2          6           0        5.608165   -1.048048   -0.475979
      3          6           0        5.099687    0.171199   -0.018339
      4          6           0        3.719513    0.363954   -0.053775
      5          6           0        2.836620   -0.606558   -0.524832
      6          6           0        3.367302   -1.818175   -0.977502
      7          1           0        5.151517   -2.985873   -1.308219
      8          1           0        6.680782   -1.218869   -0.457056
      9          1           0        5.742926    0.957641    0.357388
     10          1           0        1.771919   -0.407092   -0.531355
     11          1           0        2.696821   -2.588053   -1.348698
     12          7           0        3.169457    1.650677    0.428077
     13          8           0        1.949692    1.795855    0.386440
     14          8           0        3.968504    2.489669    0.838266
     15          6           0       -2.057912   -1.235401    1.589733
     16          6           0       -1.796882   -0.004480    0.978817
     17          6           0       -2.760378    0.605098    0.169719
     18          6           0       -3.979571   -0.047136   -0.007623
     19          6           0       -4.269533   -1.273963    0.587447
     20          6           0       -3.291230   -1.865103    1.392446
     21          1           0       -1.303695   -1.701774    2.216668
     22          1           0       -0.839959    0.486853    1.130255
     23          1           0       -2.584674    1.557656   -0.315234
     24          1           0       -5.232791   -1.739535    0.417755
     25          1           0       -3.496714   -2.821092    1.865634
     26          7           0       -5.007419    0.588437   -0.862009
     27          8           0       -6.073636   -0.006625   -1.002433
     28          8           0       -4.727366    1.669626   -1.375076
 ---------------------------------------------------------------------

 SCF Done:  E(RHF) =  -868.339344967     A.U. after   16 cycles
 E2 =    -0.2598855740D+01 EUMP2 =    -0.87093820070704D+03

 The electronic state is 1-A.
 Alpha  occ. eigenvalues --  -20.61645 -20.61582 -20.60508 -20.60495 -15.86656
 Alpha  occ. eigenvalues --  -15.85553 -11.31867 -11.30895 -11.28447 -11.28384
 Alpha  occ. eigenvalues --  -11.28105 -11.27494 -11.27398 -11.27373 -11.27365
 Alpha  occ. eigenvalues --  -11.27214 -11.26531 -11.26315  -1.60672  -1.59580
 Alpha  occ. eigenvalues --   -1.40236  -1.39133  -1.20020  -1.19061  -1.09436
 Alpha  occ. eigenvalues --   -1.08471  -1.05400  -1.04434  -0.96300  -0.95309
 Alpha  occ. eigenvalues --   -0.86805  -0.85840  -0.83142  -0.82118  -0.78216
 Alpha  occ. eigenvalues --   -0.77159  -0.72881  -0.71981  -0.71771  -0.71122
 Alpha  occ. eigenvalues --   -0.70904  -0.70185  -0.65676  -0.65397  -0.64703
 Alpha  occ. eigenvalues --   -0.64399  -0.62754  -0.61748  -0.55892  -0.54974
 Alpha  occ. eigenvalues --   -0.53736  -0.53489  -0.52805  -0.52490  -0.49640
 Alpha  occ. eigenvalues --   -0.49601  -0.48531  -0.48524  -0.45669  -0.44543
 Alpha  occ. eigenvalues --   -0.37982  -0.37082  -0.36998  -0.36048
 Alpha virt. eigenvalues --    0.04297   0.05334   0.10652   0.11535   0.15818
 Alpha virt. eigenvalues --    0.16806   0.20420   0.21867   0.25927   0.27101
 Alpha virt. eigenvalues --    0.28533   0.28644   0.30181   0.31154   0.32206

 Mulliken charges:
               1
     1  C   -0.170186
     2  C   -0.218304
     3  C   -0.170416
     4  C    0.158658
     5  C   -0.172916
     6  C   -0.218852
     7  H    0.227851
     8  H    0.225772
     9  H    0.277138
    10  H    0.272194
    11  H    0.225199
    12  N    0.491338
    13  O   -0.471175
    14  O   -0.454669
    15  C   -0.174012
    16  C   -0.232424
    17  C   -0.172626
    18  C    0.158308
    19  C   -0.172254
    20  C   -0.218816
    21  H    0.223374
    22  H    0.244401
    23  H    0.280382
    24  H    0.274221
    25  H    0.221087
    26  N    0.487899
    27  O   -0.462141
    28  O   -0.459032
 Sum of Mulliken charges =  -0.00000

 Dipole moment (field-independent basis, Debye):
    X=              5.9147    Y=             -6.6862    Z=              1.2805  Tot=              9.0182
 Quadrupole moment (field-independent basis, Debye-Ang):
   XX=           -112.7777   YY=           -105.1957   ZZ=           -105.9044
   XY=             -3.5445   XZ=            -18.0868   YZ=             -0.6490

 Normal termination of Gaussian 16 at Thu May  6 22:36:56 2021.
