 Gaussian 16, Revision A.03,
 Gaussian 16:  EM64L-G16RevA.03 25-Dec-2016

 -------------
 #p 6-31g* mp2
 -------------

 ------------------------------------------------------
 Input file generated by CHIRIPA (05-May-2021 14:53:15)
 ------------------------------------------------------
 Symbolic Z-matrix:
 Charge =  0 Multiplicity = 1

                         Standard orientation:
 ---------------------------------------------------------------------
 Center     Atomic      Atomic             Coordinates (Angstroms)
 Number     Number       Type             X           Y           Z
 ---------------------------------------------------------------------
      1          6           0       -2.733273   -0.099198   -0.043604
      2          6           0       -3.897585   -0.773009   -0.770474
      3          6           0       -3.924121   -2.288158   -0.566969
      4          1           0       -1.788147   -0.534530   -0.395979
      5          1           0       -2.800354   -0.324811    1.029706
      6          1           0       -3.829108   -0.545048   -1.841903
      7          1           0       -4.840040   -0.335888   -0.416467
      8          1           0       -4.016288   -2.532495    0.496236
      9          1           0       -2.999612   -2.742844   -0.937299
     10          1           0       -4.764361   -2.749519   -1.095178
     11          6           0       -2.693264    1.415573   -0.237498
     12          6           0       -1.528952    2.089384    0.489372
     13          6           0       -1.502416    3.604533    0.285868
     14          1           0       -2.626183    1.641186   -1.310808
     15          1           0       -3.638390    1.850905    0.114877
     16          1           0       -0.586497    1.652264    0.135365
     17          1           0       -1.597429    1.861424    1.560801
     18          1           0       -2.426925    4.059219    0.656198
     19          1           0       -1.410249    3.848871   -0.777338
     20          1           0       -0.662176    4.065894    0.814076
     21          6           0        3.356959    1.509668   -0.749926
     22          6           0        2.538782    1.616942    0.379500
     23          6           0        1.848552    0.502169    0.864691
     24          6           0        2.000131   -0.709870    0.192921
     25          6           0        2.807813   -0.848637   -0.934769
     26          6           0        3.488631    0.279389   -1.402305
     27          1           0        3.889490    2.380798   -1.119976
     28          1           0        2.434638    2.571123    0.888161
     29          1           0        1.208539    0.557080    1.736922
     30          1           0        2.891756   -1.813182   -1.420593
     31          1           0        4.123346    0.193130   -2.279654
     32          7           0        1.274398   -1.897046    0.697227
     33          8           0        1.424717   -2.953567    0.087468
     34          8           0        0.568990   -1.748554    1.692710
 ---------------------------------------------------------------------

 SCF Done:  E(RHF) =  -669.534937867     A.U. after   15 cycles
 E2 =    -0.2093578998D+01 EUMP2 =    -0.67162851686578D+03

 The electronic state is 1-A.
 Alpha  occ. eigenvalues --  -20.60836 -20.60812 -15.85873 -11.31235 -11.27822
 Alpha  occ. eigenvalues --  -11.27789 -11.27560 -11.26820 -11.26807 -11.21617
 Alpha  occ. eigenvalues --  -11.21352 -11.21218 -11.21118 -11.20894 -11.20373
 Alpha  occ. eigenvalues --   -1.59897  -1.39449  -1.19429  -1.08813  -1.08178
 Alpha  occ. eigenvalues --   -1.04833  -1.03304  -0.95743  -0.95648  -0.86759
 Alpha  occ. eigenvalues --   -0.86216  -0.82479  -0.79426  -0.77956  -0.77489
 Alpha  occ. eigenvalues --   -0.72089  -0.71220  -0.70524  -0.65076  -0.64837
 Alpha  occ. eigenvalues --   -0.64795  -0.62179  -0.60710  -0.59181  -0.57343
 Alpha  occ. eigenvalues --   -0.55320  -0.55018  -0.53208  -0.52918  -0.52468
 Alpha  occ. eigenvalues --   -0.52133  -0.49665  -0.48850  -0.48845  -0.47698
 Alpha  occ. eigenvalues --   -0.46447  -0.45559  -0.45370  -0.44751  -0.43541
 Alpha  occ. eigenvalues --   -0.37405  -0.36332
 Alpha virt. eigenvalues --    0.04991   0.11183   0.16417   0.20842   0.23092
 Alpha virt. eigenvalues --    0.24329   0.26375   0.26894   0.27043   0.28332
 Alpha virt. eigenvalues --    0.29043   0.30459   0.31633   0.31873   0.32832

 Mulliken charges:
               1
     1  C   -0.296872
     2  C   -0.300273
     3  C   -0.475822
     4  H    0.148465
     5  H    0.156838
     6  H    0.148781
     7  H    0.149682
     8  H    0.158851
     9  H    0.160909
    10  H    0.156955
    11  C   -0.297516
    12  C   -0.309346
    13  C   -0.473673
    14  H    0.147626
    15  H    0.149046
    16  H    0.156500
    17  H    0.151488
    18  H    0.157639
    19  H    0.155154
    20  H    0.150816
    21  C   -0.170562
    22  C   -0.218543
    23  C   -0.172068
    24  C    0.157602
    25  C   -0.171164
    26  C   -0.218866
    27  H    0.226069
    28  H    0.224849
    29  H    0.279417
    30  H    0.275741
    31  H    0.223625
    32  N    0.488337
    33  O   -0.460636
    34  O   -0.459049
 Sum of Mulliken charges =  -0.00000

 Dipole moment (field-independent basis, Debye):
    X=              2.5995    Y=              4.0293    Z=             -1.7218  Tot=              5.0948
 Quadrupole moment (field-independent basis, Debye-Ang):
   XX=            -84.0862   YY=           -101.1728   ZZ=            -92.4438
   XY=              5.4543   XZ=             -5.5346   YZ=              4.4455

 Normal termination of Gaussian 16 at Wed May  5 17:10:08 2021.
