 Gaussian 16, Revision A.03,
 Gaussian 16:  EM64L-G16RevA.03 25-Dec-2016

 -------------
 #p 6-31g* mp2
 -------------

 ------------------------------------------------------
 Input file generated by CHIRIPA (05-May-2021 14:53:18)
 ------------------------------------------------------
 Symbolic Z-matrix:
 Charge =  0 Multiplicity = 1

                         Standard orientation:
 ---------------------------------------------------------------------
 Center     Atomic      Atomic             Coordinates (Angstroms)
 Number     Number       Type             X           Y           Z
 ---------------------------------------------------------------------
      1          6           0        1.959570    1.016194   -0.818814
      2          6           0        1.327476    2.318745   -0.327079
      3          6           0        0.401140    2.954642   -1.364060
      4          1           0        2.521357    1.214311   -1.741902
      5          1           0        1.162883    0.307348   -1.083807
      6          1           0        2.125124    3.024431   -0.061784
      7          1           0        0.767288    2.117542    0.595050
      8          1           0       -0.414660    2.271659   -1.622137
      9          1           0        0.950891    3.183701   -2.282704
     10          1           0       -0.039876    3.884577   -0.991789
     11          6           0        2.888250    0.368529    0.206764
     12          6           0        3.520344   -0.934021   -0.284971
     13          6           0        4.446680   -1.569919    0.752010
     14          1           0        3.684938    1.077375    0.471757
     15          1           0        2.326464    0.170413    1.129852
     16          1           0        4.080533   -0.732818   -1.207100
     17          1           0        2.722696   -1.639707   -0.550266
     18          1           0        3.896929   -1.798977    1.670654
     19          1           0        5.262481   -0.886935    1.010088
     20          1           0        4.887696   -2.499854    0.379739
     21          6           0       -1.600372   -2.793904   -0.858141
     22          6           0       -2.401970   -1.819962   -1.462622
     23          6           0       -2.571625   -0.568152   -0.863673
     24          6           0       -1.922036   -0.323096    0.345157
     25          6           0       -1.116905   -1.272815    0.972126
     26          6           0       -0.961525   -2.517710    0.355165
     27          1           0       -1.474125   -3.763654   -1.330415
     28          1           0       -2.899318   -2.031672   -2.404890
     29          1           0       -3.186477    0.204058   -1.309840
     30          1           0       -0.633879   -1.032414    1.911441
     31          1           0       -0.338394   -3.272177    0.826898
     32          7           0       -2.094086    0.998478    0.988772
     33          8           0       -1.511029    1.189588    2.053741
     34          8           0       -2.808737    1.818194    0.416081
 ---------------------------------------------------------------------

 SCF Done:  E(RHF) =  -669.536420470     A.U. after   15 cycles
 E2 =    -0.2094517791D+01 EUMP2 =    -0.67163093826060D+03

 The electronic state is 1-A.
 Alpha  occ. eigenvalues --  -20.61032 -20.61005 -15.86022 -11.31365 -11.27931
 Alpha  occ. eigenvalues --  -11.27920 -11.27652 -11.26937 -11.26917 -11.21683
 Alpha  occ. eigenvalues --  -11.21261 -11.21241 -11.21061 -11.20904 -11.20385
 Alpha  occ. eigenvalues --   -1.60065  -1.39622  -1.19533  -1.08930  -1.08210
 Alpha  occ. eigenvalues --   -1.04925  -1.03272  -0.95770  -0.95730  -0.86748
 Alpha  occ. eigenvalues --   -0.86322  -0.82602  -0.79357  -0.77971  -0.77656
 Alpha  occ. eigenvalues --   -0.72252  -0.71418  -0.70629  -0.65183  -0.64924
 Alpha  occ. eigenvalues --   -0.64842  -0.62269  -0.60661  -0.59125  -0.57306
 Alpha  occ. eigenvalues --   -0.55421  -0.55051  -0.53250  -0.53010  -0.52401
 Alpha  occ. eigenvalues --   -0.52148  -0.49731  -0.49018  -0.49013  -0.47661
 Alpha  occ. eigenvalues --   -0.46512  -0.45661  -0.45489  -0.44632  -0.43507
 Alpha  occ. eigenvalues --   -0.37488  -0.36511
 Alpha virt. eigenvalues --    0.04821   0.11024   0.16270   0.20821   0.22820
 Alpha virt. eigenvalues --    0.24202   0.26135   0.27105   0.27411   0.28182
 Alpha virt. eigenvalues --    0.28756   0.30477   0.31640   0.32029   0.32415

 Mulliken charges:
               1
     1  C   -0.300267
     2  C   -0.312474
     3  C   -0.474135
     4  H    0.147442
     5  H    0.147805
     6  H    0.151064
     7  H    0.167664
     8  H    0.150428
     9  H    0.149382
    10  H    0.168797
    11  C   -0.297350
    12  C   -0.299618
    13  C   -0.475046
    14  H    0.151136
    15  H    0.148052
    16  H    0.152493
    17  H    0.146663
    18  H    0.151834
    19  H    0.157646
    20  H    0.158279
    21  C   -0.170575
    22  C   -0.218174
    23  C   -0.172055
    24  C    0.159225
    25  C   -0.171445
    26  C   -0.218663
    27  H    0.226649
    28  H    0.224464
    29  H    0.276618
    30  H    0.276184
    31  H    0.224743
    32  N    0.488596
    33  O   -0.458722
    34  O   -0.456639
 Sum of Mulliken charges =  -0.00000

 Dipole moment (field-independent basis, Debye):
    X=              0.4023    Y=             -4.5936    Z=             -2.1848  Tot=              5.1026
 Quadrupole moment (field-independent basis, Debye-Ang):
   XX=            -95.7515   YY=            -91.6467   ZZ=            -94.2562
   XY=              8.7710   XZ=              6.5895   YZ=             -1.6323

 Normal termination of Gaussian 16 at Wed May  5 17:18:48 2021.
