 Gaussian 16, Revision A.03,
 Gaussian 16:  EM64L-G16RevA.03 25-Dec-2016

 -------------
 #p 6-31g* mp2
 -------------

 ------------------------------------------------------
 Input file generated by CHIRIPA (05-May-2021 14:57:23)
 ------------------------------------------------------
 Symbolic Z-matrix:
 Charge =  0 Multiplicity = 1

                         Standard orientation:
 ---------------------------------------------------------------------
 Center     Atomic      Atomic             Coordinates (Angstroms)
 Number     Number       Type             X           Y           Z
 ---------------------------------------------------------------------
      1          6           0        3.935310    1.932866    1.284878
      2          6           0        4.365305    0.679421    1.732651
      3          6           0        3.977616   -0.485064    1.063157
      4          6           0        3.155673   -0.358733   -0.055655
      5          6           0        2.710728    0.875714   -0.526244
      6          6           0        3.110847    2.026846    0.158845
      7          1           0        4.241304    2.832279    1.811014
      8          1           0        5.005641    0.603410    2.606858
      9          1           0        4.295918   -1.468137    1.388223
     10          1           0        2.072907    0.919621   -1.400701
     11          1           0        2.775378    2.998957   -0.191163
     12          7           0        2.738665   -1.584453   -0.772673
     13          8           0        2.014111   -1.446255   -1.755811
     14          8           0        3.144263   -2.660162   -0.337957
     15          6           0       -1.880044    1.671435   -1.567265
     16          6           0       -1.617475    0.297781   -1.541715
     17          6           0       -2.356065   -0.550947   -0.711841
     18          6           0       -3.354368    0.010283    0.082955
     19          6           0       -3.639752    1.374774    0.079777
     20          6           0       -2.888567    2.204607   -0.757865
     21          1           0       -1.301397    2.323409   -2.214948
     22          1           0       -0.834845   -0.119064   -2.169231
     23          1           0       -2.173776   -1.618015   -0.672404
     24          1           0       -4.426265    1.761051    0.716650
     25          1           0       -3.094680    3.271024   -0.775647
     26          7           0       -4.142949   -0.878227    0.965617
     27          8           0       -5.017096   -0.359084    1.656265
     28          8           0       -3.871958   -2.076959    0.950087
 ---------------------------------------------------------------------

 SCF Done:  E(RHF) =  -868.338819710     A.U. after   16 cycles
 E2 =    -0.2599388273D+01 EUMP2 =    -0.87093820798365D+03

 The electronic state is 1-A.
 Alpha  occ. eigenvalues --  -20.61520 -20.61448 -20.60532 -20.60514 -15.86526
 Alpha  occ. eigenvalues --  -15.85575 -11.31756 -11.30945 -11.28382 -11.28265
 Alpha  occ. eigenvalues --  -11.28011 -11.27544 -11.27404 -11.27330 -11.27308
 Alpha  occ. eigenvalues --  -11.27250 -11.26615 -11.26387  -1.60543  -1.59601
 Alpha  occ. eigenvalues --   -1.40107  -1.39153  -1.19912  -1.19114  -1.09326
 Alpha  occ. eigenvalues --   -1.08531  -1.05305  -1.04488  -0.96189  -0.95363
 Alpha  occ. eigenvalues --   -0.86709  -0.85902  -0.83036  -0.82166  -0.78108
 Alpha  occ. eigenvalues --   -0.77195  -0.72754  -0.71850  -0.71793  -0.71028
 Alpha  occ. eigenvalues --   -0.70925  -0.70266  -0.65576  -0.65316  -0.64762
 Alpha  occ. eigenvalues --   -0.64465  -0.62671  -0.61800  -0.55799  -0.55067
 Alpha  occ. eigenvalues --   -0.53624  -0.53409  -0.52855  -0.52553  -0.49515
 Alpha  occ. eigenvalues --   -0.49477  -0.48556  -0.48544  -0.45538  -0.44556
 Alpha  occ. eigenvalues --   -0.37870  -0.37166  -0.36882  -0.36084
 Alpha virt. eigenvalues --    0.04419   0.05292   0.10723   0.11534   0.15924
 Alpha virt. eigenvalues --    0.16781   0.20163   0.21877   0.25872   0.27143
 Alpha virt. eigenvalues --    0.28283   0.28920   0.30336   0.31287   0.31899

 Mulliken charges:
               1
     1  C   -0.169835
     2  C   -0.218046
     3  C   -0.169676
     4  C    0.159054
     5  C   -0.168119
     6  C   -0.217500
     7  H    0.227423
     8  H    0.226043
     9  H    0.277769
    10  H    0.267210
    11  H    0.221717
    12  N    0.490294
    13  O   -0.471043
    14  O   -0.453948
    15  C   -0.174889
    16  C   -0.226799
    17  C   -0.172468
    18  C    0.158601
    19  C   -0.172338
    20  C   -0.218447
    21  H    0.219742
    22  H    0.241619
    23  H    0.281676
    24  H    0.274192
    25  H    0.220409
    26  N    0.487796
    27  O   -0.462330
    28  O   -0.458107
 Sum of Mulliken charges =  -0.00000

 Dipole moment (field-independent basis, Debye):
    X=              4.5035    Y=              7.2481    Z=             -0.4547  Tot=              8.5454
 Quadrupole moment (field-independent basis, Debye-Ang):
   XX=           -112.2101   YY=           -103.8341   ZZ=           -104.1118
   XY=             -1.0492   XZ=             20.2430   YZ=             -1.3233

 Normal termination of Gaussian 16 at Thu May  6 00:15:26 2021.
