 Gaussian 16, Revision A.03,
 Gaussian 16:  EM64L-G16RevA.03 25-Dec-2016

 -------------
 #p 6-31g* mp2
 -------------

 ------------------------------------------------------
 Input file generated by CHIRIPA (05-May-2021 14:53:18)
 ------------------------------------------------------
 Symbolic Z-matrix:
 Charge =  0 Multiplicity = 1

                         Standard orientation:
 ---------------------------------------------------------------------
 Center     Atomic      Atomic             Coordinates (Angstroms)
 Number     Number       Type             X           Y           Z
 ---------------------------------------------------------------------
      1          6           0       -4.043237   -0.320426    0.615700
      2          6           0       -2.563167   -0.100538    0.301019
      3          6           0       -1.637017   -0.770449    1.316529
      4          1           0       -4.259025    0.065607    1.621364
      5          1           0       -4.248436   -1.399529    0.644437
      6          1           0       -2.361115    0.977850    0.271518
      7          1           0       -2.350920   -0.486967   -0.704088
      8          1           0       -1.809647   -1.851283    1.340989
      9          1           0       -1.819901   -0.378143    2.322139
     10          1           0       -0.583725   -0.600558    1.072455
     11          6           0       -4.981649    0.343261   -0.390595
     12          6           0       -6.461720    0.123374   -0.075913
     13          6           0       -7.387869    0.793284   -1.091424
     14          1           0       -4.776450    1.422364   -0.419332
     15          1           0       -4.765862   -0.042772   -1.396259
     16          1           0       -6.673967    0.509802    0.929194
     17          1           0       -6.663771   -0.955015   -0.046413
     18          1           0       -7.204986    0.400978   -2.097034
     19          1           0       -7.215239    1.874118   -1.115884
     20          1           0       -8.441161    0.623393   -0.847350
     21          6           0        4.380176    2.360784    0.052393
     22          6           0        3.175674    2.013243    0.672805
     23          6           0        2.692440    0.703296    0.601587
     24          6           0        3.442704   -0.238014   -0.101498
     25          6           0        4.646289    0.077340   -0.730168
     26          6           0        5.110352    1.393429   -0.645883
     27          1           0        4.748118    3.380768    0.112792
     28          1           0        2.606504    2.762425    1.215777
     29          1           0        1.763052    0.406968    1.072592
     30          1           0        5.191473   -0.691398   -1.264242
     31          1           0        6.046108    1.660475   -1.128678
     32          7           0        2.941274   -1.628048   -0.183810
     33          8           0        3.620994   -2.438839   -0.809297
     34          8           0        1.878027   -1.880444    0.378719
 ---------------------------------------------------------------------

 SCF Done:  E(RHF) =  -669.535639804     A.U. after   15 cycles
 E2 =    -0.2091284290D+01 EUMP2 =    -0.67162692409484D+03

 The electronic state is 1-A.
 Alpha  occ. eigenvalues --  -20.60851 -20.60846 -15.85891 -11.31238 -11.27804
 Alpha  occ. eigenvalues --  -11.27801 -11.27546 -11.26819 -11.26809 -11.21414
 Alpha  occ. eigenvalues --  -11.21231 -11.21161 -11.21059 -11.20926 -11.20459
 Alpha  occ. eigenvalues --   -1.59920  -1.39476  -1.19410  -1.08809  -1.08152
 Alpha  occ. eigenvalues --   -1.04811  -1.03220  -0.95692  -0.95611  -0.86668
 Alpha  occ. eigenvalues --   -0.86211  -0.82481  -0.79290  -0.77970  -0.77532
 Alpha  occ. eigenvalues --   -0.72118  -0.71236  -0.70523  -0.65066  -0.64822
 Alpha  occ. eigenvalues --   -0.64784  -0.62179  -0.60616  -0.59022  -0.57269
 Alpha  occ. eigenvalues --   -0.55315  -0.54937  -0.53140  -0.52942  -0.52297
 Alpha  occ. eigenvalues --   -0.52071  -0.49594  -0.48869  -0.48863  -0.47591
 Alpha  occ. eigenvalues --   -0.46332  -0.45505  -0.45438  -0.44880  -0.43451
 Alpha  occ. eigenvalues --   -0.37390  -0.36412
 Alpha virt. eigenvalues --    0.04989   0.11228   0.16490   0.20854   0.23102
 Alpha virt. eigenvalues --    0.24143   0.26444   0.26915   0.27680   0.27789
 Alpha virt. eigenvalues --    0.29087   0.30259   0.31559   0.31732   0.32122

 Mulliken charges:
               1
     1  C   -0.298106
     2  C   -0.299619
     3  C   -0.485057
     4  H    0.147790
     5  H    0.151450
     6  H    0.144554
     7  H    0.155050
     8  H    0.162825
     9  H    0.147844
    10  H    0.173589
    11  C   -0.297855
    12  C   -0.299457
    13  C   -0.475525
    14  H    0.147298
    15  H    0.150234
    16  H    0.151128
    17  H    0.152696
    18  H    0.155376
    19  H    0.154081
    20  H    0.159805
    21  C   -0.170332
    22  C   -0.221245
    23  C   -0.172498
    24  C    0.155594
    25  C   -0.170231
    26  C   -0.218839
    27  H    0.225815
    28  H    0.224248
    29  H    0.283843
    30  H    0.275728
    31  H    0.223625
    32  N    0.490207
    33  O   -0.459710
    34  O   -0.464306
 Sum of Mulliken charges =  -0.00000

 Dipole moment (field-independent basis, Debye):
    X=              1.8950    Y=              4.7932    Z=              0.2563  Tot=              5.1606
 Quadrupole moment (field-independent basis, Debye-Ang):
   XX=            -80.5833   YY=            -96.6723   ZZ=            -94.2099
   XY=             16.1598   XZ=             -2.2025   YZ=              0.9909

 Normal termination of Gaussian 16 at Thu May  6 07:37:26 2021.
