 Gaussian 16, Revision A.03,
 Gaussian 16:  EM64L-G16RevA.03 25-Dec-2016

 -------------
 #p 6-31g* mp2
 -------------

 ------------------------------------------------------
 Input file generated by CHIRIPA (05-May-2021 14:55:23)
 ------------------------------------------------------
 Symbolic Z-matrix:
 Charge =  0 Multiplicity = 1

                         Standard orientation:
 ---------------------------------------------------------------------
 Center     Atomic      Atomic             Coordinates (Angstroms)
 Number     Number       Type             X           Y           Z
 ---------------------------------------------------------------------
      1          6           0       -3.701900    2.371817    0.534961
      2          6           0       -3.221757    1.457729    1.478585
      3          6           0       -2.848004    0.167510    1.091040
      4          6           0       -2.967923   -0.176573   -0.254515
      5          6           0       -3.442762    0.711633   -1.218313
      6          6           0       -3.810679    1.996514   -0.808108
      7          1           0       -3.989974    3.372017    0.844817
      8          1           0       -3.136210    1.746435    2.522317
      9          1           0       -2.473168   -0.560019    1.800700
     10          1           0       -3.516791    0.394755   -2.251524
     11          1           0       -4.183237    2.704323   -1.543126
     12          7           0       -2.575337   -1.539645   -0.676786
     13          8           0       -2.690482   -1.818230   -1.868326
     14          8           0       -2.159917   -2.303625    0.191775
     15          6           0        3.500140   -0.339993    0.836913
     16          6           0        2.044920   -0.687965    0.521894
     17          6           0        1.294606   -1.243833    1.732610
     18          1           0        4.013252   -1.237958    1.207477
     19          1           0        3.525663    0.394205    1.654040
     20          1           0        2.022104   -1.420249   -0.295330
     21          1           0        1.535262    0.210888    0.151855
     22          1           0        1.287667   -0.514935    2.549470
     23          1           0        1.777275   -2.155340    2.099744
     24          1           0        0.256338   -1.485853    1.485050
     25          6           0        4.263383    0.216916   -0.363520
     26          6           0        5.718603    0.564887   -0.048501
     27          6           0        6.468917    1.120755   -1.259218
     28          1           0        4.237860   -0.517283   -1.180647
     29          1           0        3.750270    1.114881   -0.734084
     30          1           0        6.228260   -0.333965    0.321537
     31          1           0        5.741419    1.297172    0.768722
     32          1           0        5.986248    2.032263   -1.626351
     33          1           0        6.475856    0.391857   -2.076077
     34          1           0        7.507185    1.362775   -1.011658
 ---------------------------------------------------------------------

 SCF Done:  E(RHF) =  -669.536313872     A.U. after   15 cycles
 E2 =    -0.2091401268D+01 EUMP2 =    -0.67162771514005D+03

 The electronic state is 1-A.
 Alpha  occ. eigenvalues --  -20.60943 -20.60934 -15.85959 -11.31264 -11.27827
 Alpha  occ. eigenvalues --  -11.27820 -11.27565 -11.26834 -11.26823 -11.21407
 Alpha  occ. eigenvalues --  -11.21159 -11.21125 -11.21037 -11.20913 -11.20479
 Alpha  occ. eigenvalues --   -1.59993  -1.39552  -1.19433  -1.08841  -1.08124
 Alpha  occ. eigenvalues --   -1.04827  -1.03196  -0.95701  -0.95629  -0.86665
 Alpha  occ. eigenvalues --   -0.86228  -0.82519  -0.79270  -0.77936  -0.77575
 Alpha  occ. eigenvalues --   -0.72186  -0.71302  -0.70544  -0.65090  -0.64834
 Alpha  occ. eigenvalues --   -0.64759  -0.62181  -0.60600  -0.59003  -0.57242
 Alpha  occ. eigenvalues --   -0.55336  -0.54945  -0.53157  -0.52929  -0.52311
 Alpha  occ. eigenvalues --   -0.52070  -0.49604  -0.48946  -0.48938  -0.47580
 Alpha  occ. eigenvalues --   -0.46313  -0.45481  -0.45404  -0.44949  -0.43408
 Alpha  occ. eigenvalues --   -0.37412  -0.36423
 Alpha virt. eigenvalues --    0.04916   0.11183   0.16397   0.21214   0.23145
 Alpha virt. eigenvalues --    0.24494   0.26863   0.26944   0.27695   0.27817
 Alpha virt. eigenvalues --    0.28826   0.30355   0.31655   0.31713   0.32138

 Mulliken charges:
               1
     1  C   -0.170594
     2  C   -0.218928
     3  C   -0.170781
     4  C    0.158458
     5  C   -0.170811
     6  C   -0.218612
     7  H    0.225875
     8  H    0.224013
     9  H    0.277129
    10  H    0.275728
    11  H    0.223704
    12  N    0.488679
    13  O   -0.458422
    14  O   -0.460190
    15  C   -0.297633
    16  C   -0.299381
    17  C   -0.486725
    18  H    0.150176
    19  H    0.146493
    20  H    0.158029
    21  H    0.147007
    22  H    0.145669
    23  H    0.156393
    24  H    0.176498
    25  C   -0.298021
    26  C   -0.299334
    27  C   -0.475499
    28  H    0.151146
    29  H    0.147803
    30  H    0.152253
    31  H    0.150479
    32  H    0.154105
    33  H    0.155848
    34  H    0.159447
 Sum of Mulliken charges =  -0.00000

 Dipole moment (field-independent basis, Debye):
    X=             -1.5423    Y=              4.7232    Z=              1.4073  Tot=              5.1641
 Quadrupole moment (field-independent basis, Debye-Ang):
   XX=            -87.6474   YY=            -95.9152   ZZ=            -91.8286
   XY=            -15.3332   XZ=             -2.4432   YZ=             -2.0603

 Normal termination of Gaussian 16 at Wed May  5 19:05:18 2021.
