 Gaussian 16, Revision A.03,
 Gaussian 16:  EM64L-G16RevA.03 25-Dec-2016

 -------------
 #p 6-31g* mp2
 -------------

 ------------------------------------------------------
 Input file generated by CHIRIPA (05-May-2021 14:55:22)
 ------------------------------------------------------
 Symbolic Z-matrix:
 Charge =  0 Multiplicity = 1

                         Standard orientation:
 ---------------------------------------------------------------------
 Center     Atomic      Atomic             Coordinates (Angstroms)
 Number     Number       Type             X           Y           Z
 ---------------------------------------------------------------------
      1          6           0        1.649959   -1.982814    1.540271
      2          6           0        2.973867   -2.127765    1.112746
      3          6           0        3.561210   -1.167903    0.283143
      4          6           0        2.792162   -0.070672   -0.101487
      5          6           0        1.470795    0.101931    0.307765
      6          6           0        0.903963   -0.870391    1.137127
      7          1           0        1.201664   -2.733298    2.184634
      8          1           0        3.555602   -2.990661    1.424258
      9          1           0        4.584084   -1.255249   -0.062570
     10          1           0        0.916030    0.972930   -0.019364
     11          1           0       -0.124416   -0.755214    1.467604
     12          7           0        3.403099    0.952086   -0.979623
     13          8           0        2.704344    1.909611   -1.304469
     14          8           0        4.569137    0.776832   -1.326434
     15          6           0       -3.173974    0.690118    0.546777
     16          6           0       -2.949475    2.176532    0.267204
     17          6           0       -2.406922    2.931057    1.481338
     18          1           0       -3.871732    0.583171    1.388584
     19          1           0       -2.225600    0.237146    0.867397
     20          1           0       -3.897684    2.626269   -0.054124
     21          1           0       -2.252319    2.279952   -0.574161
     22          1           0       -1.448261    2.509277    1.800197
     23          1           0       -3.102975    2.857562    2.323188
     24          1           0       -2.253834    3.991778    1.259316
     25          6           0       -3.716196   -0.077678   -0.657471
     26          6           0       -3.940694   -1.564091   -0.377899
     27          6           0       -4.483247   -2.318615   -1.592033
     28          1           0       -4.664570    0.375296   -0.978092
     29          1           0       -3.018437    0.029270   -1.499279
     30          1           0       -4.637850   -1.667511    0.463465
     31          1           0       -2.992486   -2.013828   -0.056571
     32          1           0       -3.787195   -2.245121   -2.433884
     33          1           0       -5.441909   -1.896836   -1.910892
     34          1           0       -4.636336   -3.379337   -1.370011
 ---------------------------------------------------------------------

 SCF Done:  E(RHF) =  -669.535506962     A.U. after   15 cycles
 E2 =    -0.2091704977D+01 EUMP2 =    -0.67162721193906D+03

 The electronic state is 1-A.
 Alpha  occ. eigenvalues --  -20.60772 -20.60767 -15.85826 -11.31195 -11.27766
 Alpha  occ. eigenvalues --  -11.27763 -11.27504 -11.26779 -11.26756 -11.22215
 Alpha  occ. eigenvalues --  -11.22203 -11.22138 -11.21956 -11.21589 -11.21516
 Alpha  occ. eigenvalues --   -1.59848  -1.39401  -1.19368  -1.09071  -1.08760
 Alpha  occ. eigenvalues --   -1.04773  -1.04089  -0.96537  -0.95595  -0.87548
 Alpha  occ. eigenvalues --   -0.86171  -0.82433  -0.80151  -0.78907  -0.77474
 Alpha  occ. eigenvalues --   -0.72044  -0.71171  -0.70476  -0.65756  -0.65017
 Alpha  occ. eigenvalues --   -0.64762  -0.62144  -0.61460  -0.59898  -0.58146
 Alpha  occ. eigenvalues --   -0.55842  -0.55270  -0.53195  -0.53101  -0.53020
 Alpha  occ. eigenvalues --   -0.52808  -0.50479  -0.48806  -0.48799  -0.48462
 Alpha  occ. eigenvalues --   -0.47194  -0.46423  -0.46347  -0.44806  -0.44366
 Alpha  occ. eigenvalues --   -0.37347  -0.36375
 Alpha virt. eigenvalues --    0.05053   0.11260   0.16516   0.18344   0.22952
 Alpha virt. eigenvalues --    0.23381   0.24569   0.26192   0.27394   0.28380
 Alpha virt. eigenvalues --    0.29280   0.30716   0.31313   0.31380   0.31817

 Mulliken charges:
               1
     1  C   -0.171537
     2  C   -0.218521
     3  C   -0.170827
     4  C    0.158749
     5  C   -0.174635
     6  C   -0.225594
     7  H    0.226361
     8  H    0.223480
     9  H    0.275657
    10  H    0.276335
    11  H    0.232516
    12  N    0.488090
    13  O   -0.460469
    14  O   -0.460441
    15  C   -0.302998
    16  C   -0.302402
    17  C   -0.475622
    18  H    0.152188
    19  H    0.139973
    20  H    0.156177
    21  H    0.155532
    22  H    0.149454
    23  H    0.156150
    24  H    0.166472
    25  C   -0.298709
    26  C   -0.299403
    27  C   -0.476158
    28  H    0.153209
    29  H    0.152770
    30  H    0.152368
    31  H    0.146487
    32  H    0.157495
    33  H    0.157148
    34  H    0.160705
 Sum of Mulliken charges =  -0.00000

 Dipole moment (field-independent basis, Debye):
    X=             -2.3135    Y=             -3.5323    Z=              3.0172  Tot=              5.1897
 Quadrupole moment (field-independent basis, Debye-Ang):
   XX=           -101.7794   YY=            -93.4164   ZZ=            -96.6707
   XY=            -13.3396   XZ=              8.5127   YZ=             -0.3404

 Normal termination of Gaussian 16 at Thu May  6 04:37:55 2021.
