 Gaussian 16, Revision A.03,
 Gaussian 16:  EM64L-G16RevA.03 25-Dec-2016

 -------------
 #p 6-31g* mp2
 -------------

 ------------------------------------------------------
 Input file generated by CHIRIPA (05-May-2021 14:55:21)
 ------------------------------------------------------
 Symbolic Z-matrix:
 Charge =  0 Multiplicity = 1

                         Standard orientation:
 ---------------------------------------------------------------------
 Center     Atomic      Atomic             Coordinates (Angstroms)
 Number     Number       Type             X           Y           Z
 ---------------------------------------------------------------------
      1          6           0        4.686775   -2.174244   -0.132533
      2          6           0        5.249441   -1.048429   -0.742835
      3          6           0        4.627159    0.199423   -0.641933
      4          6           0        3.437888    0.285698    0.080204
      5          6           0        2.852524   -0.817546    0.699470
      6          6           0        3.492218   -2.055419    0.585406
      7          1           0        5.176941   -3.139729   -0.216028
      8          1           0        6.177066   -1.137739   -1.301028
      9          1           0        5.040903    1.087256   -1.104519
     10          1           0        1.926948   -0.697221    1.249243
     11          1           0        3.052954   -2.928037    1.060411
     12          7           0        2.769889    1.601460    0.193992
     13          8           0        1.722877    1.651047    0.835820
     14          8           0        3.305973    2.558253   -0.360804
     15          6           0       -5.161982   -0.529616   -0.137081
     16          6           0       -6.472994    0.251937   -0.045396
     17          6           0       -7.705507   -0.645084   -0.163963
     18          1           0       -5.131918   -1.072129   -1.091922
     19          1           0       -5.140542   -1.290396    0.655478
     20          1           0       -6.491346    1.011933   -0.837031
     21          1           0       -6.499854    0.792804    0.909254
     22          1           0       -7.714567   -1.394732    0.633876
     23          1           0       -7.706010   -1.174357   -1.122331
     24          1           0       -8.631645   -0.065876   -0.095794
     25          6           0       -3.920853    0.353375   -0.020232
     26          6           0       -2.609841   -0.428179   -0.111917
     27          6           0       -1.377328    0.468841    0.006649
     28          1           0       -3.942292    1.114154   -0.812791
     29          1           0       -3.950916    0.895886    0.934609
     30          1           0       -2.582980   -0.969047   -1.066567
     31          1           0       -2.591488   -1.188176    0.679718
     32          1           0       -1.376824    0.998115    0.965017
     33          1           0       -1.368267    1.218490   -0.791189
     34          1           0       -0.451189   -0.110367   -0.061519
 ---------------------------------------------------------------------

 SCF Done:  E(RHF) =  -669.535473990     A.U. after   15 cycles
 E2 =    -0.2091509188D+01 EUMP2 =    -0.67162698317764D+03

 The electronic state is 1-A.
 Alpha  occ. eigenvalues --  -20.60817 -20.60795 -15.85840 -11.31226 -11.27789
 Alpha  occ. eigenvalues --  -11.27785 -11.27535 -11.26815 -11.26805 -11.21312
 Alpha  occ. eigenvalues --  -11.21067 -11.21052 -11.20909 -11.20851 -11.20170
 Alpha  occ. eigenvalues --   -1.59872  -1.39426  -1.19397  -1.08789  -1.08021
 Alpha  occ. eigenvalues --   -1.04801  -1.03074  -0.95644  -0.95472  -0.86497
 Alpha  occ. eigenvalues --   -0.86198  -0.82454  -0.79141  -0.77839  -0.77485
 Alpha  occ. eigenvalues --   -0.72063  -0.71188  -0.70504  -0.65051  -0.64807
 Alpha  occ. eigenvalues --   -0.64658  -0.62157  -0.60473  -0.58896  -0.57124
 Alpha  occ. eigenvalues --   -0.55302  -0.54771  -0.53129  -0.52908  -0.52177
 Alpha  occ. eigenvalues --   -0.51900  -0.49424  -0.48831  -0.48808  -0.47441
 Alpha  occ. eigenvalues --   -0.46186  -0.45369  -0.45303  -0.44833  -0.43266
 Alpha  occ. eigenvalues --   -0.37376  -0.36402
 Alpha virt. eigenvalues --    0.05005   0.11176   0.16495   0.21188   0.23217
 Alpha virt. eigenvalues --    0.24450   0.26867   0.27050   0.27751   0.27888
 Alpha virt. eigenvalues --    0.29055   0.30611   0.31591   0.31893   0.32210

 Mulliken charges:
               1
     1  C   -0.170776
     2  C   -0.218373
     3  C   -0.170981
     4  C    0.158315
     5  C   -0.172752
     6  C   -0.218786
     7  H    0.225737
     8  H    0.223602
     9  H    0.275707
    10  H    0.278023
    11  H    0.223774
    12  N    0.488956
    13  O   -0.458485
    14  O   -0.460247
    15  C   -0.297560
    16  C   -0.299420
    17  C   -0.475431
    18  H    0.148235
    19  H    0.147669
    20  H    0.152260
    21  H    0.152183
    22  H    0.154262
    23  H    0.154427
    24  H    0.159755
    25  C   -0.297909
    26  C   -0.302340
    27  C   -0.467736
    28  H    0.150473
    29  H    0.150588
    30  H    0.147787
    31  H    0.145866
    32  H    0.163248
    33  H    0.157796
    34  H    0.152132
 Sum of Mulliken charges =  -0.00000

 Dipole moment (field-independent basis, Debye):
    X=              2.5164    Y=             -4.5004    Z=             -0.3689  Tot=              5.1693
 Quadrupole moment (field-independent basis, Debye-Ang):
   XX=            -77.7958   YY=            -97.2975   ZZ=            -92.9260
   XY=            -14.6017   XZ=             -3.7002   YZ=             -1.9694

 Normal termination of Gaussian 16 at Thu May  6 12:30:46 2021.
