 Gaussian 16, Revision A.03,
 Gaussian 16:  EM64L-G16RevA.03 25-Dec-2016

 -------------
 #p 6-31g* mp2
 -------------

 ------------------------------------------------------
 Input file generated by CHIRIPA (05-May-2021 14:51:14)
 ------------------------------------------------------
 Symbolic Z-matrix:
 Charge =  0 Multiplicity = 1

                         Standard orientation:
 ---------------------------------------------------------------------
 Center     Atomic      Atomic             Coordinates (Angstroms)
 Number     Number       Type             X           Y           Z
 ---------------------------------------------------------------------
      1          6           0        4.347086    0.496199    0.161381
      2          6           0        4.134594    1.968182   -0.193722
      3          6           0        5.282759    2.861522    0.276868
      4          1           0        4.465008    0.401429    1.249525
      5          1           0        5.289098    0.150497   -0.286388
      6          1           0        3.192573    2.310625    0.253429
      7          1           0        4.016973    2.059435   -1.281129
      8          1           0        6.227108    2.547506   -0.179420
      9          1           0        5.398024    2.800124    1.363857
     10          1           0        5.110267    3.909520    0.012656
     11          6           0        3.207664   -0.409488   -0.302491
     12          6           0        3.420156   -1.881471    0.052612
     13          6           0        2.271991   -2.774812   -0.417978
     14          1           0        2.265651   -0.063786    0.145278
     15          1           0        3.089742   -0.314719   -1.390635
     16          1           0        3.537777   -1.972724    1.140019
     17          1           0        4.362177   -2.223915   -0.394539
     18          1           0        2.156726   -2.713413   -1.504967
     19          1           0        1.327642   -2.460796    0.038310
     20          1           0        2.444483   -3.822809   -0.153766
     21          6           0       -3.168984   -0.427779    0.326506
     22          6           0       -3.174684   -1.904825   -0.068828
     23          6           0       -1.951168   -2.660517    0.450529
     24          1           0       -2.254358    0.044462   -0.057408
     25          1           0       -3.125606   -0.348667    1.421611
     26          1           0       -3.219435   -1.981136   -1.162806
     27          1           0       -4.089496   -2.373560    0.315908
     28          1           0       -1.904973   -2.614099    1.543376
     29          1           0       -1.029969   -2.219446    0.056259
     30          1           0       -1.975599   -3.714455    0.156459
     31          6           0       -4.385766    0.341069   -0.185397
     32          6           0       -4.380066    1.818115    0.209938
     33          6           0       -5.603582    2.573807   -0.309419
     34          1           0       -4.429144    0.261957   -1.280501
     35          1           0       -5.300392   -0.131172    0.198518
     36          1           0       -3.465254    2.286850   -0.174798
     37          1           0       -4.335315    1.894426    1.303917
     38          1           0       -6.524781    2.132735    0.084851
     39          1           0       -5.649777    2.527388   -1.402266
     40          1           0       -5.579151    3.627745   -0.015349
 ---------------------------------------------------------------------

 SCF Done:  E(RHF) =  -470.733261077     A.U. after   11 cycles
 E2 =    -0.1582284898D+01 EUMP2 =    -0.47231554597435D+03

 The electronic state is 1-A.
 Alpha  occ. eigenvalues --  -11.21604 -11.21602 -11.21591 -11.21578 -11.21406
 Alpha  occ. eigenvalues --  -11.21402 -11.21347 -11.21343 -11.21072 -11.21071
 Alpha  occ. eigenvalues --  -11.21044 -11.21012  -1.08431  -1.08421  -1.03537
 Alpha  occ. eigenvalues --   -1.03505  -0.96005  -0.95938  -0.87043  -0.86935
 Alpha  occ. eigenvalues --   -0.79642  -0.79530  -0.78257  -0.78224  -0.65081
 Alpha  occ. eigenvalues --   -0.65033  -0.61008  -0.60844  -0.59350  -0.59325
 Alpha  occ. eigenvalues --   -0.57662  -0.57520  -0.55419  -0.55123  -0.52699
 Alpha  occ. eigenvalues --   -0.52638  -0.52531  -0.52264  -0.50089  -0.49741
 Alpha  occ. eigenvalues --   -0.48022  -0.47780  -0.46723  -0.46489  -0.45838
 Alpha  occ. eigenvalues --   -0.45749  -0.45722  -0.45616  -0.43787  -0.43765
 Alpha virt. eigenvalues --    0.22243   0.23022   0.23578   0.24690   0.25856
 Alpha virt. eigenvalues --    0.26842   0.26967   0.27543   0.27778   0.28879
 Alpha virt. eigenvalues --    0.30408   0.31697   0.31747   0.31962   0.31987

 Mulliken charges:
               1
     1  C   -0.298248
     2  C   -0.299680
     3  C   -0.475701
     4  H    0.149763
     5  H    0.149580
     6  H    0.151925
     7  H    0.151811
     8  H    0.155188
     9  H    0.155232
    10  H    0.160221
    11  C   -0.298333
    12  C   -0.299237
    13  C   -0.482339
    14  H    0.149060
    15  H    0.149380
    16  H    0.152006
    17  H    0.151765
    18  H    0.154504
    19  H    0.162474
    20  H    0.160533
    21  C   -0.298449
    22  C   -0.299358
    23  C   -0.481095
    24  H    0.149537
    25  H    0.149305
    26  H    0.152131
    27  H    0.151862
    28  H    0.154658
    29  H    0.160447
    30  H    0.160954
    31  C   -0.298269
    32  C   -0.299681
    33  C   -0.475705
    34  H    0.149637
    35  H    0.149681
    36  H    0.151964
    37  H    0.151829
    38  H    0.155182
    39  H    0.155229
    40  H    0.160238
 Sum of Mulliken charges =  -0.00000

 Dipole moment (field-independent basis, Debye):
    X=             -0.0065    Y=             -0.0115    Z=              0.0016  Tot=              0.0133
 Quadrupole moment (field-independent basis, Debye-Ang):
   XX=            -85.6014   YY=            -85.7697   ZZ=            -83.4072
   XY=              0.0420   XZ=             -1.2990   YZ=             -0.0801

 Normal termination of Gaussian 16 at Wed May  5 15:23:19 2021.
