 Gaussian 16, Revision A.03,
 Gaussian 16:  EM64L-G16RevA.03 25-Dec-2016

 -------------
 #p 6-31g* mp2
 -------------

 ------------------------------------------------------
 Input file generated by CHIRIPA (05-May-2021 14:53:16)
 ------------------------------------------------------
 Symbolic Z-matrix:
 Charge =  0 Multiplicity = 1

                         Standard orientation:
 ---------------------------------------------------------------------
 Center     Atomic      Atomic             Coordinates (Angstroms)
 Number     Number       Type             X           Y           Z
 ---------------------------------------------------------------------
      1          6           0       -3.258924    0.068368    0.254400
      2          6           0       -2.482449   -0.552818    1.415950
      3          6           0       -0.973988   -0.328898    1.305506
      4          1           0       -2.892306   -0.354309   -0.691053
      5          1           0       -3.049080    1.146313    0.217065
      6          1           0       -2.694779   -1.629033    1.451934
      7          1           0       -2.851090   -0.128755    2.358760
      8          1           0       -0.743326    0.741254    1.292417
      9          1           0       -0.586126   -0.767548    0.380438
     10          1           0       -0.438389   -0.781137    2.146026
     11          6           0       -4.768245   -0.147068    0.350658
     12          6           0       -5.544720    0.474119   -0.810892
     13          6           0       -7.053181    0.250198   -0.700448
     14          1           0       -4.978090   -1.225013    0.387993
     15          1           0       -5.134863    0.275609    1.296110
     16          1           0       -5.176079    0.050055   -1.753702
     17          1           0       -5.332391    1.550333   -0.846876
     18          1           0       -7.441043    0.688848    0.224620
     19          1           0       -7.283844   -0.819954   -0.687359
     20          1           0       -7.588781    0.702437   -1.540968
     21          6           0        3.402946    2.528042    0.004379
     22          6           0        4.450933    1.674023    0.363397
     23          6           0        4.313928    0.288709    0.234231
     24          6           0        3.109768   -0.210688   -0.259623
     25          6           0        2.047376    0.614246   -0.625818
     26          6           0        2.206621    1.996365   -0.488214
     27          1           0        3.518013    3.602946    0.107996
     28          1           0        5.381146    2.084125    0.746235
     29          1           0        5.109137   -0.395340    0.504673
     30          1           0        1.132015    0.175880   -1.004456
     31          1           0        1.391051    2.657208   -0.767817
     32          7           0        2.952955   -1.675566   -0.400833
     33          8           0        1.882025   -2.090583   -0.838447
     34          8           0        3.903945   -2.380984   -0.071224
 ---------------------------------------------------------------------

 SCF Done:  E(RHF) =  -669.535417215     A.U. after   15 cycles
 E2 =    -0.2092021338D+01 EUMP2 =    -0.67162743855287D+03

 The electronic state is 1-A.
 Alpha  occ. eigenvalues --  -20.60799 -20.60793 -15.85835 -11.31141 -11.27732
 Alpha  occ. eigenvalues --  -11.27694 -11.27474 -11.26730 -11.26715 -11.21637
 Alpha  occ. eigenvalues --  -11.21531 -11.21438 -11.21369 -11.21085 -11.20988
 Alpha  occ. eigenvalues --   -1.59861  -1.39418  -1.19326  -1.08732  -1.08438
 Alpha  occ. eigenvalues --   -1.04726  -1.03517  -0.95986  -0.95568  -0.87010
 Alpha  occ. eigenvalues --   -0.86120  -0.82410  -0.79602  -0.78274  -0.77450
 Alpha  occ. eigenvalues --   -0.72061  -0.71173  -0.70449  -0.65075  -0.64977
 Alpha  occ. eigenvalues --   -0.64736  -0.62108  -0.60895  -0.59338  -0.57592
 Alpha  occ. eigenvalues --   -0.55319  -0.55186  -0.53124  -0.52882  -0.52634
 Alpha  occ. eigenvalues --   -0.52291  -0.49921  -0.48812  -0.48810  -0.47896
 Alpha  occ. eigenvalues --   -0.46608  -0.45807  -0.45726  -0.44798  -0.43776
 Alpha  occ. eigenvalues --   -0.37308  -0.36293
 Alpha virt. eigenvalues --    0.05047   0.11294   0.16515   0.21057   0.22920
 Alpha virt. eigenvalues --    0.24202   0.26180   0.26698   0.27655   0.27897
 Alpha virt. eigenvalues --    0.29424   0.29781   0.31637   0.31918   0.32050

 Mulliken charges:
               1
     1  C   -0.298833
     2  C   -0.299445
     3  C   -0.484764
     4  H    0.150535
     5  H    0.144245
     6  H    0.156727
     7  H    0.150623
     8  H    0.146065
     9  H    0.166897
    10  H    0.164129
    11  C   -0.298209
    12  C   -0.299680
    13  C   -0.475747
    14  H    0.151859
    15  H    0.149359
    16  H    0.152584
    17  H    0.149885
    18  H    0.154921
    19  H    0.156330
    20  H    0.159995
    21  C   -0.170425
    22  C   -0.218911
    23  C   -0.170719
    24  C    0.156329
    25  C   -0.164545
    26  C   -0.221280
    27  H    0.225387
    28  H    0.223168
    29  H    0.275349
    30  H    0.277773
    31  H    0.223544
    32  N    0.488968
    33  O   -0.462212
    34  O   -0.459904
 Sum of Mulliken charges =  -0.00000

 Dipole moment (field-independent basis, Debye):
    X=              0.5685    Y=              5.0534    Z=              0.5005  Tot=              5.1098
 Quadrupole moment (field-independent basis, Debye-Ang):
   XX=            -88.3188   YY=            -96.6952   ZZ=            -94.9506
   XY=             15.4974   XZ=              3.2326   YZ=             -1.3524

 Normal termination of Gaussian 16 at Thu May  6 07:29:59 2021.
