 Gaussian 16, Revision A.03,
 Gaussian 16:  EM64L-G16RevA.03 25-Dec-2016

 -------------
 #p 6-31g* mp2
 -------------

 ------------------------------------------------------
 Input file generated by CHIRIPA (05-May-2021 14:53:17)
 ------------------------------------------------------
 Symbolic Z-matrix:
 Charge =  0 Multiplicity = 1

                         Standard orientation:
 ---------------------------------------------------------------------
 Center     Atomic      Atomic             Coordinates (Angstroms)
 Number     Number       Type             X           Y           Z
 ---------------------------------------------------------------------
      1          6           0        4.437355   -0.018457    0.099069
      2          6           0        4.373920   -1.491874   -0.304668
      3          6           0        5.756231   -2.137868   -0.403169
      4          1           0        5.048440    0.529305   -0.631326
      5          1           0        4.953141    0.067836    1.065461
      6          1           0        3.857184   -1.575491   -1.269348
      7          1           0        3.762757   -2.036157    0.426668
      8          1           0        6.276107   -2.083914    0.558818
      9          1           0        6.371071   -1.620631   -1.146834
     10          1           0        5.687476   -3.191008   -0.693047
     11          6           0        3.063320    0.641248    0.201755
     12          6           0        3.126755    2.114665    0.605491
     13          6           0        1.744444    2.760658    0.703992
     14          1           0        2.547534    0.554954   -0.764637
     15          1           0        2.452235    0.093485    0.932150
     16          1           0        3.737918    2.658947   -0.125845
     17          1           0        3.643491    2.198281    1.570171
     18          1           0        1.129604    2.243421    1.447658
     19          1           0        1.224568    2.706704   -0.257995
     20          1           0        1.813199    3.813798    0.993870
     21          6           0       -2.702951    2.203209   -0.691180
     22          6           0       -1.626913    1.333371   -0.896228
     23          6           0       -1.741403   -0.024084   -0.581975
     24          6           0       -2.951897   -0.479795   -0.062049
     25          6           0       -4.042011    0.361877    0.153657
     26          6           0       -3.904947    1.715546   -0.167814
     27          1           0       -2.605245    3.256242   -0.938103
     28          1           0       -0.692233    1.709308   -1.302541
     29          1           0       -0.924280   -0.719514   -0.730648
     30          1           0       -4.961160   -0.042268    0.560167
     31          1           0       -4.742280    2.388764   -0.007516
     32          7           0       -3.085051   -1.914867    0.274458
     33          8           0       -4.162124   -2.291534    0.731267
     34          8           0       -2.109825   -2.635837    0.075032
 ---------------------------------------------------------------------

 SCF Done:  E(RHF) =  -669.535366942     A.U. after   15 cycles
 E2 =    -0.2091321929D+01 EUMP2 =    -0.67162668887070D+03

 The electronic state is 1-A.
 Alpha  occ. eigenvalues --  -20.60724 -20.60719 -15.85776 -11.31127 -11.27696
 Alpha  occ. eigenvalues --  -11.27678 -11.27429 -11.26713 -11.26674 -11.22182
 Alpha  occ. eigenvalues --  -11.21918 -11.21862 -11.21775 -11.21687 -11.21170
 Alpha  occ. eigenvalues --   -1.59800  -1.39354  -1.19297  -1.08851  -1.08695
 Alpha  occ. eigenvalues --   -1.04698  -1.03938  -0.96411  -0.95532  -0.87434
 Alpha  occ. eigenvalues --   -0.86095  -0.82366  -0.80017  -0.78642  -0.77412
 Alpha  occ. eigenvalues --   -0.71995  -0.71123  -0.70403  -0.65491  -0.64948
 Alpha  occ. eigenvalues --   -0.64719  -0.62083  -0.61312  -0.59784  -0.58004
 Alpha  occ. eigenvalues --   -0.55725  -0.55193  -0.53142  -0.53068  -0.52949
 Alpha  occ. eigenvalues --   -0.52588  -0.50349  -0.48758  -0.48750  -0.48307
 Alpha  occ. eigenvalues --   -0.47039  -0.46185  -0.46085  -0.44762  -0.44191
 Alpha  occ. eigenvalues --   -0.37274  -0.36286
 Alpha virt. eigenvalues --    0.05115   0.11313   0.16582   0.19855   0.22755
 Alpha virt. eigenvalues --    0.23881   0.25370   0.26549   0.26874   0.28525
 Alpha virt. eigenvalues --    0.29049   0.30099   0.31309   0.31661   0.31986

 Mulliken charges:
               1
     1  C   -0.298506
     2  C   -0.300637
     3  C   -0.476130
     4  H    0.149684
     5  H    0.151427
     6  H    0.151303
     7  H    0.155806
     8  H    0.155762
     9  H    0.154577
    10  H    0.162663
    11  C   -0.299003
    12  C   -0.299790
    13  C   -0.477319
    14  H    0.142105
    15  H    0.153330
    16  H    0.152729
    17  H    0.155643
    18  H    0.160659
    19  H    0.143666
    20  H    0.162223
    21  C   -0.172058
    22  C   -0.217617
    23  C   -0.173223
    24  C    0.158519
    25  C   -0.171238
    26  C   -0.218605
    27  H    0.225612
    28  H    0.226959
    29  H    0.276266
    30  H    0.275297
    31  H    0.223141
    32  N    0.488043
    33  O   -0.460713
    34  O   -0.460573
 Sum of Mulliken charges =  -0.00000

 Dipole moment (field-independent basis, Debye):
    X=              0.6106    Y=              5.0268    Z=             -1.0914  Tot=              5.1800
 Quadrupole moment (field-independent basis, Debye-Ang):
   XX=            -93.5722   YY=           -100.3861   ZZ=            -93.9479
   XY=            -15.7705   XZ=              2.1351   YZ=              0.2975

 Normal termination of Gaussian 16 at Thu May  6 15:35:08 2021.
