 Gaussian 16, Revision A.03,
 Gaussian 16:  EM64L-G16RevA.03 25-Dec-2016

 -------------
 #p 6-31g* mp2
 -------------

 ------------------------------------------------------
 Input file generated by CHIRIPA (05-May-2021 14:57:23)
 ------------------------------------------------------
 Symbolic Z-matrix:
 Charge =  0 Multiplicity = 1

                         Standard orientation:
 ---------------------------------------------------------------------
 Center     Atomic      Atomic             Coordinates (Angstroms)
 Number     Number       Type             X           Y           Z
 ---------------------------------------------------------------------
      1          6           0        2.640262    2.338478   -0.823020
      2          6           0        3.944778    1.893001   -1.060312
      3          6           0        4.340710    0.612044   -0.664160
      4          6           0        3.402106   -0.200725   -0.030347
      5          6           0        2.095107    0.214353    0.220164
      6          6           0        1.721210    1.499212   -0.184665
      7          1           0        2.341251    3.335072   -1.134130
      8          1           0        4.660647    2.542620   -1.555864
      9          1           0        5.344202    0.241792   -0.835430
     10          1           0        1.403841   -0.456037    0.716295
     11          1           0        0.707432    1.842515    0.000923
     12          7           0        3.809597   -1.558882    0.393634
     13          8           0        2.963819   -2.255669    0.950217
     14          8           0        4.967051   -1.900902    0.161339
     15          6           0       -2.466458    2.105712    1.139332
     16          6           0       -1.752531    0.912125    1.288256
     17          6           0       -2.224285   -0.273401    0.716834
     18          6           0       -3.418908   -0.228922   -0.000233
     19          6           0       -4.152969    0.944483   -0.166257
     20          6           0       -3.662290    2.118060    0.413830
     21          1           0       -2.092638    3.022016    1.586591
     22          1           0       -0.823537    0.899560    1.851157
     23          1           0       -1.691665   -1.211373    0.816556
     24          1           0       -5.075931    0.925651   -0.733006
     25          1           0       -4.218841    3.043554    0.296540
     26          7           0       -3.928350   -1.477661   -0.609758
     27          8           0       -4.983437   -1.412001   -1.236749
     28          8           0       -3.262918   -2.498438   -0.448971
 ---------------------------------------------------------------------

 SCF Done:  E(RHF) =  -868.336439935     A.U. after   16 cycles
 E2 =    -0.2601472194D+01 EUMP2 =    -0.87093791212901D+03

 The electronic state is 1-A.
 Alpha  occ. eigenvalues --  -20.61183 -20.61166 -20.61084 -20.61078 -15.86241
 Alpha  occ. eigenvalues --  -15.86140 -11.31861 -11.31621 -11.28499 -11.28454
 Alpha  occ. eigenvalues --  -11.28320 -11.28264 -11.28149 -11.27924 -11.27611
 Alpha  occ. eigenvalues --  -11.27501 -11.27200 -11.27185  -1.60249  -1.60155
 Alpha  occ. eigenvalues --   -1.39794  -1.39707  -1.20087  -1.19787  -1.09441
 Alpha  occ. eigenvalues --   -1.09154  -1.05550  -1.05202  -0.96218  -0.95981
 Alpha  occ. eigenvalues --   -0.86934  -0.86591  -0.83076  -0.82796  -0.78102
 Alpha  occ. eigenvalues --   -0.77799  -0.72453  -0.72355  -0.71578  -0.71478
 Alpha  occ. eigenvalues --   -0.71184  -0.70906  -0.65752  -0.65665  -0.65416
 Alpha  occ. eigenvalues --   -0.65141  -0.63027  -0.62386  -0.56028  -0.55702
 Alpha  occ. eigenvalues --   -0.53902  -0.53656  -0.53495  -0.53209  -0.49235
 Alpha  occ. eigenvalues --   -0.49190  -0.49122  -0.49107  -0.45143  -0.45088
 Alpha  occ. eigenvalues --   -0.38087  -0.37756  -0.37139  -0.36805
 Alpha virt. eigenvalues --    0.04471   0.04691   0.10338   0.10835   0.15830
 Alpha virt. eigenvalues --    0.16107   0.19028   0.21996   0.24581   0.26621
 Alpha virt. eigenvalues --    0.27935   0.29711   0.30340   0.30481   0.31942

 Mulliken charges:
               1
     1  C   -0.171468
     2  C   -0.217780
     3  C   -0.170257
     4  C    0.160357
     5  C   -0.174669
     6  C   -0.222315
     7  H    0.225554
     8  H    0.224950
     9  H    0.277371
    10  H    0.268618
    11  H    0.223990
    12  N    0.488284
    13  O   -0.460311
    14  O   -0.458279
    15  C   -0.174567
    16  C   -0.229090
    17  C   -0.172195
    18  C    0.159278
    19  C   -0.168869
    20  C   -0.218165
    21  H    0.226238
    22  H    0.223996
    23  H    0.281703
    24  H    0.278576
    25  H    0.225753
    26  N    0.487802
    27  O   -0.458922
    28  O   -0.455584
 Sum of Mulliken charges =  -0.00000

 Dipole moment (field-independent basis, Debye):
    X=              0.2103    Y=              9.0706    Z=              0.5454  Tot=              9.0894
 Quadrupole moment (field-independent basis, Debye-Ang):
   XX=           -118.2373   YY=           -108.3133   ZZ=           -104.8620
   XY=             -0.2169   XZ=            -12.8816   YZ=             -1.8224

 Normal termination of Gaussian 16 at Thu May  6 08:11:05 2021.
