 Gaussian 16, Revision A.03,
 Gaussian 16:  EM64L-G16RevA.03 25-Dec-2016

 -------------
 #p 6-31g* mp2
 -------------

 ------------------------------------------------------
 Input file generated by CHIRIPA (05-May-2021 14:53:14)
 ------------------------------------------------------
 Symbolic Z-matrix:
 Charge =  0 Multiplicity = 1

                         Standard orientation:
 ---------------------------------------------------------------------
 Center     Atomic      Atomic             Coordinates (Angstroms)
 Number     Number       Type             X           Y           Z
 ---------------------------------------------------------------------
      1          6           0        4.102157    0.797323    0.347527
      2          6           0        3.426048    2.118896   -0.018949
      3          6           0        4.015577    3.312843    0.732542
      4          1           0        4.009562    0.633187    1.429854
      5          1           0        5.177355    0.871853    0.133543
      6          1           0        2.352218    2.041419    0.194368
      7          1           0        3.520095    2.279811   -1.100558
      8          1           0        5.082622    3.418447    0.511488
      9          1           0        3.908109    3.178701    1.813772
     10          1           0        3.517611    4.247248    0.455454
     11          6           0        3.523747   -0.405574   -0.395582
     12          6           0        4.199856   -1.727147   -0.029106
     13          6           0        3.610327   -2.921094   -0.780597
     14          1           0        2.448549   -0.480105   -0.181598
     15          1           0        3.616341   -0.241438   -1.477909
     16          1           0        4.105809   -1.888062    1.052503
     17          1           0        5.273685   -1.649670   -0.242423
     18          1           0        3.717794   -2.786952   -1.861827
     19          1           0        2.543282   -3.026698   -0.559543
     20          1           0        4.108293   -3.855499   -0.503509
     21          6           0       -1.481383   -2.119806    0.523984
     22          6           0       -0.955008   -0.978941   -0.090734
     23          6           0       -1.775410    0.116720   -0.375367
     24          6           0       -3.123640    0.037114   -0.030071
     25          6           0       -3.677746   -1.085484    0.583142
     26          6           0       -2.838679   -2.169349    0.858370
     27          1           0       -0.836826   -2.966360    0.741441
     28          1           0        0.098708   -0.937668   -0.351545
     29          1           0       -1.394086    1.012359   -0.850595
     30          1           0       -4.732117   -1.097152    0.831302
     31          1           0       -3.250212   -3.054058    1.335838
     32          7           0       -4.002043    1.190798   -0.326420
     33          8           0       -5.186480    1.095779   -0.012227
     34          8           0       -3.489466    2.168228   -0.867282
 ---------------------------------------------------------------------

 SCF Done:  E(RHF) =  -669.535552602     A.U. after   15 cycles
 E2 =    -0.2091358568D+01 EUMP2 =    -0.67162691116931D+03

 The electronic state is 1-A.
 Alpha  occ. eigenvalues --  -20.60743 -20.60738 -15.85796 -11.31162 -11.27734
 Alpha  occ. eigenvalues --  -11.27724 -11.27477 -11.26750 -11.26717 -11.22473
 Alpha  occ. eigenvalues --  -11.22354 -11.22170 -11.22051 -11.22040 -11.21450
 Alpha  occ. eigenvalues --   -1.59819  -1.39372  -1.19334  -1.09212  -1.08730
 Alpha  occ. eigenvalues --   -1.04737  -1.04242  -0.96701  -0.95565  -0.87712
 Alpha  occ. eigenvalues --   -0.86139  -0.82398  -0.80320  -0.79031  -0.77441
 Alpha  occ. eigenvalues --   -0.72015  -0.71142  -0.70446  -0.65885  -0.64987
 Alpha  occ. eigenvalues --   -0.64725  -0.62099  -0.61624  -0.60074  -0.58303
 Alpha  occ. eigenvalues --   -0.56011  -0.55239  -0.53362  -0.53147  -0.53066
 Alpha  occ. eigenvalues --   -0.52825  -0.50644  -0.48786  -0.48770  -0.48618
 Alpha  occ. eigenvalues --   -0.47358  -0.46546  -0.46461  -0.44778  -0.44513
 Alpha  occ. eigenvalues --   -0.37318  -0.36340
 Alpha virt. eigenvalues --    0.05089   0.11292   0.16559   0.18654   0.22761
 Alpha virt. eigenvalues --    0.23559   0.24690   0.26363   0.26532   0.28126
 Alpha virt. eigenvalues --    0.29465   0.30366   0.31144   0.31190   0.31602

 Mulliken charges:
               1
     1  C   -0.298053
     2  C   -0.300019
     3  C   -0.476309
     4  H    0.151133
     5  H    0.152727
     6  H    0.148921
     7  H    0.153451
     8  H    0.156229
     9  H    0.156275
    10  H    0.163819
    11  C   -0.304869
    12  C   -0.300181
    13  C   -0.474825
    14  H    0.143088
    15  H    0.152801
    16  H    0.152923
    17  H    0.156548
    18  H    0.158721
    19  H    0.144751
    20  H    0.164027
    21  C   -0.173498
    22  C   -0.227977
    23  C   -0.173976
    24  C    0.158928
    25  C   -0.171149
    26  C   -0.218506
    27  H    0.225838
    28  H    0.237023
    29  H    0.276231
    30  H    0.275521
    31  H    0.223342
    32  N    0.488059
    33  O   -0.460604
    34  O   -0.460390
 Sum of Mulliken charges =  -0.00000

 Dipole moment (field-independent basis, Debye):
    X=              3.3286    Y=             -4.0052    Z=              1.0459  Tot=              5.3118
 Quadrupole moment (field-independent basis, Debye-Ang):
   XX=           -109.8696   YY=            -94.9445   ZZ=            -94.3991
   XY=             14.9822   XZ=             -5.8654   YZ=             -1.5020

 Normal termination of Gaussian 16 at Thu May  6 18:45:24 2021.
