 Gaussian 16, Revision A.03,
 Gaussian 16:  EM64L-G16RevA.03 25-Dec-2016

 -------------
 #p 6-31g* mp2
 -------------

 ------------------------------------------------------
 Input file generated by CHIRIPA (05-May-2021 14:57:21)
 ------------------------------------------------------
 Symbolic Z-matrix:
 Charge =  0 Multiplicity = 1

                         Standard orientation:
 ---------------------------------------------------------------------
 Center     Atomic      Atomic             Coordinates (Angstroms)
 Number     Number       Type             X           Y           Z
 ---------------------------------------------------------------------
      1          6           0       -5.328017   -1.873268   -0.155104
      2          6           0       -3.974315   -1.973556   -0.492675
      3          6           0       -3.155414   -0.840454   -0.487401
      4          6           0       -3.725802    0.382591   -0.137960
      5          6           0       -5.070951    0.514801    0.203192
      6          6           0       -5.871057   -0.631598    0.191142
      7          1           0       -5.956860   -2.758654   -0.161832
      8          1           0       -3.549870   -2.936552   -0.761987
      9          1           0       -2.104266   -0.889601   -0.744483
     10          1           0       -5.465462    1.488467    0.467300
     11          1           0       -6.922029   -0.550727    0.453750
     12          7           0       -2.868816    1.589195   -0.128790
     13          8           0       -3.395472    2.655129    0.182745
     14          8           0       -1.686682    1.446148   -0.433311
     15          6           0        1.484637   -0.660543    0.819699
     16          6           0        1.914806    0.660289    0.655748
     17          6           0        3.232575    0.936261    0.279089
     18          6           0        4.097365   -0.137631    0.073709
     19          6           0        3.698754   -1.464382    0.229057
     20          6           0        2.376412   -1.716800    0.606207
     21          1           0        0.459185   -0.865776    1.112488
     22          1           0        1.224435    1.482582    0.820872
     23          1           0        3.592049    1.949299    0.145105
     24          1           0        4.410055   -2.263114    0.057313
     25          1           0        2.045108   -2.743572    0.732793
     26          7           0        5.494849    0.142060   -0.325303
     27          8           0        6.237225   -0.821746   -0.500214
     28          8           0        5.821361    1.319793   -0.455582
 ---------------------------------------------------------------------

 SCF Done:  E(RHF) =  -868.339353692     A.U. after   16 cycles
 E2 =    -0.2599122276D+01 EUMP2 =    -0.87093847596720D+03

 The electronic state is 1-A.
 Alpha  occ. eigenvalues --  -20.61857 -20.61792 -20.60302 -20.60288 -15.86858
 Alpha  occ. eigenvalues --  -15.85343 -11.32070 -11.30617 -11.28652 -11.28573
 Alpha  occ. eigenvalues --  -11.28290 -11.27602 -11.27548 -11.27206 -11.27052
 Alpha  occ. eigenvalues --  -11.26867 -11.26269 -11.25942  -1.60889  -1.59374
 Alpha  occ. eigenvalues --   -1.40449  -1.38930  -1.20217  -1.18756  -1.09634
 Alpha  occ. eigenvalues --   -1.08172  -1.05597  -1.04124  -0.96499  -0.95030
 Alpha  occ. eigenvalues --   -0.86999  -0.85522  -0.83335  -0.81853  -0.78412
 Alpha  occ. eigenvalues --   -0.76911  -0.73083  -0.72201  -0.71564  -0.71313
 Alpha  occ. eigenvalues --   -0.70695  -0.69881  -0.65870  -0.65588  -0.64400
 Alpha  occ. eigenvalues --   -0.64087  -0.62949  -0.61452  -0.56081  -0.54660
 Alpha  occ. eigenvalues --   -0.53930  -0.53676  -0.52482  -0.52189  -0.49847
 Alpha  occ. eigenvalues --   -0.49814  -0.48326  -0.48311  -0.45885  -0.44356
 Alpha  occ. eigenvalues --   -0.38174  -0.37195  -0.36747  -0.35716
 Alpha virt. eigenvalues --    0.04078   0.05574   0.10430   0.11926   0.15616
 Alpha virt. eigenvalues --    0.17050   0.20273   0.22063   0.26007   0.27088
 Alpha virt. eigenvalues --    0.28147   0.28845   0.30561   0.31144   0.32933

 Mulliken charges:
               1
     1  C   -0.169965
     2  C   -0.218186
     3  C   -0.175590
     4  C    0.158383
     5  C   -0.170157
     6  C   -0.218092
     7  H    0.228505
     8  H    0.224618
     9  H    0.273296
    10  H    0.277577
    11  H    0.226509
    12  N    0.489601
    13  O   -0.454804
    14  O   -0.469656
    15  C   -0.173627
    16  C   -0.216882
    17  C   -0.172980
    18  C    0.158720
    19  C   -0.172841
    20  C   -0.219270
    21  H    0.221833
    22  H    0.242226
    23  H    0.276172
    24  H    0.272634
    25  H    0.217169
    26  N    0.488035
    27  O   -0.462984
    28  O   -0.460240
 Sum of Mulliken charges =  -0.00000

 Dipole moment (field-independent basis, Debye):
    X=             -8.4137    Y=             -5.0299    Z=              1.3820  Tot=              9.8995
 Quadrupole moment (field-independent basis, Debye-Ang):
   XX=           -119.5525   YY=           -101.7396   ZZ=           -105.9148
   XY=              8.4924   XZ=              4.6145   YZ=              1.5099

 Normal termination of Gaussian 16 at Thu May  6 21:02:23 2021.
