 Gaussian 16, Revision A.03,
 Gaussian 16:  EM64L-G16RevA.03 25-Dec-2016

 -------------
 #p 6-31g* mp2
 -------------

 ------------------------------------------------------
 Input file generated by CHIRIPA (05-May-2021 14:51:09)
 ------------------------------------------------------
 Symbolic Z-matrix:
 Charge =  0 Multiplicity = 1

                         Standard orientation:
 ---------------------------------------------------------------------
 Center     Atomic      Atomic             Coordinates (Angstroms)
 Number     Number       Type             X           Y           Z
 ---------------------------------------------------------------------
      1          6           0       -2.426248   -0.022574    0.433400
      2          6           0       -3.167563   -1.195175   -0.209595
      3          6           0       -3.031628   -2.490838    0.590763
      4          1           0       -1.363609   -0.281388    0.537125
      5          1           0       -2.811116    0.131831    1.450961
      6          1           0       -2.782374   -1.346439   -1.226140
      7          1           0       -4.228526   -0.933466   -0.311976
      8          1           0       -3.433679   -2.363532    1.601085
      9          1           0       -1.979309   -2.778852    0.681727
     10          1           0       -3.569144   -3.315990    0.113206
     11          6           0       -2.552773    1.279742   -0.355076
     12          6           0       -1.811457    2.452343    0.287919
     13          6           0       -1.947393    3.748006   -0.512439
     14          1           0       -2.167905    1.125337   -1.372637
     15          1           0       -3.615412    1.538555   -0.458801
     16          1           0       -0.750495    2.190633    0.390301
     17          1           0       -2.196647    2.603607    1.304464
     18          1           0       -2.999712    4.036020   -0.603403
     19          1           0       -1.545342    3.620700   -1.522760
     20          1           0       -1.409877    4.573158   -0.034882
     21          6           0        3.128858   -0.217860   -0.116446
     22          6           0        2.995430    1.214834    0.400825
     23          6           0        4.282702    2.023935    0.239327
     24          1           0        3.947955   -0.718886    0.417407
     25          1           0        3.416333   -0.192207   -1.176679
     26          1           0        2.706943    1.186491    1.459404
     27          1           0        2.176431    1.712447   -0.134186
     28          1           0        4.571532    2.081937   -0.815098
     29          1           0        5.105059    1.552993    0.787545
     30          1           0        4.164988    3.044963    0.615500
     31          6           0        1.850163   -1.039308    0.038122
     32          6           0        1.983591   -2.472002   -0.479150
     33          6           0        0.696319   -3.281103   -0.317652
     34          1           0        1.562688   -1.064960    1.098356
     35          1           0        1.031066   -0.538282   -0.495730
     36          1           0        2.802590   -2.969615    0.055861
     37          1           0        2.272077   -2.443658   -1.537728
     38          1           0       -0.126038   -2.810160   -0.865870
     39          1           0        0.407488   -3.339105    0.736774
     40          1           0        0.814033   -4.302131   -0.693824
 ---------------------------------------------------------------------

 SCF Done:  E(RHF) =  -470.732335750     A.U. after   11 cycles
 E2 =    -0.1584892481D+01 EUMP2 =    -0.47231722823147D+03

 The electronic state is 1-A.
 Alpha  occ. eigenvalues --  -11.21705 -11.21682 -11.21556 -11.21513 -11.21511
 Alpha  occ. eigenvalues --  -11.21447 -11.21338 -11.21244 -11.21173 -11.21126
 Alpha  occ. eigenvalues --  -11.21049 -11.20833  -1.08543  -1.08351  -1.03643
 Alpha  occ. eigenvalues --   -1.03437  -0.96112  -0.95867  -0.87145  -0.86871
 Alpha  occ. eigenvalues --   -0.79760  -0.79463  -0.78441  -0.78088  -0.65241
 Alpha  occ. eigenvalues --   -0.64927  -0.61093  -0.60835  -0.59449  -0.59243
 Alpha  occ. eigenvalues --   -0.57815  -0.57432  -0.55415  -0.55175  -0.52777
 Alpha  occ. eigenvalues --   -0.52658  -0.52580  -0.52137  -0.50025  -0.49791
 Alpha  occ. eigenvalues --   -0.48238  -0.47652  -0.46725  -0.46491  -0.46332
 Alpha  occ. eigenvalues --   -0.45799  -0.45682  -0.45128  -0.43881  -0.43699
 Alpha virt. eigenvalues --    0.20006   0.22199   0.23553   0.24986   0.25396
 Alpha virt. eigenvalues --    0.26175   0.26792   0.27370   0.28753   0.30289
 Alpha virt. eigenvalues --    0.30441   0.30902   0.31664   0.31833   0.31979

 Mulliken charges:
               1
     1  C   -0.305499
     2  C   -0.299464
     3  C   -0.483883
     4  H    0.157119
     5  H    0.149159
     6  H    0.150013
     7  H    0.151678
     8  H    0.153654
     9  H    0.166044
    10  H    0.159045
    11  C   -0.297676
    12  C   -0.302995
    13  C   -0.475481
    14  H    0.148129
    15  H    0.149607
    16  H    0.154780
    17  H    0.151984
    18  H    0.155205
    19  H    0.154581
    20  H    0.160159
    21  C   -0.297992
    22  C   -0.302313
    23  C   -0.475740
    24  H    0.150205
    25  H    0.149696
    26  H    0.152538
    27  H    0.153843
    28  H    0.155310
    29  H    0.155436
    30  H    0.160711
    31  C   -0.302601
    32  C   -0.299683
    33  C   -0.481073
    34  H    0.150438
    35  H    0.152425
    36  H    0.152501
    37  H    0.152151
    38  H    0.159548
    39  H    0.156915
    40  H    0.161528
 Sum of Mulliken charges =  -0.00000

 Dipole moment (field-independent basis, Debye):
    X=              0.1112    Y=             -0.0416    Z=              0.0114  Tot=              0.1192
 Quadrupole moment (field-independent basis, Debye-Ang):
   XX=            -84.8992   YY=            -86.0701   ZZ=            -83.8680
   XY=             -0.9997   XZ=             -0.1128   YZ=              0.3851

 Normal termination of Gaussian 16 at Wed May  5 15:07:44 2021.
