 Gaussian 16, Revision A.03,
 Gaussian 16:  EM64L-G16RevA.03 25-Dec-2016

 -------------
 #p 6-31g* mp2
 -------------

 ------------------------------------------------------
 Input file generated by CHIRIPA (05-May-2021 14:51:12)
 ------------------------------------------------------
 Symbolic Z-matrix:
 Charge =  0 Multiplicity = 1

                         Standard orientation:
 ---------------------------------------------------------------------
 Center     Atomic      Atomic             Coordinates (Angstroms)
 Number     Number       Type             X           Y           Z
 ---------------------------------------------------------------------
      1          6           0        2.466825   -0.724934    0.539371
      2          6           0        2.341163   -2.183592    0.098335
      3          6           0        1.424163   -2.999840    1.009732
      4          1           0        2.847126   -0.691451    1.569514
      5          1           0        1.467725   -0.268024    0.560018
      6          1           0        3.340356   -2.637224    0.077193
      7          1           0        1.961298   -2.213601   -0.930946
      8          1           0        0.415805   -2.573654    1.023149
      9          1           0        1.802698   -2.999684    2.037016
     10          1           0        1.348656   -4.039495    0.676153
     11          6           0        3.380296    0.103925   -0.361901
     12          6           0        3.505958    1.562582    0.079135
     13          6           0        4.422958    2.378830   -0.832262
     14          1           0        4.379397   -0.352986   -0.382548
     15          1           0        2.999995    0.070442   -1.392044
     16          1           0        3.885823    1.592591    1.108416
     17          1           0        2.506765    2.016214    0.100277
     18          1           0        4.044423    2.378674   -1.859546
     19          1           0        5.431316    1.952644   -0.845679
     20          1           0        4.498465    3.418486   -0.498683
     21          6           0       -2.735990    0.895650    0.364977
     22          6           0       -3.233834    2.246391   -0.150418
     23          6           0       -2.850783    3.407212    0.768041
     24          1           0       -3.144645    0.720464    1.369594
     25          1           0       -1.643246    0.932855    0.474155
     26          1           0       -4.325169    2.206202   -0.259906
     27          1           0       -2.824100    2.418297   -1.154003
     28          1           0       -1.762790    3.475864    0.868828
     29          1           0       -3.272386    3.262564    1.768004
     30          1           0       -3.216606    4.363227    0.380655
     31          6           0       -3.111131   -0.274640   -0.542447
     32          6           0       -2.613287   -1.625382   -0.027053
     33          6           0       -2.996338   -2.786201   -0.945510
     34          1           0       -4.203876   -0.311844   -0.651626
     35          1           0       -2.702477   -0.099453   -1.547065
     36          1           0       -3.023021   -1.797286    0.976533
     37          1           0       -1.521952   -1.585192    0.082436
     38          1           0       -2.574735   -2.641554   -1.945474
     39          1           0       -4.084332   -2.854854   -1.046298
     40          1           0       -2.630515   -3.742216   -0.558125
 ---------------------------------------------------------------------

 SCF Done:  E(RHF) =  -470.733364428     A.U. after   11 cycles
 E2 =    -0.1583006984D+01 EUMP2 =    -0.47231637141216D+03

 The electronic state is 1-A.
 Alpha  occ. eigenvalues --  -11.21640 -11.21638 -11.21636 -11.21622 -11.21453
 Alpha  occ. eigenvalues --  -11.21444 -11.21393 -11.21385 -11.21097 -11.21097
 Alpha  occ. eigenvalues --  -11.21094 -11.21042  -1.08481  -1.08455  -1.03582
 Alpha  occ. eigenvalues --   -1.03536  -0.96024  -0.95987  -0.87035  -0.87008
 Alpha  occ. eigenvalues --   -0.79678  -0.79573  -0.78328  -0.78237  -0.65203
 Alpha  occ. eigenvalues --   -0.65008  -0.61111  -0.60824  -0.59390  -0.59356
 Alpha  occ. eigenvalues --   -0.57669  -0.57569  -0.55379  -0.55208  -0.52707
 Alpha  occ. eigenvalues --   -0.52685  -0.52458  -0.52403  -0.50048  -0.49870
 Alpha  occ. eigenvalues --   -0.48061  -0.47836  -0.46821  -0.46511  -0.46006
 Alpha  occ. eigenvalues --   -0.45797  -0.45787  -0.45452  -0.43824  -0.43805
 Alpha virt. eigenvalues --    0.20009   0.23215   0.23482   0.24625   0.25407
 Alpha virt. eigenvalues --    0.26887   0.27084   0.27127   0.28470   0.29612
 Alpha virt. eigenvalues --    0.30323   0.31433   0.31638   0.31756   0.32084

 Mulliken charges:
               1
     1  C   -0.299834
     2  C   -0.299424
     3  C   -0.482776
     4  H    0.150178
     5  H    0.149441
     6  H    0.152199
     7  H    0.151613
     8  H    0.162405
     9  H    0.155286
    10  H    0.160206
    11  C   -0.298286
    12  C   -0.299492
    13  C   -0.475732
    14  H    0.149858
    15  H    0.149489
    16  H    0.152207
    17  H    0.151310
    18  H    0.155134
    19  H    0.155320
    20  H    0.160412
    21  C   -0.299308
    22  C   -0.299698
    23  C   -0.475697
    24  H    0.150121
    25  H    0.149394
    26  H    0.152199
    27  H    0.151858
    28  H    0.155109
    29  H    0.155382
    30  H    0.160399
    31  C   -0.297562
    32  C   -0.307063
    33  C   -0.475659
    34  H    0.149896
    35  H    0.149405
    36  H    0.152332
    37  H    0.157878
    38  H    0.154932
    39  H    0.155401
    40  H    0.161166
 Sum of Mulliken charges =  -0.00000

 Dipole moment (field-independent basis, Debye):
    X=             -0.0144    Y=             -0.0058    Z=              0.0078  Tot=              0.0174
 Quadrupole moment (field-independent basis, Debye-Ang):
   XX=            -83.6910   YY=            -86.0990   ZZ=            -84.7963
   XY=             -0.7048   XZ=              0.2555   YZ=             -0.3304

 Normal termination of Gaussian 16 at Wed May  5 19:56:08 2021.
