 Gaussian 16, Revision A.03,
 Gaussian 16:  EM64L-G16RevA.03 25-Dec-2016

 -------------
 #p 6-31g* mp2
 -------------

 ------------------------------------------------------
 Input file generated by CHIRIPA (05-May-2021 14:51:09)
 ------------------------------------------------------
 Symbolic Z-matrix:
 Charge =  0 Multiplicity = 1

                         Standard orientation:
 ---------------------------------------------------------------------
 Center     Atomic      Atomic             Coordinates (Angstroms)
 Number     Number       Type             X           Y           Z
 ---------------------------------------------------------------------
      1          6           0        3.624183   -0.704452   -0.050341
      2          6           0        2.439516   -1.336080   -0.782186
      3          6           0        2.349238   -2.847151   -0.566995
      4          1           0        4.553672   -1.180931   -0.390874
      5          1           0        3.538752   -0.918289    1.024075
      6          1           0        2.526422   -1.119938   -1.854727
      7          1           0        1.512755   -0.857909   -0.440012
      8          1           0        2.238064   -3.078755    0.497242
      9          1           0        3.257490   -3.342273   -0.925512
     10          1           0        1.495361   -3.278122   -1.098989
     11          6           0        3.727824    0.805771   -0.255799
     12          6           0        4.912490    1.437399    0.476045
     13          6           0        5.002768    2.948471    0.260855
     14          1           0        3.813254    1.019609   -1.330216
     15          1           0        2.798335    1.282251    0.084733
     16          1           0        5.839251    0.959228    0.133871
     17          1           0        4.825584    1.221258    1.548587
     18          1           0        4.094517    3.443593    0.619372
     19          1           0        5.113943    3.180075   -0.803382
     20          1           0        5.856646    3.379442    0.792849
     21          6           0       -2.955155   -0.276707    0.040322
     22          6           0       -2.567542   -1.502473    0.868114
     23          6           0       -1.122503   -1.942629    0.631646
     24          1           0       -2.808156   -0.500316   -1.025200
     25          1           0       -2.274399    0.551043    0.282802
     26          1           0       -3.249693   -2.327251    0.625158
     27          1           0       -2.715662   -1.275985    1.931777
     28          1           0       -0.427190   -1.138134    0.892275
     29          1           0       -0.964255   -2.195374   -0.421768
     30          1           0       -0.866625   -2.820373    1.233271
     31          6           0       -4.396852    0.175388    0.265819
     32          6           0       -4.784464    1.401153   -0.561973
     33          6           0       -6.229504    1.841310   -0.325506
     34          1           0       -5.077607   -0.652362    0.023338
     35          1           0       -4.543850    0.398996    1.331340
     36          1           0       -4.636343    1.174665   -1.625637
     37          1           0       -4.102313    2.225931   -0.319018
     38          1           0       -6.387751    2.094054    0.727908
     39          1           0       -6.924816    1.036815   -0.586135
     40          1           0       -6.485381    2.719054   -0.927131
 ---------------------------------------------------------------------

 SCF Done:  E(RHF) =  -470.732570833     A.U. after   11 cycles
 E2 =    -0.1583224306D+01 EUMP2 =    -0.47231579513870D+03

 The electronic state is 1-A.
 Alpha  occ. eigenvalues --  -11.21615 -11.21613 -11.21572 -11.21430 -11.21426
 Alpha  occ. eigenvalues --  -11.21367 -11.21349 -11.21277 -11.21082 -11.21079
 Alpha  occ. eigenvalues --  -11.21052 -11.20935  -1.08454  -1.08358  -1.03576
 Alpha  occ. eigenvalues --   -1.03428  -0.96048  -0.95863  -0.87041  -0.86905
 Alpha  occ. eigenvalues --   -0.79646  -0.79498  -0.78281  -0.78156  -0.65094
 Alpha  occ. eigenvalues --   -0.64991  -0.60997  -0.60834  -0.59369  -0.59294
 Alpha  occ. eigenvalues --   -0.57716  -0.57417  -0.55308  -0.55205  -0.52733
 Alpha  occ. eigenvalues --   -0.52584  -0.52408  -0.52299  -0.49998  -0.49806
 Alpha  occ. eigenvalues --   -0.48037  -0.47776  -0.46703  -0.46462  -0.45881
 Alpha  occ. eigenvalues --   -0.45740  -0.45686  -0.45477  -0.43808  -0.43695
 Alpha virt. eigenvalues --    0.21670   0.23004   0.23550   0.24840   0.25918
 Alpha virt. eigenvalues --    0.26577   0.27124   0.27397   0.27807   0.29327
 Alpha virt. eigenvalues --    0.29701   0.31237   0.31512   0.32206   0.32552

 Mulliken charges:
               1
     1  C   -0.298143
     2  C   -0.305584
     3  C   -0.474461
     4  H    0.149282
     5  H    0.148962
     6  H    0.150724
     7  H    0.158924
     8  H    0.155331
     9  H    0.153808
    10  H    0.160553
    11  C   -0.297936
    12  C   -0.299565
    13  C   -0.475639
    14  H    0.149521
    15  H    0.148719
    16  H    0.151973
    17  H    0.151745
    18  H    0.154938
    19  H    0.155170
    20  H    0.160139
    21  C   -0.298279
    22  C   -0.300845
    23  C   -0.476742
    24  H    0.149792
    25  H    0.148975
    26  H    0.151957
    27  H    0.151683
    28  H    0.156575
    29  H    0.157177
    30  H    0.160956
    31  C   -0.298225
    32  C   -0.299650
    33  C   -0.475721
    34  H    0.149620
    35  H    0.149634
    36  H    0.152020
    37  H    0.151912
    38  H    0.155171
    39  H    0.155212
    40  H    0.160318
 Sum of Mulliken charges =  -0.00000

 Dipole moment (field-independent basis, Debye):
    X=             -0.0462    Y=             -0.0181    Z=              0.0064  Tot=              0.0500
 Quadrupole moment (field-independent basis, Debye-Ang):
   XX=            -85.6380   YY=            -85.7973   ZZ=            -83.5519
   XY=              0.3720   XZ=             -0.1306   YZ=              0.6164

 Normal termination of Gaussian 16 at Thu May  6 03:45:10 2021.
