 Gaussian 16, Revision A.03,
 Gaussian 16:  EM64L-G16RevA.03 25-Dec-2016

 -------------
 #p 6-31g* mp2
 -------------

 ------------------------------------------------------
 Input file generated by CHIRIPA (05-May-2021 14:53:12)
 ------------------------------------------------------
 Symbolic Z-matrix:
 Charge =  0 Multiplicity = 1

                         Standard orientation:
 ---------------------------------------------------------------------
 Center     Atomic      Atomic             Coordinates (Angstroms)
 Number     Number       Type             X           Y           Z
 ---------------------------------------------------------------------
      1          6           0        3.276014    1.128498    0.174034
      2          6           0        2.243276    1.581936    1.206426
      3          6           0        2.259055    3.093852    1.433699
      4          1           0        4.276342    1.440718    0.503894
      5          1           0        3.084998    1.645154   -0.776742
      6          1           0        2.435335    1.063539    2.154579
      7          1           0        1.245311    1.268432    0.874164
      8          1           0        2.045279    3.625868    0.501036
      9          1           0        3.242065    3.419810    1.788726
     10          1           0        1.513115    3.396148    2.175353
     11          6           0        3.272399   -0.380481   -0.064075
     12          6           0        4.305137   -0.833918   -1.096466
     13          6           0        4.289358   -2.345835   -1.323739
     14          1           0        3.463415   -0.897137    0.886701
     15          1           0        2.272071   -0.692701   -0.393935
     16          1           0        5.303102   -0.520415   -0.764204
     17          1           0        4.113078   -0.315521   -2.044619
     18          1           0        3.306349   -2.671793   -1.678766
     19          1           0        4.503134   -2.877850   -0.391076
     20          1           0        5.035299   -2.648130   -2.065393
     21          6           0       -1.604648   -1.897857    1.653791
     22          6           0       -0.756321   -1.247775    0.751429
     23          6           0       -1.273517   -0.356074   -0.192988
     24          6           0       -2.650138   -0.136965   -0.206989
     25          6           0       -3.521205   -0.769345    0.678804
     26          6           0       -2.981954   -1.656991    1.614667
     27          1           0       -1.194310   -2.588976    2.384115
     28          1           0        0.313719   -1.432905    0.779503
     29          1           0       -0.639587    0.160707   -0.903262
     30          1           0       -4.583609   -0.564460    0.626474
     31          1           0       -3.643168   -2.160436    2.314228
     32          7           0       -3.209345    0.804893   -1.202273
     33          8           0       -4.425750    0.980756   -1.194053
     34          8           0       -2.420658    1.349422   -1.971751
 ---------------------------------------------------------------------

 SCF Done:  E(RHF) =  -669.535263862     A.U. after   15 cycles
 E2 =    -0.2092762815D+01 EUMP2 =    -0.67162802667679D+03

 The electronic state is 1-A.
 Alpha  occ. eigenvalues --  -20.60762 -20.60757 -15.85814 -11.31175 -11.27735
 Alpha  occ. eigenvalues --  -11.27728 -11.27453 -11.26756 -11.26681 -11.22310
 Alpha  occ. eigenvalues --  -11.22213 -11.22133 -11.21960 -11.21661 -11.21362
 Alpha  occ. eigenvalues --   -1.59837  -1.39391  -1.19340  -1.09105  -1.08730
 Alpha  occ. eigenvalues --   -1.04743  -1.04078  -0.96535  -0.95572  -0.87543
 Alpha  occ. eigenvalues --   -0.86134  -0.82416  -0.80163  -0.78981  -0.77435
 Alpha  occ. eigenvalues --   -0.72033  -0.71159  -0.70449  -0.65768  -0.64980
 Alpha  occ. eigenvalues --   -0.64732  -0.62094  -0.61462  -0.59902  -0.58154
 Alpha  occ. eigenvalues --   -0.55828  -0.55233  -0.53202  -0.53091  -0.52986
 Alpha  occ. eigenvalues --   -0.52767  -0.50464  -0.48793  -0.48789  -0.48469
 Alpha  occ. eigenvalues --   -0.47203  -0.46436  -0.46382  -0.44797  -0.44374
 Alpha  occ. eigenvalues --   -0.37313  -0.36310
 Alpha virt. eigenvalues --    0.05032   0.11301   0.16441   0.19536   0.22748
 Alpha virt. eigenvalues --    0.23769   0.24785   0.25957   0.27414   0.28170
 Alpha virt. eigenvalues --    0.29992   0.30836   0.31257   0.31486   0.31787

 Mulliken charges:
               1
     1  C   -0.299065
     2  C   -0.304774
     3  C   -0.476098
     4  H    0.152914
     5  H    0.154059
     6  H    0.149770
     7  H    0.151135
     8  H    0.159884
     9  H    0.155722
    10  H    0.162556
    11  C   -0.303439
    12  C   -0.299518
    13  C   -0.476765
    14  H    0.148251
    15  H    0.141604
    16  H    0.155160
    17  H    0.156035
    18  H    0.154121
    19  H    0.154162
    20  H    0.164045
    21  C   -0.172114
    22  C   -0.221983
    23  C   -0.174073
    24  C    0.158268
    25  C   -0.171370
    26  C   -0.218220
    27  H    0.226005
    28  H    0.233059
    29  H    0.274733
    30  H    0.275524
    31  H    0.223361
    32  N    0.488249
    33  O   -0.460421
    34  O   -0.460777
 Sum of Mulliken charges =  -0.00000

 Dipole moment (field-independent basis, Debye):
    X=              2.1210    Y=             -3.2396    Z=              3.4859  Tot=              5.2100
 Quadrupole moment (field-independent basis, Debye-Ang):
   XX=            -99.8716   YY=            -95.2404   ZZ=            -95.6662
   XY=              9.7231   XZ=            -11.4051   YZ=             -0.5615

 Normal termination of Gaussian 16 at Wed May  5 15:27:35 2021.
