 Gaussian 16, Revision A.03,
 Gaussian 16:  EM64L-G16RevA.03 25-Dec-2016

 -------------
 #p 6-31g* mp2
 -------------

 ------------------------------------------------------
 Input file generated by CHIRIPA (05-May-2021 14:55:24)
 ------------------------------------------------------
 Symbolic Z-matrix:
 Charge =  0 Multiplicity = 1

                         Standard orientation:
 ---------------------------------------------------------------------
 Center     Atomic      Atomic             Coordinates (Angstroms)
 Number     Number       Type             X           Y           Z
 ---------------------------------------------------------------------
      1          6           0        3.787629    1.463933   -1.245062
      2          6           0        4.051759    1.289286    0.117383
      3          6           0        3.317619    0.368262    0.870578
      4          6           0        2.322127   -0.364657    0.226283
      5          6           0        2.035288   -0.213349   -1.129490
      6          6           0        2.782010    0.713381   -1.863060
      7          1           0        4.362814    2.181623   -1.822539
      8          1           0        4.832141    1.870798    0.599971
      9          1           0        3.501205    0.213028    1.926805
     10          1           0        1.251096   -0.807527   -1.582716
     11          1           0        2.574693    0.846915   -2.920998
     12          7           0        1.538266   -1.342724    1.013268
     13          8           0        0.666529   -1.976187    0.422138
     14          8           0        1.810456   -1.457350    2.206336
     15          6           0       -2.777912   -0.322579   -0.461402
     16          6           0       -3.539832   -1.644567   -0.362370
     17          6           0       -2.807382   -2.801426   -1.042803
     18          1           0       -2.611535   -0.081016   -1.520134
     19          1           0       -1.784148   -0.445367   -0.008910
     20          1           0       -4.532381   -1.518931   -0.813678
     21          1           0       -3.704583   -1.882916    0.696244
     22          1           0       -1.823643   -2.955433   -0.587677
     23          1           0       -2.656145   -2.589379   -2.106177
     24          1           0       -3.369681   -3.736747   -0.959999
     25          6           0       -3.497459    0.843434    0.214164
     26          6           0       -2.735539    2.165424    0.115131
     27          6           0       -3.467990    3.322282    0.795563
     28          1           0       -4.491224    0.966223   -0.238330
     29          1           0       -3.663836    0.601871    1.272894
     30          1           0       -2.570790    2.403772   -0.943484
     31          1           0       -1.742990    2.039787    0.566438
     32          1           0       -3.619226    3.110234    1.858938
     33          1           0       -4.451729    3.476288    0.340437
     34          1           0       -2.905691    4.257602    0.712760
 ---------------------------------------------------------------------

 SCF Done:  E(RHF) =  -669.536556693     A.U. after   15 cycles
 E2 =    -0.2091987396D+01 EUMP2 =    -0.67162854408884D+03

 The electronic state is 1-A.
 Alpha  occ. eigenvalues --  -20.61061 -20.61053 -15.86074 -11.31319 -11.27879
 Alpha  occ. eigenvalues --  -11.27863 -11.27606 -11.26871 -11.26857 -11.21285
 Alpha  occ. eigenvalues --  -11.20834 -11.20822 -11.20710 -11.20565 -11.19915
 Alpha  occ. eigenvalues --   -1.60110  -1.39669  -1.19483  -1.08903  -1.07789
 Alpha  occ. eigenvalues --   -1.04867  -1.02869  -0.95758  -0.95309  -0.86332
 Alpha  occ. eigenvalues --   -0.86270  -0.82598  -0.78982  -0.77726  -0.77507
 Alpha  occ. eigenvalues --   -0.72312  -0.71414  -0.70592  -0.65147  -0.64871
 Alpha  occ. eigenvalues --   -0.64404  -0.62214  -0.60248  -0.58727  -0.56922
 Alpha  occ. eigenvalues --   -0.55379  -0.54573  -0.53203  -0.52959  -0.52034
 Alpha  occ. eigenvalues --   -0.51736  -0.49272  -0.49073  -0.49019  -0.47279
 Alpha  occ. eigenvalues --   -0.46014  -0.45462  -0.45126  -0.44565  -0.43129
 Alpha  occ. eigenvalues --   -0.37460  -0.36463
 Alpha virt. eigenvalues --    0.04840   0.11175   0.16313   0.21202   0.23469
 Alpha virt. eigenvalues --    0.24848   0.27006   0.27259   0.27664   0.28423
 Alpha virt. eigenvalues --    0.28933   0.30927   0.31907   0.32150   0.32592

 Mulliken charges:
               1
     1  C   -0.170317
     2  C   -0.218655
     3  C   -0.170650
     4  C    0.156916
     5  C   -0.170259
     6  C   -0.218510
     7  H    0.226159
     8  H    0.223882
     9  H    0.275724
    10  H    0.277256
    11  H    0.224194
    12  N    0.494760
    13  O   -0.466159
    14  O   -0.457825
    15  C   -0.304808
    16  C   -0.296512
    17  C   -0.486949
    18  H    0.140535
    19  H    0.163133
    20  H    0.146113
    21  H    0.154044
    22  H    0.183410
    23  H    0.145143
    24  H    0.155805
    25  C   -0.297813
    26  C   -0.298500
    27  C   -0.475179
    28  H    0.147093
    29  H    0.151516
    30  H    0.147888
    31  H    0.150455
    32  H    0.156273
    33  H    0.154608
    34  H    0.157228
 Sum of Mulliken charges =  -0.00000

 Dipole moment (field-independent basis, Debye):
    X=              3.0505    Y=              3.3370    Z=             -2.6310  Tot=              5.2310
 Quadrupole moment (field-independent basis, Debye-Ang):
   XX=            -81.7271   YY=            -98.7252   ZZ=            -92.4451
   XY=              8.2734   XZ=             -3.3280   YZ=              1.9912

 Normal termination of Gaussian 16 at Wed May  5 23:58:54 2021.
