 Gaussian 16, Revision A.03,
 Gaussian 16:  EM64L-G16RevA.03 25-Dec-2016

 -------------
 #p 6-31g* mp2
 -------------

 ------------------------------------------------------
 Input file generated by CHIRIPA (05-May-2021 14:53:15)
 ------------------------------------------------------
 Symbolic Z-matrix:
 Charge =  0 Multiplicity = 1

                         Standard orientation:
 ---------------------------------------------------------------------
 Center     Atomic      Atomic             Coordinates (Angstroms)
 Number     Number       Type             X           Y           Z
 ---------------------------------------------------------------------
      1          6           0        3.237603    0.683127   -0.125541
      2          6           0        2.378684    1.938134    0.033209
      3          6           0        3.049753    3.189399   -0.534062
      4          1           0        4.203065    0.841665    0.374153
      5          1           0        3.458445    0.530785   -1.191100
      6          1           0        2.158373    2.087287    1.098024
      7          1           0        1.415081    1.776518   -0.466757
      8          1           0        3.254864    3.065815   -1.602358
      9          1           0        4.002378    3.378350   -0.028686
     10          1           0        2.418437    4.074788   -0.410019
     11          6           0        2.580237   -0.575997    0.436781
     12          6           0        3.439155   -1.831004    0.278031
     13          6           0        2.768086   -3.082269    0.845301
     14          1           0        2.359395   -0.423655    1.502340
     15          1           0        1.614775   -0.734535   -0.062913
     16          1           0        4.402758   -1.669388    0.777997
     17          1           0        3.659467   -1.980157   -0.786785
     18          1           0        1.815462   -3.271220    0.339925
     19          1           0        2.562976   -2.958685    1.913598
     20          1           0        3.399402   -3.967658    0.721258
     21          6           0       -2.583770    2.364367    0.570683
     22          6           0       -3.503067    1.393365    0.981252
     23          6           0       -3.340615    0.057111    0.603652
     24          6           0       -2.242511   -0.274472   -0.188503
     25          6           0       -1.309424    0.669973   -0.613549
     26          6           0       -1.491806    2.000213   -0.224006
     27          1           0       -2.717708    3.400065    0.868651
     28          1           0       -4.352039    1.673282    1.598454
     29          1           0       -4.037157   -0.714891    0.907395
     30          1           0       -0.473023    0.360500   -1.228430
     31          1           0       -0.776280    2.752181   -0.544338
     32          7           0       -2.059979   -1.685921   -0.594572
     33          8           0       -1.084193   -1.952348   -1.292781
     34          8           0       -2.896154   -2.499063   -0.206954
 ---------------------------------------------------------------------

 SCF Done:  E(RHF) =  -669.534782770     A.U. after   15 cycles
 E2 =    -0.2093976902D+01 EUMP2 =    -0.67162875967190D+03

 The electronic state is 1-A.
 Alpha  occ. eigenvalues --  -20.60908 -20.60902 -15.85932 -11.31227 -11.27781
 Alpha  occ. eigenvalues --  -11.27770 -11.27507 -11.26791 -11.26749 -11.22167
 Alpha  occ. eigenvalues --  -11.21660 -11.21564 -11.21267 -11.21205 -11.20430
 Alpha  occ. eigenvalues --   -1.59961  -1.39519  -1.19393  -1.08799  -1.08517
 Alpha  occ. eigenvalues --   -1.04796  -1.03571  -0.95996  -0.95649  -0.87017
 Alpha  occ. eigenvalues --   -0.86189  -0.82506  -0.79738  -0.78296  -0.77490
 Alpha  occ. eigenvalues --   -0.72156  -0.71268  -0.70517  -0.65227  -0.65025
 Alpha  occ. eigenvalues --   -0.64803  -0.62178  -0.60925  -0.59450  -0.57596
 Alpha  occ. eigenvalues --   -0.55299  -0.55255  -0.53136  -0.52885  -0.52712
 Alpha  occ. eigenvalues --   -0.52405  -0.49945  -0.48914  -0.48904  -0.47988
 Alpha  occ. eigenvalues --   -0.46766  -0.45810  -0.45676  -0.44833  -0.43814
 Alpha  occ. eigenvalues --   -0.37365  -0.36328
 Alpha virt. eigenvalues --    0.04936   0.11187   0.16380   0.20044   0.23108
 Alpha virt. eigenvalues --    0.23890   0.25473   0.26677   0.27060   0.28451
 Alpha virt. eigenvalues --    0.29778   0.30904   0.31249   0.31767   0.32524

 Mulliken charges:
               1
     1  C   -0.298620
     2  C   -0.302672
     3  C   -0.476114
     4  H    0.151004
     5  H    0.150669
     6  H    0.154130
     7  H    0.141366
     8  H    0.157059
     9  H    0.159531
    10  H    0.154367
    11  C   -0.305841
    12  C   -0.298269
    13  C   -0.480685
    14  H    0.148103
    15  H    0.158161
    16  H    0.148916
    17  H    0.153498
    18  H    0.171035
    19  H    0.151635
    20  H    0.159031
    21  C   -0.171646
    22  C   -0.218473
    23  C   -0.171211
    24  C    0.157256
    25  C   -0.169782
    26  C   -0.217743
    27  H    0.225786
    28  H    0.223535
    29  H    0.275503
    30  H    0.276306
    31  H    0.226503
    32  N    0.489376
    33  O   -0.463056
    34  O   -0.458660
 Sum of Mulliken charges =  -0.00000

 Dipole moment (field-independent basis, Debye):
    X=             -0.6852    Y=              4.8468    Z=              1.4390  Tot=              5.1022
 Quadrupole moment (field-independent basis, Debye-Ang):
   XX=            -88.4733   YY=            -98.6317   ZZ=            -94.1084
   XY=            -10.2096   XZ=             -5.1658   YZ=             -1.3151

 Normal termination of Gaussian 16 at Thu May  6 05:54:25 2021.
