 Gaussian 16, Revision A.03,
 Gaussian 16:  EM64L-G16RevA.03 25-Dec-2016

 -------------
 #p 6-31g* mp2
 -------------

 ------------------------------------------------------
 Input file generated by CHIRIPA (05-May-2021 14:53:16)
 ------------------------------------------------------
 Symbolic Z-matrix:
 Charge =  0 Multiplicity = 1

                         Standard orientation:
 ---------------------------------------------------------------------
 Center     Atomic      Atomic             Coordinates (Angstroms)
 Number     Number       Type             X           Y           Z
 ---------------------------------------------------------------------
      1          6           0       -3.410253    1.278720   -0.242782
      2          6           0       -2.134980    1.879351    0.349591
      3          6           0       -1.831142    3.275628   -0.194365
      4          1           0       -3.313667    1.234785   -1.336256
      5          1           0       -4.255459    1.947950   -0.030291
      6          1           0       -1.292667    1.208506    0.137244
      7          1           0       -2.234536    1.921685    1.441797
      8          1           0       -2.652428    3.963777    0.030450
      9          1           0       -1.705207    3.246547   -1.281515
     10          1           0       -0.915389    3.686124    0.242384
     11          6           0       -3.727349   -0.116972    0.291282
     12          6           0       -5.002622   -0.717603   -0.301091
     13          6           0       -5.306459   -2.113880    0.242865
     14          1           0       -2.882143   -0.786202    0.078791
     15          1           0       -3.823935   -0.073037    1.384756
     16          1           0       -4.903065   -0.759937   -1.393297
     17          1           0       -5.844934   -0.046758   -0.088744
     18          1           0       -5.432395   -2.084799    1.330015
     19          1           0       -4.485174   -2.802030    0.018050
     20          1           0       -6.222212   -2.524376   -0.193884
     21          6           0        4.432589    1.456205    0.097323
     22          6           0        4.893355    0.135577    0.084824
     23          6           0        3.991270   -0.930568    0.020598
     24          6           0        2.629145   -0.638461   -0.030185
     25          6           0        2.139087    0.666535   -0.019312
     26          6           0        3.059345    1.717009    0.045307
     27          1           0        5.140409    2.278324    0.147368
     28          1           0        5.959273   -0.069951    0.125124
     29          1           0        4.320640   -1.962464    0.009529
     30          1           0        1.070611    0.839975   -0.060499
     31          1           0        2.698641    2.741629    0.054868
     32          7           0        1.664528   -1.758846   -0.098387
     33          8           0        0.469489   -1.474955   -0.142270
     34          8           0        2.121765   -2.899680   -0.106669
 ---------------------------------------------------------------------

 SCF Done:  E(RHF) =  -669.536003690     A.U. after   15 cycles
 E2 =    -0.2091777745D+01 EUMP2 =    -0.67162778143482D+03

 The electronic state is 1-A.
 Alpha  occ. eigenvalues --  -20.60877 -20.60872 -15.85922 -11.31228 -11.27796
 Alpha  occ. eigenvalues --  -11.27773 -11.27533 -11.26803 -11.26787 -11.21538
 Alpha  occ. eigenvalues --  -11.21300 -11.21046 -11.20994 -11.20656 -11.20404
 Alpha  occ. eigenvalues --   -1.59944  -1.39500  -1.19399  -1.08806  -1.08016
 Alpha  occ. eigenvalues --   -1.04794  -1.03216  -0.95662  -0.95646  -0.86676
 Alpha  occ. eigenvalues --   -0.86198  -0.82482  -0.79309  -0.77784  -0.77507
 Alpha  occ. eigenvalues --   -0.72144  -0.71260  -0.70517  -0.65056  -0.64850
 Alpha  occ. eigenvalues --   -0.64599  -0.62170  -0.60592  -0.59087  -0.57258
 Alpha  occ. eigenvalues --   -0.55305  -0.54927  -0.53127  -0.52898  -0.52412
 Alpha  occ. eigenvalues --   -0.52076  -0.49585  -0.48906  -0.48889  -0.47599
 Alpha  occ. eigenvalues --   -0.46312  -0.45324  -0.45154  -0.44911  -0.43426
 Alpha  occ. eigenvalues --   -0.37381  -0.36394
 Alpha virt. eigenvalues --    0.04996   0.11257   0.16498   0.20028   0.23253
 Alpha virt. eigenvalues --    0.24210   0.26075   0.26986   0.27474   0.28382
 Alpha virt. eigenvalues --    0.29525   0.30163   0.31547   0.31907   0.32592

 Mulliken charges:
               1
     1  C   -0.295967
     2  C   -0.312597
     3  C   -0.476121
     4  H    0.149865
     5  H    0.147258
     6  H    0.162210
     7  H    0.152824
     8  H    0.158061
     9  H    0.155483
    10  H    0.149956
    11  C   -0.305064
    12  C   -0.299285
    13  C   -0.476450
    14  H    0.169548
    15  H    0.147240
    16  H    0.151585
    17  H    0.148180
    18  H    0.153716
    19  H    0.161530
    20  H    0.157635
    21  C   -0.170142
    22  C   -0.219274
    23  C   -0.169448
    24  C    0.154668
    25  C   -0.176967
    26  C   -0.223877
    27  H    0.225851
    28  H    0.223564
    29  H    0.275667
    30  H    0.292148
    31  H    0.224686
    32  N    0.488755
    33  O   -0.465883
    34  O   -0.459356
 Sum of Mulliken charges =  -0.00000

 Dipole moment (field-independent basis, Debye):
    X=              3.4435    Y=              3.7876    Z=              0.2283  Tot=              5.1241
 Quadrupole moment (field-independent basis, Debye-Ang):
   XX=            -74.3193   YY=            -99.1876   ZZ=            -95.2568
   XY=              5.1558   XZ=              0.3543   YZ=              0.2784

 Normal termination of Gaussian 16 at Thu May  6 10:39:08 2021.
