 Gaussian 16, Revision A.03,
 Gaussian 16:  EM64L-G16RevA.03 25-Dec-2016

 -------------
 #p 6-31g* mp2
 -------------

 ------------------------------------------------------
 Input file generated by CHIRIPA (05-May-2021 14:57:25)
 ------------------------------------------------------
 Symbolic Z-matrix:
 Charge =  0 Multiplicity = 1

                         Standard orientation:
 ---------------------------------------------------------------------
 Center     Atomic      Atomic             Coordinates (Angstroms)
 Number     Number       Type             X           Y           Z
 ---------------------------------------------------------------------
      1          6           0       -1.498017   -0.707194    1.649453
      2          6           0       -1.946855    0.606243    1.476399
      3          6           0       -3.019240    0.883519    0.623372
      4          6           0       -3.622279   -0.181546   -0.043914
      5          6           0       -3.198117   -1.500792    0.107638
      6          6           0       -2.123977   -1.754673    0.965725
      7          1           0       -0.664280   -0.913502    2.314070
      8          1           0       -1.462633    1.421711    2.006103
      9          1           0       -3.387034    1.890954    0.470988
     10          1           0       -3.700910   -2.292800   -0.433972
     11          1           0       -1.777533   -2.775689    1.098191
     12          7           0       -4.758494    0.099610   -0.949655
     13          8           0       -5.272805   -0.856351   -1.526074
     14          8           0       -5.113235    1.270618   -1.066004
     15          6           0        4.890317   -1.735756   -0.731572
     16          6           0        5.052025   -0.508673   -1.383214
     17          6           0        4.251267    0.586112   -1.044419
     18          6           0        3.294324    0.417721   -0.044823
     19          6           0        3.109132   -0.791997    0.622691
     20          6           0        3.921096   -1.873260    0.267539
     21          1           0        5.516717   -2.580960   -1.001110
     22          1           0        5.803929   -0.398982   -2.159521
     23          1           0        4.355211    1.547424   -1.532779
     24          1           0        2.351103   -0.870747    1.392502
     25          1           0        3.793285   -2.825040    0.775302
     26          7           0        2.440666    1.569564    0.322503
     27          8           0        1.604769    1.395382    1.206568
     28          8           0        2.623631    2.624750   -0.280609
 ---------------------------------------------------------------------

 SCF Done:  E(RHF) =  -868.339097554     A.U. after   16 cycles
 E2 =    -0.2599544818D+01 EUMP2 =    -0.87093864237239D+03

 The electronic state is 1-A.
 Alpha  occ. eigenvalues --  -20.61646 -20.61605 -20.60249 -20.60233 -15.86664
 Alpha  occ. eigenvalues --  -15.85289 -11.31883 -11.30539 -11.28503 -11.28385
 Alpha  occ. eigenvalues --  -11.28120 -11.27439 -11.27366 -11.27133 -11.26968
 Alpha  occ. eigenvalues --  -11.26780 -11.26190 -11.25867  -1.60680  -1.59321
 Alpha  occ. eigenvalues --   -1.40245  -1.38877  -1.20033  -1.18678  -1.09448
 Alpha  occ. eigenvalues --   -1.08095  -1.05422  -1.04045  -0.96317  -0.94957
 Alpha  occ. eigenvalues --   -0.86825  -0.85444  -0.83164  -0.81784  -0.78236
 Alpha  occ. eigenvalues --   -0.76847  -0.72914  -0.71979  -0.71510  -0.71145
 Alpha  occ. eigenvalues --   -0.70642  -0.69797  -0.65696  -0.65425  -0.64322
 Alpha  occ. eigenvalues --   -0.64014  -0.62786  -0.61379  -0.55912  -0.54576
 Alpha  occ. eigenvalues --   -0.53743  -0.53514  -0.52400  -0.52117  -0.49668
 Alpha  occ. eigenvalues --   -0.49616  -0.48273  -0.48255  -0.45678  -0.44309
 Alpha  occ. eigenvalues --   -0.37986  -0.37016  -0.36647  -0.35627
 Alpha virt. eigenvalues --    0.04298   0.05649   0.10643   0.12013   0.15847
 Alpha virt. eigenvalues --    0.17128   0.20016   0.22059   0.25649   0.27126
 Alpha virt. eigenvalues --    0.28147   0.28997   0.30695   0.31182   0.33199

 Mulliken charges:
               1
     1  C   -0.171230
     2  C   -0.211380
     3  C   -0.173651
     4  C    0.158298
     5  C   -0.173052
     6  C   -0.219911
     7  H    0.222203
     8  H    0.238783
     9  H    0.275996
    10  H    0.272102
    11  H    0.216422
    12  N    0.488066
    13  O   -0.463488
    14  O   -0.460325
    15  C   -0.169845
    16  C   -0.218143
    17  C   -0.169686
    18  C    0.159404
    19  C   -0.169265
    20  C   -0.218356
    21  H    0.227919
    22  H    0.226225
    23  H    0.277705
    24  H    0.267676
    25  H    0.223089
    26  N    0.491232
    27  O   -0.471878
    28  O   -0.454912
 Sum of Mulliken charges =  -0.00000

 Dipole moment (field-independent basis, Debye):
    X=              7.3890    Y=             -4.7963    Z=              1.8420  Tot=              8.9997
 Quadrupole moment (field-independent basis, Debye-Ang):
   XX=           -113.9800   YY=           -101.9515   ZZ=           -103.5663
   XY=             -8.0353   XZ=            -18.7158   YZ=             -1.7259

 Normal termination of Gaussian 16 at Wed May  5 21:09:08 2021.
