 Gaussian 16, Revision A.03,
 Gaussian 16:  EM64L-G16RevA.03 25-Dec-2016

 -------------
 #p 6-31g* mp2
 -------------

 ------------------------------------------------------
 Input file generated by CHIRIPA (05-May-2021 14:55:24)
 ------------------------------------------------------
 Symbolic Z-matrix:
 Charge =  0 Multiplicity = 1

                         Standard orientation:
 ---------------------------------------------------------------------
 Center     Atomic      Atomic             Coordinates (Angstroms)
 Number     Number       Type             X           Y           Z
 ---------------------------------------------------------------------
      1          6           0        0.954844    0.333001    1.255247
      2          6           0        2.054031   -0.092025    2.008679
      3          6           0        3.281326   -0.349959    1.390808
      4          6           0        3.374422   -0.171685    0.011373
      5          6           0        2.297515    0.250634   -0.766579
      6          6           0        1.079873    0.502675   -0.127540
      7          1           0        0.005201    0.531082    1.743446
      8          1           0        1.959842   -0.224649    3.082730
      9          1           0        4.148376   -0.680012    1.950011
     10          1           0        2.422081    0.373851   -1.835560
     11          1           0        0.227917    0.832650   -0.715189
     12          7           0        4.668594   -0.441629   -0.653945
     13          8           0        4.724714   -0.276979   -1.870653
     14          8           0        5.602341   -0.812750    0.053885
     15          6           0       -4.019666   -0.600551   -0.152231
     16          6           0       -5.401237   -1.255451   -0.171078
     17          6           0       -5.331549   -2.782835   -0.165463
     18          1           0       -3.445239   -0.946017   -1.022650
     19          1           0       -3.472645   -0.940294    0.738127
     20          1           0       -5.946009   -0.913497   -1.060408
     21          1           0       -5.972510   -0.908236    0.699385
     22          1           0       -4.811221   -3.141448    0.728549
     23          1           0       -4.784569   -3.146738   -1.041243
     24          1           0       -6.330255   -3.230338   -0.179166
     25          6           0       -4.072817    0.926169   -0.157595
     26          6           0       -2.691247    1.581069   -0.138746
     27          6           0       -2.760935    3.108454   -0.144361
     28          1           0       -4.619839    1.265913   -1.047952
     29          1           0       -4.647244    1.271636    0.712827
     30          1           0       -2.119973    1.233855   -1.009209
     31          1           0       -2.146474    1.239116    0.750584
     32          1           0       -3.307914    3.472357    0.731418
     33          1           0       -3.281262    3.467067   -1.038373
     34          1           0       -1.762228    3.555957   -0.130659
 ---------------------------------------------------------------------

 SCF Done:  E(RHF) =  -669.535006811     A.U. after   15 cycles
 E2 =    -0.2092071404D+01 EUMP2 =    -0.67162707821489D+03

 The electronic state is 1-A.
 Alpha  occ. eigenvalues --  -20.60695 -20.60689 -15.85746 -11.31090 -11.27658
 Alpha  occ. eigenvalues --  -11.27639 -11.27368 -11.26674 -11.26588 -11.23023
 Alpha  occ. eigenvalues --  -11.22405 -11.22300 -11.22236 -11.22163 -11.21630
 Alpha  occ. eigenvalues --   -1.59770  -1.39325  -1.19254  -1.09419  -1.08651
 Alpha  occ. eigenvalues --   -1.04662  -1.04475  -0.96874  -0.95495  -0.87894
 Alpha  occ. eigenvalues --   -0.86057  -0.82329  -0.80627  -0.79211  -0.77372
 Alpha  occ. eigenvalues --   -0.71965  -0.71093  -0.70383  -0.66050  -0.64904
 Alpha  occ. eigenvalues --   -0.64679  -0.62061  -0.61857  -0.60248  -0.58489
 Alpha  occ. eigenvalues --   -0.56144  -0.55172  -0.53588  -0.53289  -0.52985
 Alpha  occ. eigenvalues --   -0.52757  -0.50811  -0.48893  -0.48724  -0.48698
 Alpha  occ. eigenvalues --   -0.47635  -0.46720  -0.46631  -0.44735  -0.44718
 Alpha  occ. eigenvalues --   -0.37233  -0.36258
 Alpha virt. eigenvalues --    0.05151   0.11374   0.16650   0.19461   0.22435
 Alpha virt. eigenvalues --    0.23700   0.24038   0.25571   0.26968   0.27896
 Alpha virt. eigenvalues --    0.29168   0.29602   0.30921   0.31434   0.31731

 Mulliken charges:
               1
     1  C   -0.176692
     2  C   -0.218642
     3  C   -0.171282
     4  C    0.158730
     5  C   -0.172635
     6  C   -0.224646
     7  H    0.229159
     8  H    0.222986
     9  H    0.275098
    10  H    0.275435
    11  H    0.233391
    12  N    0.488015
    13  O   -0.460721
    14  O   -0.460772
    15  C   -0.298913
    16  C   -0.300417
    17  C   -0.476259
    18  H    0.150559
    19  H    0.146892
    20  H    0.153893
    21  H    0.152961
    22  H    0.155331
    23  H    0.156640
    24  H    0.162650
    25  C   -0.297326
    26  C   -0.308663
    27  C   -0.476813
    28  H    0.153930
    29  H    0.152578
    30  H    0.149278
    31  H    0.145693
    32  H    0.159040
    33  H    0.160453
    34  H    0.161068
 Sum of Mulliken charges =  -0.00000

 Dipole moment (field-independent basis, Debye):
    X=             -4.8731    Y=              0.9853    Z=              2.3006  Tot=              5.4782
 Quadrupole moment (field-independent basis, Debye-Ang):
   XX=           -124.3572   YY=            -96.4193   ZZ=            -89.8996
   XY=              3.1854   XZ=             10.0776   YZ=             -1.6785

 Normal termination of Gaussian 16 at Wed May  5 16:07:20 2021.
