 Gaussian 16, Revision A.03,
 Gaussian 16:  EM64L-G16RevA.03 25-Dec-2016

 -------------
 #p 6-31g* mp2
 -------------

 ------------------------------------------------------
 Input file generated by CHIRIPA (05-May-2021 14:55:21)
 ------------------------------------------------------
 Symbolic Z-matrix:
 Charge =  0 Multiplicity = 1

                         Standard orientation:
 ---------------------------------------------------------------------
 Center     Atomic      Atomic             Coordinates (Angstroms)
 Number     Number       Type             X           Y           Z
 ---------------------------------------------------------------------
      1          6           0        0.860986   -0.467415    0.251169
      2          6           0        1.395960    0.602881   -0.473254
      3          6           0        2.778682    0.729014   -0.636710
      4          6           0        3.600849   -0.237617   -0.059686
      5          6           0        3.098138   -1.315368    0.667654
      6          6           0        1.712281   -1.421442    0.818311
      7          1           0       -0.214364   -0.557607    0.373175
      8          1           0        0.737237    1.345281   -0.914811
      9          1           0        3.219574    1.547553   -1.192612
     10          1           0        3.780124   -2.039728    1.096158
     11          1           0        1.299615   -2.253701    1.381424
     12          7           0        5.066334   -0.114703   -0.225955
     13          8           0        5.769271   -0.979561    0.292250
     14          8           0        5.484295    0.844168   -0.871333
     15          6           0       -4.499243   -0.400335   -0.059682
     16          6           0       -5.987188   -0.587131   -0.358194
     17          6           0       -6.370503   -2.053767   -0.557799
     18          1           0       -3.910233   -0.825873   -0.883653
     19          1           0       -4.238062   -0.974283    0.840186
     20          1           0       -6.245782   -0.011891   -1.256438
     21          1           0       -6.572727   -0.160927    0.466494
     22          1           0       -6.140588   -2.637572    0.339369
     23          1           0       -5.811786   -2.487688   -1.393351
     24          1           0       -7.438495   -2.164290   -0.770022
     25          6           0       -4.100615    1.060493    0.142326
     26          6           0       -2.612669    1.247289    0.440838
     27          6           0       -2.229353    2.713925    0.640444
     28          1           0       -4.361796    1.634441   -0.757542
     29          1           0       -4.689625    1.486031    0.966299
     30          1           0       -2.027130    0.821085   -0.383849
     31          1           0       -2.354074    0.672048    1.339083
     32          1           0       -2.788072    3.147846    1.475997
     33          1           0       -2.459269    3.297730   -0.256726
     34          1           0       -1.161362    2.824447    0.852667
 ---------------------------------------------------------------------

 SCF Done:  E(RHF) =  -669.535339996     A.U. after   15 cycles
 E2 =    -0.2091923091D+01 EUMP2 =    -0.67162726308697D+03

 The electronic state is 1-A.
 Alpha  occ. eigenvalues --  -20.60699 -20.60694 -15.85753 -11.31096 -11.27675
 Alpha  occ. eigenvalues --  -11.27670 -11.27311 -11.26659 -11.26648 -11.23004
 Alpha  occ. eigenvalues --  -11.22430 -11.22360 -11.22300 -11.22214 -11.21709
 Alpha  occ. eigenvalues --   -1.59775  -1.39329  -1.19265  -1.09459  -1.08653
 Alpha  occ. eigenvalues --   -1.04675  -1.04525  -0.96931  -0.95495  -0.87949
 Alpha  occ. eigenvalues --   -0.86065  -0.82344  -0.80656  -0.79261  -0.77391
 Alpha  occ. eigenvalues --   -0.71970  -0.71099  -0.70359  -0.66087  -0.64914
 Alpha  occ. eigenvalues --   -0.64691  -0.62080  -0.61866  -0.60320  -0.58549
 Alpha  occ. eigenvalues --   -0.56191  -0.55175  -0.53637  -0.53349  -0.52987
 Alpha  occ. eigenvalues --   -0.52743  -0.50871  -0.48914  -0.48727  -0.48711
 Alpha  occ. eigenvalues --   -0.47683  -0.46768  -0.46684  -0.44766  -0.44740
 Alpha  occ. eigenvalues --   -0.37227  -0.36282
 Alpha virt. eigenvalues --    0.05143   0.11310   0.16620   0.19643   0.22359
 Alpha virt. eigenvalues --    0.23655   0.25259   0.25534   0.26293   0.28107
 Alpha virt. eigenvalues --    0.29306   0.30135   0.30641   0.31124   0.31653

 Mulliken charges:
               1
     1  C   -0.175650
     2  C   -0.224048
     3  C   -0.170915
     4  C    0.158033
     5  C   -0.170689
     6  C   -0.219824
     7  H    0.235223
     8  H    0.225358
     9  H    0.275254
    10  H    0.275165
    11  H    0.223135
    12  N    0.488079
    13  O   -0.460713
    14  O   -0.460759
    15  C   -0.299926
    16  C   -0.300229
    17  C   -0.476358
    18  H    0.148425
    19  H    0.148407
    20  H    0.153814
    21  H    0.153868
    22  H    0.155402
    23  H    0.155721
    24  H    0.162975
    25  C   -0.297171
    26  C   -0.308014
    27  C   -0.478689
    28  H    0.152855
    29  H    0.153948
    30  H    0.144903
    31  H    0.151861
    32  H    0.161586
    33  H    0.158195
    34  H    0.160779
 Sum of Mulliken charges =  -0.00000

 Dipole moment (field-independent basis, Debye):
    X=             -5.4811    Y=             -0.3603    Z=              0.6157  Tot=              5.5273
 Quadrupole moment (field-independent basis, Debye-Ang):
   XX=           -131.6018   YY=            -91.9991   ZZ=            -93.0146
   XY=             -1.5962   XZ=              2.5133   YZ=             -2.8838

 Normal termination of Gaussian 16 at Thu May  6 09:19:44 2021.
