 Gaussian 16, Revision A.03,
 Gaussian 16:  EM64L-G16RevA.03 25-Dec-2016

 -------------
 #p 6-31g* mp2
 -------------

 ------------------------------------------------------
 Input file generated by CHIRIPA (05-May-2021 14:57:25)
 ------------------------------------------------------
 Symbolic Z-matrix:
 Charge =  0 Multiplicity = 1

                         Standard orientation:
 ---------------------------------------------------------------------
 Center     Atomic      Atomic             Coordinates (Angstroms)
 Number     Number       Type             X           Y           Z
 ---------------------------------------------------------------------
      1          6           0       -4.599699   -1.798033    1.200789
      2          6           0       -5.394361   -0.969555    0.401629
      3          6           0       -4.815951    0.053213   -0.355956
      4          6           0       -3.433505    0.220051   -0.290391
      5          6           0       -2.614980   -0.588968    0.496244
      6          6           0       -3.214986   -1.605435    1.245467
      7          1           0       -5.057410   -2.590097    1.786051
      8          1           0       -6.470008   -1.116813    0.364984
      9          1           0       -5.407518    0.709076   -0.983100
     10          1           0       -1.545471   -0.417759    0.512258
     11          1           0       -2.595363   -2.247323    1.865219
     12          7           0       -2.809737    1.299475   -1.087986
     13          8           0       -1.589479    1.425847   -1.012901
     14          8           0       -3.552897    1.998716   -1.773123
     15          6           0        2.501249    1.649270    1.718960
     16          6           0        3.859738    1.733702    1.396629
     17          6           0        4.443866    0.801999    0.533338
     18          6           0        3.636375   -0.205670    0.008120
     19          6           0        2.279987   -0.316370    0.310190
     20          6           0        1.717091    0.626306    1.175670
     21          1           0        2.055730    2.377301    2.390436
     22          1           0        4.471150    2.527082    1.817070
     23          1           0        5.493012    0.843911    0.266966
     24          1           0        1.696051   -1.118492   -0.124593
     25          1           0        0.661803    0.558276    1.424232
     26          7           0        4.243527   -1.197830   -0.906966
     27          8           0        3.510558   -2.076096   -1.356457
     28          8           0        5.440886   -1.078434   -1.157393
 ---------------------------------------------------------------------

 SCF Done:  E(RHF) =  -868.337352112     A.U. after   16 cycles
 E2 =    -0.2599731263D+01 EUMP2 =    -0.87093708337484D+03

 The electronic state is 1-A.
 Alpha  occ. eigenvalues --  -20.61366 -20.61337 -20.60520 -20.60515 -15.86403
 Alpha  occ. eigenvalues --  -15.85574 -11.31796 -11.30897 -11.28461 -11.28291
 Alpha  occ. eigenvalues --  -11.28030 -11.27495 -11.27456 -11.27381 -11.27306
 Alpha  occ. eigenvalues --  -11.27191 -11.26517 -11.26463  -1.60423  -1.59595
 Alpha  occ. eigenvalues --   -1.39981  -1.39150  -1.19948  -1.19064  -1.09324
 Alpha  occ. eigenvalues --   -1.08464  -1.05362  -1.04478  -0.96168  -0.95309
 Alpha  occ. eigenvalues --   -0.86755  -0.85876  -0.83003  -0.82159  -0.78076
 Alpha  occ. eigenvalues --   -0.77209  -0.72619  -0.71797  -0.71743  -0.71059
 Alpha  occ. eigenvalues --   -0.70913  -0.70179  -0.65599  -0.65377  -0.64729
 Alpha  occ. eigenvalues --   -0.64504  -0.62755  -0.61815  -0.55826  -0.54970
 Alpha  occ. eigenvalues --   -0.53669  -0.53468  -0.52774  -0.52576  -0.49389
 Alpha  occ. eigenvalues --   -0.49366  -0.48552  -0.48549  -0.45379  -0.44566
 Alpha  occ. eigenvalues --   -0.37894  -0.37018  -0.36959  -0.36052
 Alpha virt. eigenvalues --    0.04469   0.05345   0.10672   0.11603   0.16000
 Alpha virt. eigenvalues --    0.16832   0.18801   0.22028   0.24817   0.27255
 Alpha virt. eigenvalues --    0.28484   0.29163   0.30433   0.31090   0.32552

 Mulliken charges:
               1
     1  C   -0.170233
     2  C   -0.217917
     3  C   -0.169700
     4  C    0.159078
     5  C   -0.176086
     6  C   -0.219251
     7  H    0.228155
     8  H    0.225972
     9  H    0.277544
    10  H    0.272118
    11  H    0.224504
    12  N    0.487749
    13  O   -0.464881
    14  O   -0.456487
    15  C   -0.170027
    16  C   -0.218297
    17  C   -0.170805
    18  C    0.158318
    19  C   -0.168663
    20  C   -0.212083
    21  H    0.226275
    22  H    0.222946
    23  H    0.274991
    24  H    0.270781
    25  H    0.220135
    26  N    0.488404
    27  O   -0.461631
    28  O   -0.460908
 Sum of Mulliken charges =  -0.00000

 Dipole moment (field-independent basis, Debye):
    X=             -4.5785    Y=             -0.2456    Z=              5.9956  Tot=              7.5479
 Quadrupole moment (field-independent basis, Debye-Ang):
   XX=            -96.3192   YY=           -107.5873   ZZ=           -107.2072
   XY=             27.3696   XZ=              4.9552   YZ=              0.7136

 Normal termination of Gaussian 16 at Fri May  7 01:58:45 2021.
