 Gaussian 16, Revision A.03,
 Gaussian 16:  EM64L-G16RevA.03 25-Dec-2016

 -------------
 #p 6-31g* mp2
 -------------

 ------------------------------------------------------
 Input file generated by CHIRIPA (05-May-2021 14:51:14)
 ------------------------------------------------------
 Symbolic Z-matrix:
 Charge =  0 Multiplicity = 1

                         Standard orientation:
 ---------------------------------------------------------------------
 Center     Atomic      Atomic             Coordinates (Angstroms)
 Number     Number       Type             X           Y           Z
 ---------------------------------------------------------------------
      1          6           0        3.983908   -0.397507    0.291753
      2          6           0        4.515434   -0.295761   -1.138322
      3          6           0        5.902507   -0.918621   -1.299158
      4          1           0        4.689912    0.094855    0.974455
      5          1           0        3.948574   -1.455044    0.587997
      6          1           0        4.548450    0.761178   -1.432272
      7          1           0        3.807988   -0.788255   -1.817722
      8          1           0        5.881404   -1.980195   -1.032293
      9          1           0        6.626074   -0.421958   -0.644652
     10          1           0        6.263258   -0.834814   -2.329059
     11          6           0        2.598179    0.220769    0.468437
     12          6           0        2.066653    0.119023    1.898512
     13          6           0        0.679580    0.741883    2.059348
     14          1           0        2.633513    1.278306    0.172193
     15          1           0        1.892175   -0.271594   -0.214265
     16          1           0        2.774099    0.611517    2.577912
     17          1           0        2.033637   -0.937916    2.192461
     18          1           0       -0.043987    0.245220    1.404842
     19          1           0        0.700683    1.803457    1.792483
     20          1           0        0.318829    0.658076    3.089248
     21          6           0       -3.816533   -0.401081   -0.119843
     22          6           0       -3.481894   -1.863576   -0.414981
     23          6           0       -4.542568   -2.830643    0.111846
     24          1           0       -3.928767   -0.268963    0.965005
     25          1           0       -4.790380   -0.157626   -0.566776
     26          1           0       -2.508328   -2.103815    0.031194
     27          1           0       -3.370255   -1.992188   -1.499237
     28          1           0       -5.516106   -2.619301   -0.342202
     29          1           0       -4.649281   -2.731562    1.196925
     30          1           0       -4.283333   -3.870566   -0.110003
     31          6           0       -2.765554    0.577819   -0.640347
     32          6           0       -3.100194    2.040315   -0.345209
     33          6           0       -2.039519    3.007381   -0.872035
     34          1           0       -1.791707    0.334364   -0.193414
     35          1           0       -2.653321    0.445701   -1.725194
     36          1           0       -3.211832    2.168926    0.739048
     37          1           0       -4.073758    2.280553   -0.791384
     38          1           0       -1.932806    2.908301   -1.957115
     39          1           0       -1.065982    2.796039   -0.417987
     40          1           0       -2.298755    4.047304   -0.650187
 ---------------------------------------------------------------------

 SCF Done:  E(RHF) =  -470.733301703     A.U. after   11 cycles
 E2 =    -0.1583036987D+01 EUMP2 =    -0.47231633869005D+03

 The electronic state is 1-A.
 Alpha  occ. eigenvalues --  -11.21664 -11.21612 -11.21606 -11.21543 -11.21438
 Alpha  occ. eigenvalues --  -11.21377 -11.21369 -11.21302 -11.21163 -11.21079
 Alpha  occ. eigenvalues --  -11.21070 -11.20999  -1.08469  -1.08398  -1.03577
 Alpha  occ. eigenvalues --   -1.03493  -0.96028  -0.95945  -0.87048  -0.86961
 Alpha  occ. eigenvalues --   -0.79656  -0.79547  -0.78301  -0.78190  -0.65138
 Alpha  occ. eigenvalues --   -0.65005  -0.60982  -0.60892  -0.59397  -0.59309
 Alpha  occ. eigenvalues --   -0.57634  -0.57559  -0.55435  -0.55127  -0.52719
 Alpha  occ. eigenvalues --   -0.52643  -0.52470  -0.52367  -0.50088  -0.49777
 Alpha  occ. eigenvalues --   -0.48061  -0.47821  -0.46712  -0.46579  -0.45949
 Alpha  occ. eigenvalues --   -0.45751  -0.45728  -0.45422  -0.43825  -0.43752
 Alpha virt. eigenvalues --    0.20607   0.23079   0.23704   0.24649   0.25481
 Alpha virt. eigenvalues --    0.26359   0.27188   0.27737   0.27802   0.29237
 Alpha virt. eigenvalues --    0.30820   0.31511   0.31811   0.31895   0.32112

 Mulliken charges:
               1
     1  C   -0.298324
     2  C   -0.299741
     3  C   -0.475744
     4  H    0.149747
     5  H    0.149576
     6  H    0.152105
     7  H    0.152173
     8  H    0.155184
     9  H    0.155179
    10  H    0.160358
    11  C   -0.298681
    12  C   -0.299358
    13  C   -0.483815
    14  H    0.149702
    15  H    0.149873
    16  H    0.152325
    17  H    0.152061
    18  H    0.160954
    19  H    0.156642
    20  H    0.160726
    21  C   -0.297996
    22  C   -0.299548
    23  C   -0.475670
    24  H    0.149886
    25  H    0.149540
    26  H    0.150840
    27  H    0.151930
    28  H    0.155293
    29  H    0.155299
    30  H    0.160100
    31  C   -0.305935
    32  C   -0.298832
    33  C   -0.478125
    34  H    0.156493
    35  H    0.149416
    36  H    0.152417
    37  H    0.151593
    38  H    0.154747
    39  H    0.157857
    40  H    0.159752
 Sum of Mulliken charges =  -0.00000

 Dipole moment (field-independent basis, Debye):
    X=              0.0292    Y=             -0.0005    Z=              0.0159  Tot=              0.0332
 Quadrupole moment (field-independent basis, Debye-Ang):
   XX=            -85.8084   YY=            -84.8593   ZZ=            -84.1094
   XY=              0.2328   XZ=              1.0120   YZ=              0.3280

 Normal termination of Gaussian 16 at Wed May  5 21:37:50 2021.
