 Gaussian 16, Revision A.03,
 Gaussian 16:  EM64L-G16RevA.03 25-Dec-2016

 -------------
 #p 6-31g* mp2
 -------------

 ------------------------------------------------------
 Input file generated by CHIRIPA (05-May-2021 14:51:07)
 ------------------------------------------------------
 Symbolic Z-matrix:
 Charge =  0 Multiplicity = 1

                         Standard orientation:
 ---------------------------------------------------------------------
 Center     Atomic      Atomic             Coordinates (Angstroms)
 Number     Number       Type             X           Y           Z
 ---------------------------------------------------------------------
      1          6           0        2.318019    0.812041    0.508653
      2          6           0        2.603858    2.252823    0.083885
      3          6           0        2.015281    3.281697    1.049696
      4          1           0        1.231568    0.667253    0.583524
      5          1           0        2.725565    0.646276    1.515541
      6          1           0        2.197108    2.415414   -0.922462
      7          1           0        3.689749    2.394144    0.009831
      8          1           0        2.429428    3.148075    2.054299
      9          1           0        0.928306    3.169466    1.116709
     10          1           0        2.231440    4.304915    0.726960
     11          6           0        2.900045   -0.228075   -0.446926
     12          6           0        2.614207   -1.668857   -0.022158
     13          6           0        3.202784   -2.697731   -0.987969
     14          1           0        2.492500   -0.062310   -1.453814
     15          1           0        3.986496   -0.083287   -0.521797
     16          1           0        1.528316   -1.810178    0.051896
     17          1           0        3.020957   -1.831449    0.984189
     18          1           0        4.289759   -2.585501   -1.054982
     19          1           0        2.788637   -2.564109   -1.992572
     20          1           0        2.986625   -3.720950   -0.665233
     21          6           0       -2.776683   -0.907213    0.389633
     22          6           0       -1.877014   -2.107586    0.093514
     23          6           0       -2.224732   -3.330673    0.942599
     24          1           0       -2.696268   -0.650732    1.454855
     25          1           0       -3.823789   -1.190598    0.214548
     26          1           0       -0.831804   -1.821606    0.267775
     27          1           0       -1.959434   -2.361119   -0.971166
     28          1           0       -3.258269   -3.643571    0.762333
     29          1           0       -2.124233   -3.100993    2.008313
     30          1           0       -1.569362   -4.177081    0.714690
     31          6           0       -2.441382    0.323247   -0.451361
     32          6           0       -3.341050    1.523620   -0.155241
     33          6           0       -2.993333    2.746706   -1.004326
     34          1           0       -1.394276    0.606633   -0.276275
     35          1           0       -2.521797    0.066766   -1.516582
     36          1           0       -3.258631    1.777154    0.909440
     37          1           0       -4.386261    1.237641   -0.329503
     38          1           0       -3.093832    2.517028   -2.070041
     39          1           0       -1.959796    3.059606   -0.824059
     40          1           0       -3.648702    3.593116   -0.776417
 ---------------------------------------------------------------------

 SCF Done:  E(RHF) =  -470.733336947     A.U. after   11 cycles
 E2 =    -0.1583874370D+01 EUMP2 =    -0.47231721131736D+03

 The electronic state is 1-A.
 Alpha  occ. eigenvalues --  -11.21650 -11.21639 -11.21639 -11.21592 -11.21465
 Alpha  occ. eigenvalues --  -11.21443 -11.21402 -11.21373 -11.21121 -11.21116
 Alpha  occ. eigenvalues --  -11.21098 -11.21068  -1.08497  -1.08448  -1.03587
 Alpha  occ. eigenvalues --   -1.03541  -0.96027  -0.95998  -0.87046  -0.87011
 Alpha  occ. eigenvalues --   -0.79702  -0.79562  -0.78391  -0.78190  -0.65286
 Alpha  occ. eigenvalues --   -0.64930  -0.61118  -0.60824  -0.59423  -0.59335
 Alpha  occ. eigenvalues --   -0.57670  -0.57579  -0.55386  -0.55216  -0.52719
 Alpha  occ. eigenvalues --   -0.52690  -0.52475  -0.52401  -0.50058  -0.49859
 Alpha  occ. eigenvalues --   -0.48123  -0.47827  -0.46903  -0.46421  -0.46296
 Alpha  occ. eigenvalues --   -0.45808  -0.45772  -0.45188  -0.43831  -0.43804
 Alpha virt. eigenvalues --    0.19213   0.22317   0.23658   0.24803   0.25311
 Alpha virt. eigenvalues --    0.26731   0.27002   0.27143   0.28430   0.29252
 Alpha virt. eigenvalues --    0.31307   0.31557   0.31663   0.31814   0.32072

 Mulliken charges:
               1
     1  C   -0.303675
     2  C   -0.299635
     3  C   -0.476206
     4  H    0.152910
     5  H    0.149758
     6  H    0.152326
     7  H    0.152374
     8  H    0.155414
     9  H    0.154606
    10  H    0.160739
    11  C   -0.297404
    12  C   -0.309631
    13  C   -0.475022
    14  H    0.149911
    15  H    0.149826
    16  H    0.161133
    17  H    0.151751
    18  H    0.155120
    19  H    0.155366
    20  H    0.160138
    21  C   -0.297190
    22  C   -0.309920
    23  C   -0.475198
    24  H    0.149846
    25  H    0.149911
    26  H    0.160501
    27  H    0.151914
    28  H    0.155371
    29  H    0.155390
    30  H    0.160454
    31  C   -0.303310
    32  C   -0.299557
    33  C   -0.476268
    34  H    0.152658
    35  H    0.149868
    36  H    0.152162
    37  H    0.152326
    38  H    0.155277
    39  H    0.155269
    40  H    0.160696
 Sum of Mulliken charges =  -0.00000

 Dipole moment (field-independent basis, Debye):
    X=             -0.0080    Y=             -0.0064    Z=             -0.0026  Tot=              0.0105
 Quadrupole moment (field-independent basis, Debye-Ang):
   XX=            -83.6611   YY=            -86.3302   ZZ=            -84.6032
   XY=              0.4144   XZ=              1.2393   YZ=              0.2134

 Normal termination of Gaussian 16 at Thu May  6 11:32:13 2021.
