 Gaussian 16, Revision A.03,
 Gaussian 16:  EM64L-G16RevA.03 25-Dec-2016

 -------------
 #p 6-31g* mp2
 -------------

 ------------------------------------------------------
 Input file generated by CHIRIPA (05-May-2021 14:51:13)
 ------------------------------------------------------
 Symbolic Z-matrix:
 Charge =  0 Multiplicity = 1

                         Standard orientation:
 ---------------------------------------------------------------------
 Center     Atomic      Atomic             Coordinates (Angstroms)
 Number     Number       Type             X           Y           Z
 ---------------------------------------------------------------------
      1          6           0       -2.981369    0.087054    0.287502
      2          6           0       -3.688743    0.257920   -1.057270
      3          6           0       -4.663901    1.435532   -1.066851
      4          1           0       -3.734136   -0.051968    1.075511
      5          1           0       -2.441923    1.013006    0.530410
      6          1           0       -4.225562   -0.668568   -1.298227
      7          1           0       -2.934198    0.396360   -1.842198
      8          1           0       -4.139209    2.371954   -0.851414
      9          1           0       -5.437911    1.300974   -0.304352
     10          1           0       -5.158462    1.539351   -2.037671
     11          6           0       -2.003253   -1.086138    0.312757
     12          6           0       -1.295879   -1.257004    1.657529
     13          6           0       -0.320721   -2.434616    1.667110
     14          1           0       -2.542699   -2.012090    0.069849
     15          1           0       -1.250486   -0.947116   -0.475252
     16          1           0       -2.050425   -1.395445    2.442457
     17          1           0       -0.759060   -0.330516    1.898486
     18          1           0        0.453288   -2.300058    0.904611
     19          1           0       -0.845413   -3.371038    1.451673
     20          1           0        0.173839   -2.538435    2.637930
     21          6           0        2.236529   -0.102418   -0.694656
     22          6           0        3.199153   -1.290328   -0.680223
     23          6           0        2.673465   -2.486876   -1.473771
     24          1           0        1.267559   -0.418838   -0.284872
     25          1           0        2.052482    0.198823   -1.735222
     26          1           0        3.382413   -1.588359    0.360069
     27          1           0        4.166001   -0.970993   -1.089913
     28          1           0        2.507844   -2.212171   -2.520532
     29          1           0        1.719803   -2.833043   -1.062312
     30          1           0        3.377246   -3.324727   -1.450174
     31          6           0        2.748093    1.101502    0.094398
     32          6           0        1.785469    2.289412    0.079964
     33          6           0        2.311158    3.485961    0.873512
     34          1           0        2.932140    0.800261    1.134962
     35          1           0        3.717062    1.417921   -0.315388
     36          1           0        0.818620    1.970078    0.489654
     37          1           0        1.602209    2.587443   -0.960329
     38          1           0        3.264819    3.832128    0.462052
     39          1           0        2.476778    3.211254    1.920273
     40          1           0        1.607375    4.323812    0.849915
 ---------------------------------------------------------------------

 SCF Done:  E(RHF) =  -470.732452354     A.U. after   11 cycles
 E2 =    -0.1585001647D+01 EUMP2 =    -0.47231745400134D+03

 The electronic state is 1-A.
 Alpha  occ. eigenvalues --  -11.21672 -11.21671 -11.21632 -11.21602 -11.21446
 Alpha  occ. eigenvalues --  -11.21429 -11.21384 -11.21369 -11.21119 -11.21112
 Alpha  occ. eigenvalues --  -11.21079 -11.21070  -1.08525  -1.08427  -1.03615
 Alpha  occ. eigenvalues --   -1.03535  -0.96032  -0.96006  -0.87049  -0.87024
 Alpha  occ. eigenvalues --   -0.79687  -0.79588  -0.78371  -0.78214  -0.65474
 Alpha  occ. eigenvalues --   -0.64813  -0.61216  -0.60758  -0.59439  -0.59331
 Alpha  occ. eigenvalues --   -0.57686  -0.57572  -0.55365  -0.55254  -0.52713
 Alpha  occ. eigenvalues --   -0.52708  -0.52516  -0.52369  -0.50011  -0.49923
 Alpha  occ. eigenvalues --   -0.48113  -0.47859  -0.46865  -0.46531  -0.46151
 Alpha  occ. eigenvalues --   -0.45790  -0.45728  -0.45251  -0.43827  -0.43814
 Alpha virt. eigenvalues --    0.19276   0.22258   0.23651   0.24531   0.25684
 Alpha virt. eigenvalues --    0.26697   0.27027   0.27703   0.28408   0.30047
 Alpha virt. eigenvalues --    0.31013   0.31467   0.31505   0.31793   0.32400

 Mulliken charges:
               1
     1  C   -0.298743
     2  C   -0.299766
     3  C   -0.475783
     4  H    0.149732
     5  H    0.149926
     6  H    0.151931
     7  H    0.152561
     8  H    0.155333
     9  H    0.155099
    10  H    0.160292
    11  C   -0.302783
    12  C   -0.301426
    13  C   -0.485142
    14  H    0.149896
    15  H    0.153368
    16  H    0.152965
    17  H    0.152244
    18  H    0.163864
    19  H    0.155794
    20  H    0.160462
    21  C   -0.308892
    22  C   -0.300230
    23  C   -0.480432
    24  H    0.159232
    25  H    0.149380
    26  H    0.152762
    27  H    0.152626
    28  H    0.155281
    29  H    0.158897
    30  H    0.160886
    31  C   -0.297445
    32  C   -0.301857
    33  C   -0.475683
    34  H    0.149803
    35  H    0.150055
    36  H    0.152465
    37  H    0.152069
    38  H    0.155516
    39  H    0.155415
    40  H    0.160328
 Sum of Mulliken charges =  -0.00000

 Dipole moment (field-independent basis, Debye):
    X=              0.0070    Y=             -0.0077    Z=             -0.0071  Tot=              0.0126
 Quadrupole moment (field-independent basis, Debye-Ang):
   XX=            -84.5524   YY=            -85.7986   ZZ=            -84.3021
   XY=              1.0185   XZ=             -0.8512   YZ=             -0.8703

 Normal termination of Gaussian 16 at Wed May  5 16:50:57 2021.
