 Gaussian 16, Revision A.03,
 Gaussian 16:  EM64L-G16RevA.03 25-Dec-2016

 -------------
 #p 6-31g* mp2
 -------------

 ------------------------------------------------------
 Input file generated by CHIRIPA (05-May-2021 14:53:18)
 ------------------------------------------------------
 Symbolic Z-matrix:
 Charge =  0 Multiplicity = 1

                         Standard orientation:
 ---------------------------------------------------------------------
 Center     Atomic      Atomic             Coordinates (Angstroms)
 Number     Number       Type             X           Y           Z
 ---------------------------------------------------------------------
      1          6           0       -3.930744   -0.323406   -0.178734
      2          6           0       -3.437390   -1.439896   -1.099623
      3          6           0       -4.380307   -2.643195   -1.127442
      4          1           0       -4.049744   -0.721386    0.838318
      5          1           0       -4.928595   -0.000974   -0.506951
      6          1           0       -2.440181   -1.759173   -0.770605
      7          1           0       -3.319367   -1.039163   -2.114561
      8          1           0       -5.374325   -2.345701   -1.476765
      9          1           0       -4.490144   -3.069802   -0.125173
     10          1           0       -4.008430   -3.429366   -1.791899
     11          6           0       -2.998736    0.886393   -0.140296
     12          6           0       -3.492090    2.002883    0.780593
     13          6           0       -2.549173    3.206182    0.808412
     14          1           0       -2.000885    0.563961    0.187921
     15          1           0       -2.879736    1.284373   -1.157348
     16          1           0       -3.610113    1.602150    1.795531
     17          1           0       -4.489299    2.322160    0.451575
     18          1           0       -2.439336    3.632789   -0.193857
     19          1           0       -1.555155    2.908688    1.157735
     20          1           0       -2.921050    3.992353    1.472869
     21          6           0        1.362389   -1.794873    1.566120
     22          6           0        2.650145   -2.151363    1.152454
     23          6           0        3.404144   -1.286565    0.353604
     24          6           0        2.836804   -0.067656   -0.014737
     25          6           0        1.556502    0.316047    0.381353
     26          6           0        0.820632   -0.564476    1.179931
     27          1           0        0.783706   -2.472777    2.186579
     28          1           0        3.073432   -3.106261    1.450854
     29          1           0        4.403483   -1.537378    0.019192
     30          1           0        1.161422    1.274726    0.067884
     31          1           0       -0.179205   -0.284983    1.499704
     32          7           0        3.625431    0.856190   -0.860299
     33          8           0        3.102916    1.924319   -1.171293
     34          8           0        4.751140    0.494679   -1.196047
 ---------------------------------------------------------------------

 SCF Done:  E(RHF) =  -669.535448002     A.U. after   15 cycles
 E2 =    -0.2091773794D+01 EUMP2 =    -0.67162722179609D+03

 The electronic state is 1-A.
 Alpha  occ. eigenvalues --  -20.60755 -20.60749 -15.85809 -11.31188 -11.27770
 Alpha  occ. eigenvalues --  -11.27760 -11.27519 -11.26783 -11.26768 -11.22248
 Alpha  occ. eigenvalues --  -11.22159 -11.22142 -11.22016 -11.21652 -11.21564
 Alpha  occ. eigenvalues --   -1.59830  -1.39383  -1.19368  -1.09094  -1.08760
 Alpha  occ. eigenvalues --   -1.04776  -1.04124  -0.96576  -0.95592  -0.87587
 Alpha  occ. eigenvalues --   -0.86173  -0.82430  -0.80180  -0.78918  -0.77463
 Alpha  occ. eigenvalues --   -0.72027  -0.71153  -0.70477  -0.65804  -0.65020
 Alpha  occ. eigenvalues --   -0.64749  -0.62140  -0.61508  -0.59936  -0.58180
 Alpha  occ. eigenvalues --   -0.55887  -0.55277  -0.53238  -0.53109  -0.53029
 Alpha  occ. eigenvalues --   -0.52826  -0.50520  -0.48790  -0.48780  -0.48491
 Alpha  occ. eigenvalues --   -0.47227  -0.46429  -0.46374  -0.44785  -0.44397
 Alpha  occ. eigenvalues --   -0.37350  -0.36366
 Alpha virt. eigenvalues --    0.05057   0.11223   0.16454   0.18832   0.22789
 Alpha virt. eigenvalues --    0.23488   0.25198   0.26404   0.26892   0.28380
 Alpha virt. eigenvalues --    0.29258   0.30822   0.31222   0.31466   0.32293

 Mulliken charges:
               1
     1  C   -0.298505
     2  C   -0.300352
     3  C   -0.475974
     4  H    0.146794
     5  H    0.153152
     6  H    0.149353
     7  H    0.155661
     8  H    0.157153
     9  H    0.153454
    10  H    0.162071
    11  C   -0.302919
    12  C   -0.300666
    13  C   -0.475460
    14  H    0.141000
    15  H    0.155835
    16  H    0.149907
    17  H    0.155946
    18  H    0.160476
    19  H    0.148368
    20  H    0.164049
    21  C   -0.171366
    22  C   -0.218644
    23  C   -0.170580
    24  C    0.158440
    25  C   -0.172271
    26  C   -0.221788
    27  H    0.225762
    28  H    0.223495
    29  H    0.275731
    30  H    0.277085
    31  H    0.227327
    32  N    0.488089
    33  O   -0.460046
    34  O   -0.460574
 Sum of Mulliken charges =  -0.00000

 Dipole moment (field-independent basis, Debye):
    X=             -2.9093    Y=             -3.2024    Z=              2.8853  Tot=              5.2004
 Quadrupole moment (field-independent basis, Debye-Ang):
   XX=           -107.4219   YY=            -92.8877   ZZ=            -94.9966
   XY=            -13.0322   XZ=              9.1134   YZ=             -0.6516

 Normal termination of Gaussian 16 at Thu May  6 10:44:29 2021.
