 Gaussian 16, Revision A.03,
 Gaussian 16:  EM64L-G16RevA.03 25-Dec-2016

 -------------
 #p 6-31g* mp2
 -------------

 ------------------------------------------------------
 Input file generated by CHIRIPA (05-May-2021 14:57:22)
 ------------------------------------------------------
 Symbolic Z-matrix:
 Charge =  0 Multiplicity = 1

                         Standard orientation:
 ---------------------------------------------------------------------
 Center     Atomic      Atomic             Coordinates (Angstroms)
 Number     Number       Type             X           Y           Z
 ---------------------------------------------------------------------
      1          6           0        1.613362    1.174106   -0.390976
      2          6           0        2.829573    1.813825   -0.651955
      3          6           0        4.040034    1.136834   -0.475846
      4          6           0        3.997148   -0.185124   -0.035530
      5          6           0        2.801568   -0.849817    0.232909
      6          6           0        1.603258   -0.153333    0.049846
      7          1           0        0.677766    1.707581   -0.530483
      8          1           0        2.840455    2.844676   -0.994406
      9          1           0        4.995845    1.607971   -0.670459
     10          1           0        2.822705   -1.878008    0.573194
     11          1           0        0.660227   -0.652674    0.253304
     12          7           0        5.272177   -0.912143    0.154590
     13          8           0        5.207391   -2.076293    0.543427
     14          8           0        6.312188   -0.304064   -0.088831
     15          6           0       -5.092098   -1.980827   -0.623078
     16          6           0       -4.897129   -1.699316    0.733115
     17          6           0       -4.175654   -0.568421    1.126944
     18          6           0       -3.660837    0.263115    0.133564
     19          6           0       -3.838116    0.009579   -1.225693
     20          6           0       -4.562903   -1.126986   -1.596438
     21          1           0       -5.653844   -2.861535   -0.920047
     22          1           0       -5.306959   -2.360647    1.491221
     23          1           0       -4.009737   -0.326713    2.169760
     24          1           0       -3.417459    0.687506   -1.958415
     25          1           0       -4.712749   -1.343119   -2.650419
     26          7           0       -2.895290    1.463343    0.538274
     27          8           0       -2.451967    2.180158   -0.356308
     28          8           0       -2.753074    1.664542    1.742404
 ---------------------------------------------------------------------

 SCF Done:  E(RHF) =  -868.339935044     A.U. after   16 cycles
 E2 =    -0.2598482513D+01 EUMP2 =    -0.87093841755702D+03

 The electronic state is 1-A.
 Alpha  occ. eigenvalues --  -20.61980 -20.61931 -20.60322 -20.60315 -15.86973
 Alpha  occ. eigenvalues --  -15.85373 -11.32095 -11.30587 -11.28633 -11.28609
 Alpha  occ. eigenvalues --  -11.28292 -11.27563 -11.27549 -11.27189 -11.27154
 Alpha  occ. eigenvalues --  -11.26679 -11.26115 -11.26051  -1.61024  -1.59401
 Alpha  occ. eigenvalues --   -1.40580  -1.38960  -1.20238  -1.18741  -1.09673
 Alpha  occ. eigenvalues --   -1.08125  -1.05591  -1.04140  -0.96546  -0.94987
 Alpha  occ. eigenvalues --   -0.86998  -0.85525  -0.83379  -0.81842  -0.78464
 Alpha  occ. eigenvalues --   -0.76947  -0.73186  -0.72351  -0.71593  -0.71319
 Alpha  occ. eigenvalues --   -0.70725  -0.69729  -0.65880  -0.65574  -0.64379
 Alpha  occ. eigenvalues --   -0.64137  -0.62934  -0.61508  -0.56082  -0.54488
 Alpha  occ. eigenvalues --   -0.53942  -0.53666  -0.52460  -0.52225  -0.49965
 Alpha  occ. eigenvalues --   -0.49924  -0.48357  -0.48336  -0.46021  -0.44400
 Alpha  occ. eigenvalues --   -0.38200  -0.37187  -0.36652  -0.35765
 Alpha virt. eigenvalues --    0.03996   0.05612   0.10471   0.11906   0.15535
 Alpha virt. eigenvalues --    0.17158   0.20681   0.22144   0.26625   0.27501
 Alpha virt. eigenvalues --    0.27809   0.29130   0.30390   0.31548   0.32187

 Mulliken charges:
               1
     1  C   -0.176414
     2  C   -0.220148
     3  C   -0.171294
     4  C    0.157151
     5  C   -0.171683
     6  C   -0.219391
     7  H    0.245053
     8  H    0.224494
     9  H    0.273720
    10  H    0.272261
    11  H    0.218764
    12  N    0.488321
    13  O   -0.462984
    14  O   -0.461832
    15  C   -0.169767
    16  C   -0.218582
    17  C   -0.171535
    18  C    0.154892
    19  C   -0.172146
    20  C   -0.218391
    21  H    0.229119
    22  H    0.226722
    23  H    0.277285
    24  H    0.275304
    25  H    0.226419
    26  N    0.486607
    27  O   -0.466937
    28  O   -0.455010
 Sum of Mulliken charges =  -0.00000

 Dipole moment (field-independent basis, Debye):
    X=             -7.6529    Y=             -1.6476    Z=             -2.0835  Tot=              8.1008
 Quadrupole moment (field-independent basis, Debye-Ang):
   XX=           -120.6022   YY=           -105.0741   ZZ=           -100.7202
   XY=             29.5041   XZ=              0.7229   YZ=             -3.4857

 Normal termination of Gaussian 16 at Wed May  5 16:16:44 2021.
