 Gaussian 16, Revision A.03,
 Gaussian 16:  EM64L-G16RevA.03 25-Dec-2016

 -------------
 #p 6-31g* mp2
 -------------

 ------------------------------------------------------
 Input file generated by CHIRIPA (05-May-2021 14:55:21)
 ------------------------------------------------------
 Symbolic Z-matrix:
 Charge =  0 Multiplicity = 1

                         Standard orientation:
 ---------------------------------------------------------------------
 Center     Atomic      Atomic             Coordinates (Angstroms)
 Number     Number       Type             X           Y           Z
 ---------------------------------------------------------------------
      1          6           0        1.921187    1.955066    0.719313
      2          6           0        1.957627    0.852688    1.579519
      3          6           0        2.738898   -0.264429    1.269334
      4          6           0        3.474514   -0.245290    0.085361
      5          6           0        3.459009    0.837844   -0.792061
      6          6           0        2.670672    1.944145   -0.461650
      7          1           0        1.311532    2.818668    0.968128
      8          1           0        1.376595    0.858393    2.497350
      9          1           0        2.785464   -1.131258    1.917297
     10          1           0        4.049043    0.802902   -1.699836
     11          1           0        2.644296    2.798862   -1.131582
     12          7           0        4.305350   -1.422207   -0.253724
     13          8           0        4.944283   -1.380646   -1.302855
     14          8           0        4.301895   -2.363949    0.536052
     15          6           0       -4.790025   -0.429113   -0.446053
     16          6           0       -5.965873   -0.645376    0.507149
     17          6           0       -6.993561   -1.637861   -0.037483
     18          1           0       -5.170735   -0.071577   -1.412579
     19          1           0       -4.301991   -1.394299   -0.640045
     20          1           0       -6.450698    0.320142    0.700376
     21          1           0       -5.582303   -1.002256    1.471581
     22          1           0       -6.530579   -2.614244   -0.213336
     23          1           0       -7.403908   -1.284333   -0.988921
     24          1           0       -7.825507   -1.777532    0.659811
     25          6           0       -3.754186    0.560493    0.084463
     26          6           0       -2.578337    0.776756   -0.868740
     27          6           0       -1.550648    1.769241   -0.324107
     28          1           0       -4.242220    1.525679    0.278454
     29          1           0       -3.373476    0.202956    1.050989
     30          1           0       -2.961907    1.133636   -1.833170
     31          1           0       -2.093513   -0.188762   -1.061967
     32          1           0       -1.140303    1.415712    0.627331
     33          1           0       -2.013631    2.745625   -0.148255
     34          1           0       -0.718703    1.908912   -1.021401
 ---------------------------------------------------------------------

 SCF Done:  E(RHF) =  -669.535094107     A.U. after   15 cycles
 E2 =    -0.2091792848D+01 EUMP2 =    -0.67162688695532D+03

 The electronic state is 1-A.
 Alpha  occ. eigenvalues --  -20.60753 -20.60748 -15.85809 -11.31161 -11.27768
 Alpha  occ. eigenvalues --  -11.27765 -11.27478 -11.26744 -11.26735 -11.22094
 Alpha  occ. eigenvalues --  -11.21891 -11.21831 -11.21757 -11.21698 -11.21293
 Alpha  occ. eigenvalues --   -1.59830  -1.39384  -1.19355  -1.08837  -1.08738
 Alpha  occ. eigenvalues --   -1.04761  -1.03948  -0.96426  -0.95571  -0.87446
 Alpha  occ. eigenvalues --   -0.86158  -0.82412  -0.80024  -0.78630  -0.77461
 Alpha  occ. eigenvalues --   -0.72028  -0.71155  -0.70455  -0.65460  -0.65007
 Alpha  occ. eigenvalues --   -0.64764  -0.62113  -0.61346  -0.59795  -0.58015
 Alpha  occ. eigenvalues --   -0.55745  -0.55248  -0.53381  -0.52859  -0.52841
 Alpha  occ. eigenvalues --   -0.52799  -0.50346  -0.48785  -0.48782  -0.48338
 Alpha  occ. eigenvalues --   -0.47041  -0.46181  -0.46087  -0.44793  -0.44207
 Alpha  occ. eigenvalues --   -0.37243  -0.36369
 Alpha virt. eigenvalues --    0.05084   0.11133   0.16558   0.20946   0.22520
 Alpha virt. eigenvalues --    0.23981   0.26098   0.26635   0.27100   0.27389
 Alpha virt. eigenvalues --    0.28746   0.30419   0.30881   0.31312   0.31852

 Mulliken charges:
               1
     1  C   -0.163332
     2  C   -0.220660
     3  C   -0.170891
     4  C    0.157755
     5  C   -0.170503
     6  C   -0.221766
     7  H    0.228413
     8  H    0.222962
     9  H    0.275503
    10  H    0.275638
    11  H    0.223397
    12  N    0.488180
    13  O   -0.460614
    14  O   -0.460710
    15  C   -0.298794
    16  C   -0.299822
    17  C   -0.475975
    18  H    0.150454
    19  H    0.151210
    20  H    0.151682
    21  H    0.151730
    22  H    0.156219
    23  H    0.155629
    24  H    0.160877
    25  C   -0.298436
    26  C   -0.299998
    27  C   -0.477836
    28  H    0.149035
    29  H    0.148132
    30  H    0.153256
    31  H    0.155715
    32  H    0.150775
    33  H    0.152109
    34  H    0.160664
 Sum of Mulliken charges =  -0.00000

 Dipole moment (field-independent basis, Debye):
    X=             -2.9922    Y=              4.1248    Z=              1.1656  Tot=              5.2274
 Quadrupole moment (field-independent basis, Debye-Ang):
   XX=           -115.6908   YY=            -96.2893   ZZ=            -91.1070
   XY=             15.2711   XZ=              2.6099   YZ=             -2.6520

 Normal termination of Gaussian 16 at Thu May  6 14:08:19 2021.
