 Gaussian 16, Revision A.03,
 Gaussian 16:  EM64L-G16RevA.03 25-Dec-2016

 -------------
 #p 6-31g* mp2
 -------------

 ------------------------------------------------------
 Input file generated by CHIRIPA (05-May-2021 14:57:24)
 ------------------------------------------------------
 Symbolic Z-matrix:
 Charge =  0 Multiplicity = 1

                         Standard orientation:
 ---------------------------------------------------------------------
 Center     Atomic      Atomic             Coordinates (Angstroms)
 Number     Number       Type             X           Y           Z
 ---------------------------------------------------------------------
      1          6           0        3.140433    2.080981    0.596413
      2          6           0        4.046159    1.016324    0.648230
      3          6           0        3.659997   -0.264740    0.242887
      4          6           0        2.354454   -0.446230   -0.210886
      5          6           0        1.428976    0.594328   -0.274284
      6          6           0        1.837030    1.866962    0.136133
      7          1           0        3.448915    3.072868    0.913264
      8          1           0        5.059040    1.179597    1.005245
      9          1           0        4.340815   -1.106773    0.272615
     10          1           0        0.426040    0.400634   -0.634867
     11          1           0        1.131496    2.691922    0.094802
     12          7           0        1.934054   -1.797973   -0.642690
     13          8           0        0.778168   -1.931750   -1.038502
     14          8           0        2.768391   -2.698097   -0.577150
     15          6           0       -2.029427    2.515493   -0.838525
     16          6           0       -2.606931    1.510259   -1.621158
     17          6           0       -2.830054    0.236611   -1.089573
     18          6           0       -2.461862    0.001860    0.234293
     19          6           0       -1.884564    0.982592    1.039389
     20          6           0       -1.670719    2.248921    0.486913
     21          1           0       -1.859703    3.502051   -1.259588
     22          1           0       -2.886508    1.714430   -2.650817
     23          1           0       -3.275448   -0.559968   -1.673101
     24          1           0       -1.616395    0.749008    2.062591
     25          1           0       -1.222044    3.027675    1.097061
     26          7           0       -2.693161   -1.342620    0.808116
     27          8           0       -2.359897   -1.524060    1.977155
     28          8           0       -3.203339   -2.189526    0.077975
 ---------------------------------------------------------------------

 SCF Done:  E(RHF) =  -868.335027487     A.U. after   16 cycles
 E2 =    -0.2605482404D+01 EUMP2 =    -0.87094050989124D+03

 The electronic state is 1-A.
 Alpha  occ. eigenvalues --  -20.60660 -20.60649 -20.60642 -20.60594 -15.85713
 Alpha  occ. eigenvalues --  -15.85701 -11.31528 -11.31160 -11.28179 -11.28106
 Alpha  occ. eigenvalues --  -11.28057 -11.27776 -11.27689 -11.27597 -11.27345
 Alpha  occ. eigenvalues --  -11.27242 -11.26820 -11.26810  -1.59722  -1.59672
 Alpha  occ. eigenvalues --   -1.39278  -1.39220  -1.19826  -1.19369  -1.09104
 Alpha  occ. eigenvalues --   -1.08766  -1.05296  -1.04760  -0.95840  -0.95573
 Alpha  occ. eigenvalues --   -0.86649  -0.86182  -0.82680  -0.82393  -0.77634
 Alpha  occ. eigenvalues --   -0.77427  -0.71946  -0.71920  -0.71081  -0.70942
 Alpha  occ. eigenvalues --   -0.70857  -0.70511  -0.65432  -0.65363  -0.65036
 Alpha  occ. eigenvalues --   -0.64734  -0.62577  -0.62205  -0.55739  -0.55415
 Alpha  occ. eigenvalues --   -0.53601  -0.53336  -0.53066  -0.52707  -0.48716
 Alpha  occ. eigenvalues --   -0.48685  -0.48677  -0.48634  -0.44664  -0.44527
 Alpha  occ. eigenvalues --   -0.37851  -0.37390  -0.37218  -0.36022
 Alpha virt. eigenvalues --    0.04793   0.05251   0.10400   0.11433   0.16056
 Alpha virt. eigenvalues --    0.16804   0.20091   0.21985   0.25867   0.27669
 Alpha virt. eigenvalues --    0.28225   0.28579   0.30129   0.31380   0.32120

 Mulliken charges:
               1
     1  C   -0.170953
     2  C   -0.219228
     3  C   -0.169419
     4  C    0.157470
     5  C   -0.173287
     6  C   -0.222558
     7  H    0.222982
     8  H    0.223298
     9  H    0.276538
    10  H    0.284190
    11  H    0.213449
    12  N    0.488892
    13  O   -0.461089
    14  O   -0.458487
    15  C   -0.177422
    16  C   -0.219125
    17  C   -0.166466
    18  C    0.162269
    19  C   -0.175365
    20  C   -0.228682
    21  H    0.225289
    22  H    0.227304
    23  H    0.282627
    24  H    0.278778
    25  H    0.220459
    26  N    0.491955
    27  O   -0.460778
    28  O   -0.452639
 Sum of Mulliken charges =  -0.00000

 Dipole moment (field-independent basis, Debye):
    X=              1.9892    Y=              9.0463    Z=             -0.5812  Tot=              9.2806
 Quadrupole moment (field-independent basis, Debye-Ang):
   XX=            -96.9680   YY=           -109.6007   ZZ=           -103.2422
   XY=             -2.0667   XZ=             11.8741   YZ=              0.4757

 Normal termination of Gaussian 16 at Fri May  7 01:55:13 2021.
