 Gaussian 16, Revision A.03,
 Gaussian 16:  EM64L-G16RevA.03 25-Dec-2016

 -------------
 #p 6-31g* mp2
 -------------

 ------------------------------------------------------
 Input file generated by CHIRIPA (05-May-2021 14:57:26)
 ------------------------------------------------------
 Symbolic Z-matrix:
 Charge =  0 Multiplicity = 1

                         Standard orientation:
 ---------------------------------------------------------------------
 Center     Atomic      Atomic             Coordinates (Angstroms)
 Number     Number       Type             X           Y           Z
 ---------------------------------------------------------------------
      1          6           0        5.213804    1.289274    0.606374
      2          6           0        5.286060   -0.101812    0.479176
      3          6           0        4.191359   -0.828997    0.002331
      4          6           0        3.034883   -0.129769   -0.339623
      5          6           0        2.932038    1.255646   -0.224135
      6          6           0        4.039095    1.962377    0.254932
      7          1           0        6.068993    1.846224    0.977662
      8          1           0        6.197067   -0.627198    0.751352
      9          1           0        4.220071   -1.906422   -0.106061
     10          1           0        2.010338    1.751505   -0.503441
     11          1           0        3.980126    3.042661    0.352676
     12          7           0        1.869432   -0.888780   -0.845614
     13          8           0        0.862025   -0.249227   -1.140133
     14          8           0        1.985426   -2.108872   -0.938110
     15          6           0       -2.130854   -2.174916    0.899543
     16          6           0       -3.356982   -2.179894    0.226411
     17          6           0       -3.973456   -0.978257   -0.134940
     18          6           0       -3.332931    0.215389    0.194036
     19          6           0       -2.111134    0.253189    0.864167
     20          6           0       -1.512934   -0.960532    1.215715
     21          1           0       -1.659059   -3.113070    1.176442
     22          1           0       -3.839168   -3.121496   -0.020425
     23          1           0       -4.922529   -0.953134   -0.656524
     24          1           0       -1.654709    1.207685    1.096612
     25          1           0       -0.560690   -0.953629    1.738429
     26          7           0       -3.975893    1.493905   -0.183320
     27          8           0       -3.391123    2.532117    0.118002
     28          8           0       -5.052441    1.433584   -0.773271
 ---------------------------------------------------------------------

 SCF Done:  E(RHF) =  -868.338165017     A.U. after   16 cycles
 E2 =    -0.2600161003D+01 EUMP2 =    -0.87093832601973D+03

 The electronic state is 1-A.
 Alpha  occ. eigenvalues --  -20.61435 -20.61380 -20.59976 -20.59965 -15.86428
 Alpha  occ. eigenvalues --  -15.85020 -11.31705 -11.30127 -11.28260 -11.28233
 Alpha  occ. eigenvalues --  -11.27951 -11.27237 -11.27207 -11.26698 -11.26693
 Alpha  occ. eigenvalues --  -11.26363 -11.25675 -11.25664  -1.60486  -1.59050
 Alpha  occ. eigenvalues --   -1.40039  -1.38613  -1.19862  -1.18272  -1.09273
 Alpha  occ. eigenvalues --   -1.07718  -1.05238  -1.03666  -0.96123  -0.94601
 Alpha  occ. eigenvalues --   -0.86640  -0.85094  -0.82952  -0.81465  -0.78020
 Alpha  occ. eigenvalues --   -0.76552  -0.72651  -0.71832  -0.71256  -0.70950
 Alpha  occ. eigenvalues --   -0.70359  -0.69414  -0.65506  -0.65225  -0.63956
 Alpha  occ. eigenvalues --   -0.63727  -0.62580  -0.61069  -0.55729  -0.54183
 Alpha  occ. eigenvalues --   -0.53590  -0.53317  -0.51963  -0.51815  -0.49423
 Alpha  occ. eigenvalues --   -0.49390  -0.48017  -0.47986  -0.45462  -0.44078
 Alpha  occ. eigenvalues --   -0.37844  -0.36842  -0.36196  -0.35153
 Alpha virt. eigenvalues --    0.04455   0.06037   0.10808   0.12433   0.15984
 Alpha virt. eigenvalues --    0.17609   0.20982   0.22305   0.26859   0.27590
 Alpha virt. eigenvalues --    0.28254   0.29268   0.30706   0.31658   0.32188

 Mulliken charges:
               1
     1  C   -0.170423
     2  C   -0.218450
     3  C   -0.171891
     4  C    0.155738
     5  C   -0.173569
     6  C   -0.218450
     7  H    0.227701
     8  H    0.224718
     9  H    0.275111
    10  H    0.277827
    11  H    0.226757
    12  N    0.485513
    13  O   -0.456146
    14  O   -0.463034
    15  C   -0.165500
    16  C   -0.218001
    17  C   -0.171419
    18  C    0.157705
    19  C   -0.161076
    20  C   -0.202937
    21  H    0.225054
    22  H    0.220190
    23  H    0.271977
    24  H    0.267809
    25  H    0.214478
    26  N    0.488628
    27  O   -0.465298
    28  O   -0.463012
 Sum of Mulliken charges =  -0.00000

 Dipole moment (field-independent basis, Debye):
    X=              6.6808    Y=             -1.8577    Z=              3.0451  Tot=              7.5734
 Quadrupole moment (field-independent basis, Debye-Ang):
   XX=            -91.8947   YY=           -103.2257   ZZ=           -106.3160
   XY=             23.5532   XZ=              2.3826   YZ=             -1.0007

 Normal termination of Gaussian 16 at Fri May  7 09:40:43 2021.
