 Gaussian 16, Revision A.03,
 Gaussian 16:  EM64L-G16RevA.03 25-Dec-2016

 -------------
 #p 6-31g* mp2
 -------------

 ------------------------------------------------------
 Input file generated by CHIRIPA (05-May-2021 14:55:20)
 ------------------------------------------------------
 Symbolic Z-matrix:
 Charge =  0 Multiplicity = 1

                         Standard orientation:
 ---------------------------------------------------------------------
 Center     Atomic      Atomic             Coordinates (Angstroms)
 Number     Number       Type             X           Y           Z
 ---------------------------------------------------------------------
      1          6           0        0.976048    0.849223    0.901797
      2          6           0        1.011610   -0.413347    0.300821
      3          6           0        2.225256   -0.965897   -0.119060
      4          6           0        3.389441   -0.224983    0.078448
      5          6           0        3.386615    1.035370    0.674091
      6          6           0        2.161574    1.568285    1.086189
      7          1           0        0.028833    1.270831    1.224948
      8          1           0        0.092486   -0.974045    0.156344
      9          1           0        2.281557   -1.941198   -0.587073
     10          1           0        4.319395    1.570429    0.804670
     11          1           0        2.136971    2.549038    1.552626
     12          7           0        4.680305   -0.799550   -0.361942
     13          8           0        5.691980   -0.126648   -0.176588
     14          8           0        4.655968   -1.911917   -0.884133
     15          6           0       -3.427396    0.526132   -0.408407
     16          6           0       -3.568852    2.048323   -0.438603
     17          6           0       -2.282650    2.753090   -0.870784
     18          1           0       -2.611049    0.253588    0.274414
     19          1           0       -3.131796    0.172472   -1.405874
     20          1           0       -3.865443    2.398873    0.558274
     21          1           0       -4.385081    2.317266   -1.121283
     22          1           0       -1.985830    2.431724   -1.874388
     23          1           0       -1.463239    2.513793   -0.185288
     24          1           0       -2.406142    3.840471   -0.885410
     25          6           0       -4.704933   -0.192596    0.021773
     26          6           0       -4.563477   -1.714787    0.051968
     27          6           0       -5.849679   -2.419554    0.484149
     28          1           0       -5.000533    0.161064    1.019239
     29          1           0       -5.521279    0.079949   -0.661048
     30          1           0       -3.747247   -1.983730    0.734650
     31          1           0       -4.266886   -2.065337   -0.944909
     32          1           0       -6.669090   -2.180258   -0.201346
     33          1           0       -6.146498   -2.098187    1.487755
     34          1           0       -5.726186   -3.506934    0.498776
 ---------------------------------------------------------------------

 SCF Done:  E(RHF) =  -669.535296574     A.U. after   15 cycles
 E2 =    -0.2091749139D+01 EUMP2 =    -0.67162704571297D+03

 The electronic state is 1-A.
 Alpha  occ. eigenvalues --  -20.60733 -20.60728 -15.85786 -11.31151 -11.27714
 Alpha  occ. eigenvalues --  -11.27707 -11.27445 -11.26736 -11.26713 -11.22564
 Alpha  occ. eigenvalues --  -11.22469 -11.22385 -11.22217 -11.22067 -11.21685
 Alpha  occ. eigenvalues --   -1.59809  -1.39362  -1.19320  -1.09354  -1.08717
 Alpha  occ. eigenvalues --   -1.04720  -1.04392  -0.96845  -0.95555  -0.87855
 Alpha  occ. eigenvalues --   -0.86118  -0.82387  -0.80460  -0.79176  -0.77428
 Alpha  occ. eigenvalues --   -0.72005  -0.71131  -0.70467  -0.65991  -0.64971
 Alpha  occ. eigenvalues --   -0.64717  -0.62067  -0.61792  -0.60211  -0.58460
 Alpha  occ. eigenvalues --   -0.56209  -0.55204  -0.53504  -0.53276  -0.53024
 Alpha  occ. eigenvalues --   -0.52806  -0.50779  -0.48778  -0.48760  -0.48745
 Alpha  occ. eigenvalues --   -0.47494  -0.46712  -0.46617  -0.44768  -0.44660
 Alpha  occ. eigenvalues --   -0.37284  -0.36322
 Alpha virt. eigenvalues --    0.05069   0.11326   0.16450   0.18747   0.22624
 Alpha virt. eigenvalues --    0.23485   0.24878   0.25823   0.26526   0.28149
 Alpha virt. eigenvalues --    0.29186   0.30461   0.30944   0.31370   0.31677

 Mulliken charges:
               1
     1  C   -0.171132
     2  C   -0.220778
     3  C   -0.171184
     4  C    0.158830
     5  C   -0.171028
     6  C   -0.219401
     7  H    0.227802
     8  H    0.225737
     9  H    0.275522
    10  H    0.275482
    11  H    0.223417
    12  N    0.488002
    13  O   -0.460495
    14  O   -0.460499
    15  C   -0.299387
    16  C   -0.301069
    17  C   -0.477394
    18  H    0.138670
    19  H    0.152739
    20  H    0.152358
    21  H    0.156872
    22  H    0.160397
    23  H    0.145819
    24  H    0.164173
    25  C   -0.298573
    26  C   -0.300236
    27  C   -0.476137
    28  H    0.150846
    29  H    0.153373
    30  H    0.148439
    31  H    0.153066
    32  H    0.157123
    33  H    0.156230
    34  H    0.162418
 Sum of Mulliken charges =  -0.00000

 Dipole moment (field-independent basis, Debye):
    X=             -4.7741    Y=              2.0398    Z=              1.4648  Tot=              5.3943
 Quadrupole moment (field-independent basis, Debye-Ang):
   XX=           -124.5667   YY=            -92.7474   ZZ=            -93.7958
   XY=              9.6331   XZ=              6.6160   YZ=              1.4889

 Normal termination of Gaussian 16 at Thu May  6 06:07:48 2021.
