 Gaussian 16, Revision A.03,
 Gaussian 16:  EM64L-G16RevA.03 25-Dec-2016

 -------------
 #p 6-31g* mp2
 -------------

 ------------------------------------------------------
 Input file generated by CHIRIPA (05-May-2021 14:55:24)
 ------------------------------------------------------
 Symbolic Z-matrix:
 Charge =  0 Multiplicity = 1

                         Standard orientation:
 ---------------------------------------------------------------------
 Center     Atomic      Atomic             Coordinates (Angstroms)
 Number     Number       Type             X           Y           Z
 ---------------------------------------------------------------------
      1          6           0        0.288426   -2.626100    0.491259
      2          6           0        0.856986   -1.915860    1.553718
      3          6           0        1.692203   -0.821534    1.309969
      4          6           0        1.938570   -0.463349   -0.014530
      5          6           0        1.387000   -1.150975   -1.094451
      6          6           0        0.554777   -2.242068   -0.827110
      7          1           0       -0.359228   -3.474942    0.689772
      8          1           0        0.651892   -2.211844    2.578595
      9          1           0        2.145511   -0.254040    2.113635
     10          1           0        1.609970   -0.832109   -2.105405
     11          1           0        0.114604   -2.791799   -1.654206
     12          7           0        2.821192    0.693453   -0.285063
     13          8           0        3.022603    0.988910   -1.460978
     14          8           0        3.294866    1.282793    0.683930
     15          6           0       -2.151300    1.448431    0.396310
     16          6           0       -1.648269    2.653478   -0.399180
     17          6           0       -1.364862    3.868620    0.484508
     18          1           0       -3.064305    1.730246    0.938480
     19          1           0       -1.404894    1.183098    1.157803
     20          1           0       -2.394782    2.915600   -1.159855
     21          1           0       -0.736462    2.368706   -0.939671
     22          1           0       -0.603751    3.630389    1.234546
     23          1           0       -2.271494    4.180390    1.013110
     24          1           0       -1.006359    4.718536   -0.104541
     25          6           0       -2.439044    0.225819   -0.473258
     26          6           0       -2.942076   -0.979229    0.322233
     27          6           0       -3.225483   -2.194370   -0.561456
     28          1           0       -3.185452    0.491152   -1.234750
     29          1           0       -1.526040   -0.055997   -1.015427
     30          1           0       -3.853883   -0.694456    0.862723
     31          1           0       -2.195562   -1.241349    1.082908
     32          1           0       -2.318851   -2.506140   -1.090058
     33          1           0       -3.986594   -1.956140   -1.311493
     34          1           0       -3.583986   -3.044286    0.027594
 ---------------------------------------------------------------------

 SCF Done:  E(RHF) =  -669.533667612     A.U. after   15 cycles
 E2 =    -0.2096865844D+01 EUMP2 =    -0.67163053345636D+03

 The electronic state is 1-A.
 Alpha  occ. eigenvalues --  -20.60906 -20.60901 -15.85964 -11.31372 -11.27957
 Alpha  occ. eigenvalues --  -11.27945 -11.27657 -11.26950 -11.26927 -11.21939
 Alpha  occ. eigenvalues --  -11.21760 -11.21478 -11.21455 -11.21365 -11.20807
 Alpha  occ. eigenvalues --   -1.59982  -1.39534  -1.19565  -1.08972  -1.08516
 Alpha  occ. eigenvalues --   -1.04974  -1.03679  -0.96169  -0.95742  -0.87176
 Alpha  occ. eigenvalues --   -0.86358  -0.82595  -0.79762  -0.78322  -0.77635
 Alpha  occ. eigenvalues --   -0.72178  -0.71310  -0.70659  -0.65312  -0.65198
 Alpha  occ. eigenvalues --   -0.64924  -0.62327  -0.61119  -0.59555  -0.57734
 Alpha  occ. eigenvalues --   -0.55548  -0.55331  -0.53231  -0.53064  -0.52844
 Alpha  occ. eigenvalues --   -0.52563  -0.50098  -0.48940  -0.48930  -0.48057
 Alpha  occ. eigenvalues --   -0.46822  -0.45837  -0.45817  -0.44923  -0.43899
 Alpha  occ. eigenvalues --   -0.37426  -0.36469
 Alpha virt. eigenvalues --    0.04874   0.10876   0.16303   0.20351   0.22947
 Alpha virt. eigenvalues --    0.24358   0.25766   0.26629   0.27105   0.28053
 Alpha virt. eigenvalues --    0.29220   0.29951   0.31237   0.31667   0.32168

 Mulliken charges:
               1
     1  C   -0.166471
     2  C   -0.219498
     3  C   -0.171109
     4  C    0.159686
     5  C   -0.173268
     6  C   -0.218372
     7  H    0.229510
     8  H    0.224857
     9  H    0.276507
    10  H    0.276821
    11  H    0.225450
    12  N    0.487930
    13  O   -0.459967
    14  O   -0.459889
    15  C   -0.298893
    16  C   -0.300801
    17  C   -0.475829
    18  H    0.148378
    19  H    0.148756
    20  H    0.151117
    21  H    0.154522
    22  H    0.157825
    23  H    0.152777
    24  H    0.163434
    25  C   -0.301303
    26  C   -0.300552
    27  C   -0.478657
    28  H    0.148555
    29  H    0.153246
    30  H    0.152852
    31  H    0.150755
    32  H    0.146027
    33  H    0.159383
    34  H    0.156222
 Sum of Mulliken charges =  -0.00000

 Dipole moment (field-independent basis, Debye):
    X=             -2.9306    Y=             -4.0394    Z=              0.9637  Tot=              5.0827
 Quadrupole moment (field-independent basis, Debye-Ang):
   XX=           -107.0936   YY=            -92.2379   ZZ=            -90.1938
   XY=             -7.1404   XZ=              2.6396   YZ=             -0.2683

 Normal termination of Gaussian 16 at Thu May  6 12:41:05 2021.
