 Gaussian 16, Revision A.03,
 Gaussian 16:  EM64L-G16RevA.03 25-Dec-2016

 -------------
 #p 6-31g* mp2
 -------------

 ------------------------------------------------------
 Input file generated by CHIRIPA (05-May-2021 14:51:13)
 ------------------------------------------------------
 Symbolic Z-matrix:
 Charge =  0 Multiplicity = 1

                         Standard orientation:
 ---------------------------------------------------------------------
 Center     Atomic      Atomic             Coordinates (Angstroms)
 Number     Number       Type             X           Y           Z
 ---------------------------------------------------------------------
      1          6           0        2.764563   -0.026849    0.463103
      2          6           0        2.793540   -1.368620   -0.269562
      3          6           0        3.197471   -2.529868    0.639358
      4          1           0        3.755985    0.170194    0.893452
      5          1           0        2.064784   -0.093204    1.307674
      6          1           0        3.492017   -1.299322   -1.113330
      7          1           0        1.801986   -1.562402   -0.698380
      8          1           0        2.496035   -2.627614    1.474243
      9          1           0        4.195669   -2.363040    1.056936
     10          1           0        3.211687   -3.479398    0.095253
     11          6           0        2.362494    1.143762   -0.432295
     12          6           0        2.333516    2.485532    0.300370
     13          6           0        1.929585    3.646781   -0.608550
     14          1           0        3.062273    1.210117   -1.276867
     15          1           0        1.371071    0.946719   -0.862644
     16          1           0        3.325071    2.679314    0.729188
     17          1           0        1.635039    2.416235    1.144137
     18          1           0        0.931387    3.479953   -1.026128
     19          1           0        2.631021    3.744527   -1.443436
     20          1           0        1.915369    4.596311   -0.064445
     21          6           0       -1.938941   -0.996912    0.017444
     22          6           0       -2.184919   -2.437372   -0.432615
     23          6           0       -0.926006   -3.302148   -0.361268
     24          1           0       -1.151863   -0.553498   -0.607728
     25          1           0       -1.554550   -1.002325    1.046817
     26          1           0       -2.570040   -2.429170   -1.460347
     27          1           0       -2.971636   -2.877345    0.193576
     28          1           0       -0.542273   -3.340108    0.663384
     29          1           0       -0.138394   -2.889387   -0.999937
     30          1           0       -1.124516   -4.327860   -0.687413
     31          6           0       -3.188116   -0.120001   -0.048251
     32          6           0       -2.942137    1.320459    0.401808
     33          6           0       -4.201051    2.185236    0.330460
     34          1           0       -3.572507   -0.114588   -1.077625
     35          1           0       -3.975192   -0.563415    0.576920
     36          1           0       -2.155420    1.760433   -0.224383
     37          1           0       -2.557017    1.312257    1.429539
     38          1           0       -4.988662    1.772473    0.969129
     39          1           0       -4.584784    2.223196   -0.694191
     40          1           0       -4.002541    3.210946    0.656606
 ---------------------------------------------------------------------

 SCF Done:  E(RHF) =  -470.733241412     A.U. after   11 cycles
 E2 =    -0.1583917498D+01 EUMP2 =    -0.47231715890945D+03

 The electronic state is 1-A.
 Alpha  occ. eigenvalues --  -11.21675 -11.21666 -11.21573 -11.21509 -11.21493
 Alpha  occ. eigenvalues --  -11.21429 -11.21368 -11.21300 -11.21118 -11.21106
 Alpha  occ. eigenvalues --  -11.21063 -11.21002  -1.08511  -1.08380  -1.03603
 Alpha  occ. eigenvalues --   -1.03473  -0.96053  -0.95924  -0.87058  -0.86951
 Alpha  occ. eigenvalues --   -0.79680  -0.79531  -0.78355  -0.78173  -0.65196
 Alpha  occ. eigenvalues --   -0.64962  -0.61058  -0.60847  -0.59409  -0.59297
 Alpha  occ. eigenvalues --   -0.57697  -0.57510  -0.55356  -0.55202  -0.52729
 Alpha  occ. eigenvalues --   -0.52629  -0.52463  -0.52349  -0.50081  -0.49793
 Alpha  occ. eigenvalues --   -0.48101  -0.47770  -0.46842  -0.46432  -0.46146
 Alpha  occ. eigenvalues --   -0.45832  -0.45679  -0.45303  -0.43852  -0.43735
 Alpha virt. eigenvalues --    0.19781   0.22203   0.23646   0.24462   0.25511
 Alpha virt. eigenvalues --    0.26140   0.26573   0.28001   0.28376   0.29733
 Alpha virt. eigenvalues --    0.30691   0.30856   0.31819   0.32044   0.32414

 Mulliken charges:
               1
     1  C   -0.297433
     2  C   -0.306537
     3  C   -0.475079
     4  H    0.149317
     5  H    0.149899
     6  H    0.151168
     7  H    0.158441
     8  H    0.155185
     9  H    0.154623
    10  H    0.160463
    11  C   -0.300712
    12  C   -0.299569
    13  C   -0.475810
    14  H    0.149276
    15  H    0.151039
    16  H    0.151859
    17  H    0.152551
    18  H    0.154800
    19  H    0.155071
    20  H    0.160288
    21  C   -0.301836
    22  C   -0.299823
    23  C   -0.480695
    24  H    0.151971
    25  H    0.149325
    26  H    0.152116
    27  H    0.152305
    28  H    0.155939
    29  H    0.160264
    30  H    0.160743
    31  C   -0.298284
    32  C   -0.299955
    33  C   -0.475780
    34  H    0.149856
    35  H    0.150182
    36  H    0.151518
    37  H    0.151909
    38  H    0.155385
    39  H    0.155393
    40  H    0.160627
 Sum of Mulliken charges =  -0.00000

 Dipole moment (field-independent basis, Debye):
    X=             -0.0418    Y=             -0.0239    Z=              0.0036  Tot=              0.0483
 Quadrupole moment (field-independent basis, Debye-Ang):
   XX=            -84.5182   YY=            -86.0965   ZZ=            -84.0726
   XY=              1.0963   XZ=             -0.6031   YZ=              0.2384

 Normal termination of Gaussian 16 at Thu May  6 05:33:00 2021.
