 Gaussian 16, Revision A.03,
 Gaussian 16:  EM64L-G16RevA.03 25-Dec-2016

 -------------
 #p 6-31g* mp2
 -------------

 ------------------------------------------------------
 Input file generated by CHIRIPA (05-May-2021 14:57:21)
 ------------------------------------------------------
 Symbolic Z-matrix:
 Charge =  0 Multiplicity = 1

                         Standard orientation:
 ---------------------------------------------------------------------
 Center     Atomic      Atomic             Coordinates (Angstroms)
 Number     Number       Type             X           Y           Z
 ---------------------------------------------------------------------
      1          6           0        4.327916    2.489755    0.461501
      2          6           0        5.295636    1.701124   -0.169450
      3          6           0        5.052958    0.348140   -0.424575
      4          6           0        3.826124   -0.185956   -0.033538
      5          6           0        2.841935    0.573804    0.596878
      6          6           0        3.106307    1.924575    0.841981
      7          1           0        4.524860    3.539926    0.655795
      8          1           0        6.245252    2.137368   -0.466041
      9          1           0        5.784465   -0.285308   -0.911462
     10          1           0        1.904779    0.110666    0.880883
     11          1           0        2.352911    2.534634    1.332151
     12          7           0        3.557728   -1.617128   -0.298322
     13          8           0        2.468893   -2.063800    0.056019
     14          8           0        4.441278   -2.265109   -0.855187
     15          6           0       -1.542161   -0.902283    0.457759
     16          6           0       -2.580524   -1.174161    1.354646
     17          6           0       -3.874432   -0.706916    1.105585
     18          6           0       -4.095441    0.032485   -0.055333
     19          6           0       -3.081795    0.319874   -0.968143
     20          6           0       -1.795665   -0.157446   -0.698733
     21          1           0       -0.540043   -1.269163    0.659139
     22          1           0       -2.386569   -1.752361    2.253597
     23          1           0       -4.696740   -0.902827    1.782968
     24          1           0       -3.305899    0.898881   -1.855805
     25          1           0       -0.991192    0.055224   -1.397046
     26          7           0       -5.461127    0.532469   -0.329773
     27          8           0       -5.629866    1.181663   -1.359682
     28          8           0       -6.336953    0.265696    0.490226
 ---------------------------------------------------------------------

 SCF Done:  E(RHF) =  -868.339178128     A.U. after   16 cycles
 E2 =    -0.2599165259D+01 EUMP2 =    -0.87093834338688D+03

 The electronic state is 1-A.
 Alpha  occ. eigenvalues --  -20.61832 -20.61774 -20.60646 -20.60641 -15.86844
 Alpha  occ. eigenvalues --  -15.85698 -11.32060 -11.31013 -11.28671 -11.28547
 Alpha  occ. eigenvalues --  -11.28254 -11.27583 -11.27573 -11.27571 -11.27525
 Alpha  occ. eigenvalues --  -11.27193 -11.26554 -11.26534  -1.60862  -1.59724
 Alpha  occ. eigenvalues --   -1.40428  -1.39278  -1.20200  -1.19171  -1.09610
 Alpha  occ. eigenvalues --   -1.08556  -1.05581  -1.04570  -0.96480  -0.95401
 Alpha  occ. eigenvalues --   -0.86985  -0.85957  -0.83321  -0.82240  -0.78406
 Alpha  occ. eigenvalues --   -0.77314  -0.73072  -0.72174  -0.71915  -0.71303
 Alpha  occ. eigenvalues --   -0.71048  -0.70205  -0.65851  -0.65571  -0.64811
 Alpha  occ. eigenvalues --   -0.64558  -0.62942  -0.61919  -0.56058  -0.54981
 Alpha  occ. eigenvalues --   -0.53912  -0.53657  -0.52901  -0.52648  -0.49836
 Alpha  occ. eigenvalues --   -0.49782  -0.48675  -0.48668  -0.45862  -0.44696
 Alpha  occ. eigenvalues --   -0.38149  -0.37186  -0.37122  -0.36189
 Alpha virt. eigenvalues --    0.04125   0.05204   0.10465   0.11462   0.15674
 Alpha virt. eigenvalues --    0.16640   0.19568   0.21840   0.25354   0.27022
 Alpha virt. eigenvalues --    0.27561   0.28950   0.30432   0.30987   0.32589

 Mulliken charges:
               1
     1  C   -0.169984
     2  C   -0.218109
     3  C   -0.170074
     4  C    0.158498
     5  C   -0.173316
     6  C   -0.219432
     7  H    0.229045
     8  H    0.226631
     9  H    0.277608
    10  H    0.269645
    11  H    0.226707
    12  N    0.491232
    13  O   -0.473196
    14  O   -0.453930
    15  C   -0.184302
    16  C   -0.219580
    17  C   -0.171199
    18  C    0.157952
    19  C   -0.171541
    20  C   -0.221583
    21  H    0.244928
    22  H    0.224810
    23  H    0.274922
    24  H    0.274444
    25  H    0.223890
    26  N    0.488113
    27  O   -0.461321
    28  O   -0.460858
 Sum of Mulliken charges =  -0.00000

 Dipole moment (field-independent basis, Debye):
    X=              6.1345    Y=              3.3264    Z=              1.8801  Tot=              7.2271
 Quadrupole moment (field-independent basis, Debye-Ang):
   XX=           -132.0404   YY=           -106.7583   ZZ=           -101.4385
   XY=             27.5269   XZ=             -4.6530   YZ=             -1.9470

 Normal termination of Gaussian 16 at Wed May  5 20:53:13 2021.
