 Gaussian 16, Revision A.03,
 Gaussian 16:  EM64L-G16RevA.03 25-Dec-2016

 -------------
 #p 6-31g* mp2
 -------------

 ------------------------------------------------------
 Input file generated by CHIRIPA (05-May-2021 14:51:13)
 ------------------------------------------------------
 Symbolic Z-matrix:
 Charge =  0 Multiplicity = 1

                         Standard orientation:
 ---------------------------------------------------------------------
 Center     Atomic      Atomic             Coordinates (Angstroms)
 Number     Number       Type             X           Y           Z
 ---------------------------------------------------------------------
      1          6           0        2.378816   -0.485051   -0.374887
      2          6           0        2.816534   -1.732781   -1.142714
      3          6           0        1.739219   -2.817379   -1.171593
      4          1           0        2.114479   -0.768763    0.653013
      5          1           0        1.464601   -0.082977   -0.833082
      6          1           0        3.730427   -2.131587   -0.684054
      7          1           0        3.080043   -1.446036   -2.168851
      8          1           0        0.827735   -2.442401   -1.648236
      9          1           0        1.481815   -3.131847   -0.155003
     10          1           0        2.073157   -3.700281   -1.725515
     11          6           0        3.445140    0.608228   -0.337186
     12          6           0        3.007422    1.855958    0.430642
     13          6           0        4.084736    2.940556    0.459520
     14          1           0        4.359355    0.206154    0.121010
     15          1           0        3.709477    0.891940   -1.365086
     16          1           0        2.743913    1.569213    1.456778
     17          1           0        2.093528    2.254764   -0.028018
     18          1           0        4.342141    3.255025   -0.557069
     19          1           0        4.996221    2.565578    0.936164
     20          1           0        3.750799    3.823458    1.013443
     21          6           0       -2.685426   -0.669412    0.759345
     22          6           0       -1.204961   -0.627418    1.139403
     23          6           0       -0.766784   -1.850219    1.945971
     24          1           0       -3.290171   -0.743360    1.673544
     25          1           0       -2.882267   -1.581916    0.179703
     26          1           0       -1.010689    0.285427    1.716974
     27          1           0       -0.603679   -0.553368    0.224202
     28          1           0       -0.932103   -2.768714    1.373574
     29          1           0       -1.341426   -1.925153    2.874827
     30          1           0        0.294896   -1.799595    2.206996
     31          6           0       -3.138530    0.546234   -0.047273
     32          6           0       -4.618995    0.504241   -0.427331
     33          6           0       -5.057172    1.727042   -1.233899
     34          1           0       -2.941689    1.458739    0.532369
     35          1           0       -2.533784    0.620182   -0.961471
     36          1           0       -5.220277    0.430191    0.487870
     37          1           0       -4.813268   -0.408605   -1.004901
     38          1           0       -4.482530    1.801976   -2.162755
     39          1           0       -4.891852    2.645537   -0.661502
     40          1           0       -6.118851    1.676418   -1.494923
 ---------------------------------------------------------------------

 SCF Done:  E(RHF) =  -470.732264180     A.U. after   11 cycles
 E2 =    -0.1584491699D+01 EUMP2 =    -0.47231675587957D+03

 The electronic state is 1-A.
 Alpha  occ. eigenvalues --  -11.21613 -11.21597 -11.21585 -11.21448 -11.21398
 Alpha  occ. eigenvalues --  -11.21368 -11.21336 -11.21293 -11.21072 -11.21070
 Alpha  occ. eigenvalues --  -11.21064 -11.21019  -1.08465  -1.08359  -1.03569
 Alpha  occ. eigenvalues --   -1.03451  -0.95987  -0.95946  -0.87021  -0.86947
 Alpha  occ. eigenvalues --   -0.79631  -0.79540  -0.78409  -0.78044  -0.65099
 Alpha  occ. eigenvalues --   -0.65000  -0.60945  -0.60905  -0.59461  -0.59208
 Alpha  occ. eigenvalues --   -0.57682  -0.57478  -0.55339  -0.55175  -0.52694
 Alpha  occ. eigenvalues --   -0.52638  -0.52458  -0.52343  -0.49970  -0.49840
 Alpha  occ. eigenvalues --   -0.48026  -0.47815  -0.46801  -0.46516  -0.46065
 Alpha  occ. eigenvalues --   -0.45719  -0.45674  -0.45158  -0.43788  -0.43730
 Alpha virt. eigenvalues --    0.20858   0.23091   0.23467   0.24447   0.25364
 Alpha virt. eigenvalues --    0.26212   0.26728   0.27789   0.28650   0.29758
 Alpha virt. eigenvalues --    0.30787   0.31034   0.31470   0.31890   0.32456

 Mulliken charges:
               1
     1  C   -0.304567
     2  C   -0.299395
     3  C   -0.479317
     4  H    0.154818
     5  H    0.151753
     6  H    0.151781
     7  H    0.151630
     8  H    0.154175
     9  H    0.159979
    10  H    0.160143
    11  C   -0.297479
    12  C   -0.299670
    13  C   -0.475687
    14  H    0.149301
    15  H    0.149453
    16  H    0.151753
    17  H    0.152312
    18  H    0.155164
    19  H    0.155122
    20  H    0.160248
    21  C   -0.298091
    22  C   -0.305551
    23  C   -0.477994
    24  H    0.149124
    25  H    0.149244
    26  H    0.151015
    27  H    0.160857
    28  H    0.156348
    29  H    0.154588
    30  H    0.159980
    31  C   -0.297950
    32  C   -0.299568
    33  C   -0.475670
    34  H    0.149517
    35  H    0.148412
    36  H    0.152033
    37  H    0.151887
    38  H    0.154931
    39  H    0.155144
    40  H    0.160227
 Sum of Mulliken charges =  -0.00000

 Dipole moment (field-independent basis, Debye):
    X=              0.0307    Y=             -0.0049    Z=             -0.0036  Tot=              0.0313
 Quadrupole moment (field-independent basis, Debye-Ang):
   XX=            -85.4002   YY=            -85.8462   ZZ=            -83.7154
   XY=             -0.5029   XZ=             -0.1827   YZ=              0.4668

 Normal termination of Gaussian 16 at Thu May  6 02:22:04 2021.
