 Gaussian 16, Revision A.03,
 Gaussian 16:  EM64L-G16RevA.03 25-Dec-2016

 -------------
 #p 6-31g* mp2
 -------------

 ------------------------------------------------------
 Input file generated by CHIRIPA (05-May-2021 14:57:26)
 ------------------------------------------------------
 Symbolic Z-matrix:
 Charge =  0 Multiplicity = 1

                         Standard orientation:
 ---------------------------------------------------------------------
 Center     Atomic      Atomic             Coordinates (Angstroms)
 Number     Number       Type             X           Y           Z
 ---------------------------------------------------------------------
      1          6           0        3.225523   -2.287789   -0.231469
      2          6           0        2.124114   -1.750870   -0.906107
      3          6           0        1.910644   -0.369423   -0.930252
      4          6           0        2.822614    0.449499   -0.266199
      5          6           0        3.929414   -0.055211    0.414648
      6          6           0        4.123075   -1.439741    0.425597
      7          1           0        3.383657   -3.362128   -0.217838
      8          1           0        1.425424   -2.407069   -1.417263
      9          1           0        1.066298    0.072921   -1.444868
     10          1           0        4.608636    0.624268    0.915031
     11          1           0        4.979317   -1.853924    0.950334
     12          7           0        2.607109    1.913607   -0.284775
     13          8           0        3.425133    2.613679    0.307992
     14          8           0        1.624252    2.333381   -0.891751
     15          6           0       -5.078020    0.714973   -0.502223
     16          6           0       -4.722088   -0.601195   -0.814525
     17          6           0       -3.494657   -1.123214   -0.395649
     18          6           0       -2.643522   -0.297445    0.337130
     19          6           0       -2.969603    1.017885    0.664034
     20          6           0       -4.202186    1.518896    0.234760
     21          1           0       -6.033519    1.112331   -0.831655
     22          1           0       -5.400286   -1.227826   -1.386737
     23          1           0       -3.193921   -2.138620   -0.623525
     24          1           0       -2.272609    1.618372    1.235902
     25          1           0       -4.475968    2.541420    0.478754
     26          7           0       -1.341369   -0.838963    0.786079
     27          8           0       -0.609191   -0.091053    1.430427
     28          8           0       -1.077575   -2.001062    0.485117
 ---------------------------------------------------------------------

 SCF Done:  E(RHF) =  -868.339054352     A.U. after   16 cycles
 E2 =    -0.2601004320D+01 EUMP2 =    -0.87094005867128D+03

 The electronic state is 1-A.
 Alpha  occ. eigenvalues --  -20.61206 -20.61128 -20.59799 -20.59787 -15.86165
 Alpha  occ. eigenvalues --  -15.84837 -11.31328 -11.29898 -11.27931 -11.27805
 Alpha  occ. eigenvalues --  -11.27587 -11.26878 -11.26789 -11.26464 -11.26439
 Alpha  occ. eigenvalues --  -11.26136 -11.25485 -11.25341  -1.60227  -1.58864
 Alpha  occ. eigenvalues --   -1.39786  -1.38432  -1.19485  -1.18031  -1.08924
 Alpha  occ. eigenvalues --   -1.07494  -1.04849  -1.03419  -0.95792  -0.94396
 Alpha  occ. eigenvalues --   -0.86260  -0.84846  -0.82633  -0.81257  -0.77701
 Alpha  occ. eigenvalues --   -0.76338  -0.72412  -0.71583  -0.71083  -0.70590
 Alpha  occ. eigenvalues --   -0.70145  -0.69214  -0.65141  -0.64850  -0.63723
 Alpha  occ. eigenvalues --   -0.63461  -0.62193  -0.60812  -0.55369  -0.53979
 Alpha  occ. eigenvalues --   -0.53203  -0.52936  -0.51744  -0.51559  -0.49174
 Alpha  occ. eigenvalues --   -0.49091  -0.47846  -0.47807  -0.45237  -0.43908
 Alpha  occ. eigenvalues --   -0.37473  -0.36438  -0.35960  -0.34898
 Alpha virt. eigenvalues --    0.04767   0.06232   0.11217   0.12707   0.16312
 Alpha virt. eigenvalues --    0.17793   0.21368   0.22587   0.27304   0.28105
 Alpha virt. eigenvalues --    0.28542   0.29350   0.30979   0.32036   0.32583

 Mulliken charges:
               1
     1  C   -0.170898
     2  C   -0.201261
     3  C   -0.163297
     4  C    0.164567
     5  C   -0.172044
     6  C   -0.217889
     7  H    0.221690
     8  H    0.223916
     9  H    0.264830
    10  H    0.270773
    11  H    0.218297
    12  N    0.489499
    13  O   -0.464479
    14  O   -0.467054
    15  C   -0.169919
    16  C   -0.218652
    17  C   -0.172427
    18  C    0.155996
    19  C   -0.167460
    20  C   -0.218399
    21  H    0.226670
    22  H    0.223037
    23  H    0.271958
    24  H    0.281570
    25  H    0.226618
    26  N    0.485957
    27  O   -0.453021
    28  O   -0.468578
 Sum of Mulliken charges =  -0.00000

 Dipole moment (field-independent basis, Debye):
    X=             -4.1415    Y=             -3.2206    Z=             -1.3804  Tot=              5.4249
 Quadrupole moment (field-independent basis, Debye-Ang):
   XX=            -74.0362   YY=           -107.7213   ZZ=           -104.8397
   XY=            -17.1697   XZ=              5.9456   YZ=              5.3255

 Normal termination of Gaussian 16 at Fri May  7 02:02:04 2021.
