 Gaussian 16, Revision A.03,
 Gaussian 16:  EM64L-G16RevA.03 25-Dec-2016

 -------------
 #p 6-31g* mp2
 -------------

 ------------------------------------------------------
 Input file generated by CHIRIPA (05-May-2021 14:55:24)
 ------------------------------------------------------
 Symbolic Z-matrix:
 Charge =  0 Multiplicity = 1

                         Standard orientation:
 ---------------------------------------------------------------------
 Center     Atomic      Atomic             Coordinates (Angstroms)
 Number     Number       Type             X           Y           Z
 ---------------------------------------------------------------------
      1          6           0        2.567600    1.944753    0.665955
      2          6           0        3.110813    1.340932   -0.472834
      3          6           0        2.811006    0.011049   -0.782795
      4          6           0        1.960539   -0.688649    0.071851
      5          6           0        1.403620   -0.114949    1.213779
      6          6           0        1.717236    1.216170    1.504149
      7          1           0        2.805861    2.978318    0.899131
      8          1           0        3.771515    1.904335   -1.125593
      9          1           0        3.217688   -0.481029   -1.657944
     10          1           0        0.748146   -0.702118    1.845447
     11          1           0        1.293918    1.682525    2.389225
     12          7           0        1.635837   -2.097191   -0.245921
     13          8           0        0.883918   -2.692062    0.523093
     14          8           0        2.139403   -2.579663   -1.257987
     15          6           0       -2.653614    1.329264   -0.309931
     16          6           0       -1.323784    2.083870   -0.320469
     17          6           0       -1.491500    3.573039   -0.623849
     18          1           0       -3.146007    1.453267   -1.284157
     19          1           0       -3.319259    1.783850    0.436836
     20          1           0       -0.660344    1.627127   -1.066021
     21          1           0       -0.834410    1.957898    0.653830
     22          1           0       -2.132309    4.049047    0.125405
     23          1           0       -1.957254    3.716395   -1.604218
     24          1           0       -0.528526    4.093168   -0.626421
     25          6           0       -2.502364   -0.160614   -0.008081
     26          6           0       -3.832193   -0.915219    0.002458
     27          6           0       -3.664477   -2.404389    0.305837
     28          1           0       -1.836718   -0.615199   -0.754848
     29          1           0       -2.009971   -0.284616    0.966145
     30          1           0       -4.321567   -0.789248   -0.971842
     31          1           0       -4.495633   -0.458476    0.748010
     32          1           0       -3.198724   -2.547745    1.286206
     33          1           0       -3.023669   -2.880396   -0.443418
     34          1           0       -4.627452   -2.924518    0.308409
 ---------------------------------------------------------------------

 SCF Done:  E(RHF) =  -669.534190658     A.U. after   15 cycles
 E2 =    -0.2094751644D+01 EUMP2 =    -0.67162894230205D+03

 The electronic state is 1-A.
 Alpha  occ. eigenvalues --  -20.60813 -20.60798 -15.85854 -11.31222 -11.27784
 Alpha  occ. eigenvalues --  -11.27755 -11.27514 -11.26815 -11.26776 -11.21643
 Alpha  occ. eigenvalues --  -11.21377 -11.21355 -11.21325 -11.21237 -11.20501
 Alpha  occ. eigenvalues --   -1.59879  -1.39431  -1.19392  -1.08789  -1.08359
 Alpha  occ. eigenvalues --   -1.04805  -1.03420  -0.95875  -0.95619  -0.86885
 Alpha  occ. eigenvalues --   -0.86196  -0.82462  -0.79507  -0.78179  -0.77489
 Alpha  occ. eigenvalues --   -0.72073  -0.71197  -0.70495  -0.65066  -0.64997
 Alpha  occ. eigenvalues --   -0.64812  -0.62148  -0.60830  -0.59311  -0.57481
 Alpha  occ. eigenvalues --   -0.55296  -0.55157  -0.53232  -0.52904  -0.52528
 Alpha  occ. eigenvalues --   -0.52258  -0.49808  -0.48834  -0.48829  -0.47763
 Alpha  occ. eigenvalues --   -0.46567  -0.45710  -0.45619  -0.44791  -0.43691
 Alpha  occ. eigenvalues --   -0.37346  -0.36254
 Alpha virt. eigenvalues --    0.05004   0.11153   0.16413   0.20712   0.23064
 Alpha virt. eigenvalues --    0.24174   0.25667   0.26904   0.27682   0.28212
 Alpha virt. eigenvalues --    0.29240   0.30145   0.31509   0.31716   0.32079

 Mulliken charges:
               1
     1  C   -0.169517
     2  C   -0.218382
     3  C   -0.172090
     4  C    0.158635
     5  C   -0.166066
     6  C   -0.218116
     7  H    0.225701
     8  H    0.223618
     9  H    0.275552
    10  H    0.275699
    11  H    0.223245
    12  N    0.487831
    13  O   -0.459736
    14  O   -0.460704
    15  C   -0.298354
    16  C   -0.299455
    17  C   -0.475259
    18  H    0.150099
    19  H    0.147227
    20  H    0.153799
    21  H    0.148734
    22  H    0.153866
    23  H    0.156928
    24  H    0.153531
    25  C   -0.296576
    26  C   -0.300401
    27  C   -0.475424
    28  H    0.152962
    29  H    0.143952
    30  H    0.151481
    31  H    0.148997
    32  H    0.156709
    33  H    0.163771
    34  H    0.157747
 Sum of Mulliken charges =  -0.00000

 Dipole moment (field-independent basis, Debye):
    X=              1.2158    Y=              4.8120    Z=              1.0942  Tot=              5.0824
 Quadrupole moment (field-independent basis, Debye-Ang):
   XX=            -89.3779   YY=           -103.6427   ZZ=            -90.5698
   XY=              9.5354   XZ=             -0.3781   YZ=             -0.1738

 Normal termination of Gaussian 16 at Thu May  6 16:02:08 2021.
