 Gaussian 16, Revision A.03,
 Gaussian 16:  EM64L-G16RevA.03 25-Dec-2016

 -------------
 #p 6-31g* mp2
 -------------

 ------------------------------------------------------
 Input file generated by CHIRIPA (05-May-2021 14:51:08)
 ------------------------------------------------------
 Symbolic Z-matrix:
 Charge =  0 Multiplicity = 1

                         Standard orientation:
 ---------------------------------------------------------------------
 Center     Atomic      Atomic             Coordinates (Angstroms)
 Number     Number       Type             X           Y           Z
 ---------------------------------------------------------------------
      1          6           0       -3.941174    0.078209   -0.628878
      2          6           0       -5.192965   -0.538404   -0.003745
      3          6           0       -6.054507   -1.286867   -1.021263
      4          1           0       -4.240554    0.764182   -1.433091
      5          1           0       -3.346237   -0.715985   -1.100789
      6          1           0       -5.784671    0.256526    0.468045
      7          1           0       -4.890579   -1.222844    0.799200
      8          1           0       -5.485378   -2.099436   -1.484322
      9          1           0       -6.384550   -0.611661   -1.817359
     10          1           0       -6.944045   -1.719659   -0.552996
     11          6           0       -3.069688    0.829805    0.375783
     12          6           0       -1.817897    1.446418   -0.249350
     13          6           0       -0.956355    2.194881    0.768167
     14          1           0       -3.664625    1.623999    0.847694
     15          1           0       -2.770308    0.143831    1.179996
     16          1           0       -2.120283    2.130858   -1.052296
     17          1           0       -1.226191    0.651487   -0.721140
     18          1           0       -0.626312    1.519675    1.564264
     19          1           0       -1.525484    3.007450    1.231227
     20          1           0       -0.066817    2.627673    0.299901
     21          6           0        3.036609   -0.940275    0.483173
     22          6           0        1.631016   -0.378704    0.699811
     23          6           0        0.704763   -1.363172    1.414425
     24          1           0        2.967633   -1.869513   -0.098808
     25          1           0        3.469254   -1.212106    1.455963
     26          1           0        1.201684   -0.106726   -0.272978
     27          1           0        1.703362    0.549408    1.281180
     28          1           0        1.107453   -1.626520    2.397832
     29          1           0        0.602926   -2.286381    0.834842
     30          1           0       -0.294752   -0.941350    1.558980
     31          6           0        3.974253    0.032260   -0.230078
     32          6           0        5.379846   -0.529309   -0.446716
     33          6           0        6.306099    0.455158   -1.161329
     34          1           0        3.541608    0.304092   -1.202869
     35          1           0        4.043228    0.961500    0.351903
     36          1           0        5.307500   -1.457421   -1.028086
     37          1           0        5.809177   -0.801288    0.526073
     38          1           0        6.407936    1.378368   -0.581747
     39          1           0        5.903409    0.718506   -2.144737
     40          1           0        7.305613    0.033336   -1.305884
 ---------------------------------------------------------------------

 SCF Done:  E(RHF) =  -470.732061532     A.U. after   11 cycles
 E2 =    -0.1584492853D+01 EUMP2 =    -0.47231655438598D+03

 The electronic state is 1-A.
 Alpha  occ. eigenvalues --  -11.21602 -11.21594 -11.21565 -11.21559 -11.21404
 Alpha  occ. eigenvalues --  -11.21401 -11.21344 -11.21340 -11.21112 -11.21072
 Alpha  occ. eigenvalues --  -11.21065 -11.20968  -1.08471  -1.08385  -1.03637
 Alpha  occ. eigenvalues --   -1.03420  -0.96064  -0.95894  -0.87023  -0.86968
 Alpha  occ. eigenvalues --   -0.79627  -0.79556  -0.78258  -0.78229  -0.65128
 Alpha  occ. eigenvalues --   -0.65040  -0.61124  -0.60944  -0.59336  -0.59240
 Alpha  occ. eigenvalues --   -0.57592  -0.57566  -0.55301  -0.55155  -0.52691
 Alpha  occ. eigenvalues --   -0.52669  -0.52465  -0.52312  -0.49982  -0.49872
 Alpha  occ. eigenvalues --   -0.47921  -0.47861  -0.46891  -0.46403  -0.45847
 Alpha  occ. eigenvalues --   -0.45784  -0.45713  -0.45509  -0.43791  -0.43744
 Alpha virt. eigenvalues --    0.20391   0.23046   0.23647   0.25442   0.25762
 Alpha virt. eigenvalues --    0.26183   0.26670   0.27533   0.28092   0.29224
 Alpha virt. eigenvalues --    0.30343   0.30982   0.31242   0.31763   0.32496

 Mulliken charges:
               1
     1  C   -0.298156
     2  C   -0.299725
     3  C   -0.475713
     4  H    0.149663
     5  H    0.149607
     6  H    0.151910
     7  H    0.152119
     8  H    0.155192
     9  H    0.155119
    10  H    0.160267
    11  C   -0.300983
    12  C   -0.304030
    13  C   -0.477593
    14  H    0.149835
    15  H    0.150871
    16  H    0.152162
    17  H    0.155423
    18  H    0.159126
    19  H    0.154183
    20  H    0.160709
    21  C   -0.298039
    22  C   -0.302575
    23  C   -0.482732
    24  H    0.149174
    25  H    0.149336
    26  H    0.154583
    27  H    0.154982
    28  H    0.155609
    29  H    0.155216
    30  H    0.164560
    31  C   -0.298308
    32  C   -0.299600
    33  C   -0.475718
    34  H    0.149338
    35  H    0.149699
    36  H    0.151916
    37  H    0.151957
    38  H    0.155203
    39  H    0.155154
    40  H    0.160261
 Sum of Mulliken charges =  -0.00000

 Dipole moment (field-independent basis, Debye):
    X=              0.0138    Y=              0.0092    Z=              0.0024  Tot=              0.0167
 Quadrupole moment (field-independent basis, Debye-Ang):
   XX=            -85.6699   YY=            -84.6694   ZZ=            -84.5583
   XY=             -1.1559   XZ=              0.3512   YZ=              0.1450

 Normal termination of Gaussian 16 at Wed May  5 18:06:37 2021.
