 Gaussian 16, Revision A.03,
 Gaussian 16:  EM64L-G16RevA.03 25-Dec-2016

 -------------
 #p 6-31g* mp2
 -------------

 ------------------------------------------------------
 Input file generated by CHIRIPA (05-May-2021 14:53:12)
 ------------------------------------------------------
 Symbolic Z-matrix:
 Charge =  0 Multiplicity = 1

                         Standard orientation:
 ---------------------------------------------------------------------
 Center     Atomic      Atomic             Coordinates (Angstroms)
 Number     Number       Type             X           Y           Z
 ---------------------------------------------------------------------
      1          6           0       -5.595545   -0.309229   -0.025389
      2          6           0       -6.280181    0.719871   -0.925506
      3          6           0       -7.800452    0.559815   -0.956368
      4          1           0       -5.852347   -1.319327   -0.372806
      5          1           0       -5.995521   -0.218192    0.993987
      6          1           0       -5.878036    0.627850   -1.942574
      7          1           0       -6.021565    1.727638   -0.576022
      8          1           0       -8.220186    0.672758    0.048454
      9          1           0       -8.075841   -0.433279   -1.325862
     10          1           0       -8.269544    1.305524   -1.605777
     11          6           0       -4.075553   -0.162081    0.015833
     12          6           0       -3.390917   -1.191181    0.915950
     13          6           0       -1.870646   -1.031125    0.946812
     14          1           0       -3.675577   -0.253119   -1.003543
     15          1           0       -3.818751    0.848017    0.363250
     16          1           0       -3.649533   -2.198948    0.566465
     17          1           0       -3.793062   -1.099160    1.933018
     18          1           0       -1.595257   -0.038031    1.316306
     19          1           0       -1.450912   -1.144068   -0.058010
     20          1           0       -1.401554   -1.776834    1.596220
     21          6           0        1.682146    1.097397    1.071521
     22          6           0        2.719677    1.964071    0.712458
     23          6           0        3.885352    1.469129    0.120190
     24          6           0        3.980370    0.095811   -0.099497
     25          6           0        2.964067   -0.793182    0.247069
     26          6           0        1.807432   -0.276042    0.838091
     27          1           0        0.780133    1.490502    1.531125
     28          1           0        2.625136    3.031158    0.892550
     29          1           0        4.703941    2.117573   -0.167647
     30          1           0        3.087360   -1.852107    0.054988
     31          1           0        1.003282   -0.951471    1.115911
     32          7           0        5.209633   -0.439912   -0.725846
     33          8           0        5.268818   -1.653858   -0.908789
     34          8           0        6.090669    0.364279   -1.021974
 ---------------------------------------------------------------------

 SCF Done:  E(RHF) =  -669.535363123     A.U. after   15 cycles
 E2 =    -0.2091382735D+01 EUMP2 =    -0.67162674585832D+03

 The electronic state is 1-A.
 Alpha  occ. eigenvalues --  -20.60685 -20.60679 -15.85735 -11.31076 -11.27643
 Alpha  occ. eigenvalues --  -11.27615 -11.27362 -11.26662 -11.26554 -11.22545
 Alpha  occ. eigenvalues --  -11.22411 -11.22149 -11.22101 -11.21967 -11.21481
 Alpha  occ. eigenvalues --   -1.59760  -1.39315  -1.19238  -1.09155  -1.08638
 Alpha  occ. eigenvalues --   -1.04639  -1.04299  -0.96793  -0.95479  -0.87841
 Alpha  occ. eigenvalues --   -0.86021  -0.82312  -0.80394  -0.78920  -0.77357
 Alpha  occ. eigenvalues --   -0.71954  -0.71083  -0.70356  -0.65778  -0.64887
 Alpha  occ. eigenvalues --   -0.64644  -0.62003  -0.61695  -0.60175  -0.58359
 Alpha  occ. eigenvalues --   -0.56087  -0.55134  -0.53609  -0.53240  -0.52943
 Alpha  occ. eigenvalues --   -0.52587  -0.50721  -0.48730  -0.48712  -0.48662
 Alpha  occ. eigenvalues --   -0.47384  -0.46474  -0.46364  -0.44726  -0.44536
 Alpha  occ. eigenvalues --   -0.37216  -0.36234
 Alpha virt. eigenvalues --    0.05161   0.11376   0.16649   0.20193   0.22307
 Alpha virt. eigenvalues --    0.23768   0.25318   0.25905   0.26503   0.27354
 Alpha virt. eigenvalues --    0.28862   0.29480   0.30828   0.31603   0.32230

 Mulliken charges:
               1
     1  C   -0.299042
     2  C   -0.300100
     3  C   -0.476101
     4  H    0.151381
     5  H    0.150275
     6  H    0.153055
     7  H    0.151739
     8  H    0.155592
     9  H    0.156186
    10  H    0.161685
    11  C   -0.299106
    12  C   -0.300009
    13  C   -0.484250
    14  H    0.151705
    15  H    0.148193
    16  H    0.156252
    17  H    0.154336
    18  H    0.149578
    19  H    0.160843
    20  H    0.158373
    21  C   -0.174563
    22  C   -0.218528
    23  C   -0.171534
    24  C    0.158867
    25  C   -0.173122
    26  C   -0.223976
    27  H    0.225628
    28  H    0.222783
    29  H    0.275054
    30  H    0.275317
    31  H    0.237046
    32  N    0.488006
    33  O   -0.460732
    34  O   -0.460829
 Sum of Mulliken charges =  -0.00000

 Dipole moment (field-independent basis, Debye):
    X=             -4.6190    Y=              1.8407    Z=              2.1687  Tot=              5.4246
 Quadrupole moment (field-independent basis, Debye-Ang):
   XX=           -129.6635   YY=            -89.7521   ZZ=            -95.4618
   XY=              9.2311   XZ=              9.0433   YZ=              0.2788

 Normal termination of Gaussian 16 at Wed May  5 23:20:55 2021.
