 Gaussian 16, Revision A.03,
 Gaussian 16:  EM64L-G16RevA.03 25-Dec-2016

 -------------
 #p 6-31g* mp2
 -------------

 ------------------------------------------------------
 Input file generated by CHIRIPA (05-May-2021 14:51:09)
 ------------------------------------------------------
 Symbolic Z-matrix:
 Charge =  0 Multiplicity = 1

                         Standard orientation:
 ---------------------------------------------------------------------
 Center     Atomic      Atomic             Coordinates (Angstroms)
 Number     Number       Type             X           Y           Z
 ---------------------------------------------------------------------
      1          6           0        2.097888   -1.496643   -0.323771
      2          6           0        0.748615   -2.071224   -0.756558
      3          6           0        0.870547   -3.463293   -1.377099
      4          1           0        2.767336   -1.454453   -1.193831
      5          1           0        2.565583   -2.180977    0.397577
      6          1           0        0.282979   -1.385330   -1.475827
      7          1           0        0.082238   -2.111873    0.114594
      8          1           0        1.311990   -4.166052   -0.663054
      9          1           0        1.513872   -3.435380   -2.262511
     10          1           0       -0.105707   -3.855050   -1.679284
     11          6           0        1.992401   -0.105442    0.298450
     12          6           0        3.341674    0.469140    0.731236
     13          6           0        3.219742    1.861208    1.351777
     14          1           0        1.524706    0.578892   -0.422899
     15          1           0        1.322952   -0.147632    1.168509
     16          1           0        4.008051    0.509788   -0.139915
     17          1           0        3.807310   -0.216755    1.450505
     18          1           0        2.576417    1.833295    2.237190
     19          1           0        2.778299    2.563967    0.637733
     20          1           0        4.195995    2.252965    1.653963
     21          6           0       -2.390767    0.121188   -0.029459
     22          6           0       -2.661207   -0.507305    1.337963
     23          6           0       -3.353060   -1.867076    1.237180
     24          1           0       -3.340943    0.230800   -0.569919
     25          1           0       -1.770319   -0.563780   -0.623816
     26          1           0       -3.279808    0.179251    1.930069
     27          1           0       -1.710299   -0.615258    1.875306
     28          1           0       -2.737087   -2.571543    0.668935
     29          1           0       -4.315513   -1.772520    0.724009
     30          1           0       -3.536841   -2.298295    2.226188
     31          6           0       -1.699522    1.480898    0.054781
     32          6           0       -1.429081    2.109390   -1.312642
     33          6           0       -0.737228    3.469161   -1.211859
     34          1           0       -2.319970    2.165864    0.649137
     35          1           0       -0.749345    1.371285    0.595240
     36          1           0       -2.379989    2.217343   -1.849984
     37          1           0       -0.810481    1.422834   -1.904748
     38          1           0        0.225224    3.374604   -0.698688
     39          1           0       -1.353201    4.173628   -0.643614
     40          1           0       -0.553447    3.900380   -2.200866
 ---------------------------------------------------------------------

 SCF Done:  E(RHF) =  -470.731816129     A.U. after   11 cycles
 E2 =    -0.1586663156D+01 EUMP2 =    -0.47231847928508D+03

 The electronic state is 1-A.
 Alpha  occ. eigenvalues --  -11.21727 -11.21703 -11.21560 -11.21540 -11.21532
 Alpha  occ. eigenvalues --  -11.21472 -11.21208 -11.21175 -11.21167 -11.21135
 Alpha  occ. eigenvalues --  -11.21056 -11.21040  -1.08603  -1.08291  -1.03666
 Alpha  occ. eigenvalues --   -1.03466  -0.96098  -0.95909  -0.87129  -0.86917
 Alpha  occ. eigenvalues --   -0.79772  -0.79541  -0.78425  -0.78109  -0.65218
 Alpha  occ. eigenvalues --   -0.64965  -0.61069  -0.60906  -0.59447  -0.59279
 Alpha  occ. eigenvalues --   -0.57746  -0.57497  -0.55385  -0.55208  -0.52781
 Alpha  occ. eigenvalues --   -0.52632  -0.52545  -0.52341  -0.50069  -0.49829
 Alpha  occ. eigenvalues --   -0.48231  -0.47779  -0.46772  -0.46664  -0.46293
 Alpha  occ. eigenvalues --   -0.45906  -0.45334  -0.45111  -0.43896  -0.43690
 Alpha virt. eigenvalues --    0.19555   0.21092   0.22987   0.23771   0.25105
 Alpha virt. eigenvalues --    0.25507   0.26887   0.28032   0.28604   0.30404
 Alpha virt. eigenvalues --    0.30510   0.31275   0.31727   0.32103   0.32427

 Mulliken charges:
               1
     1  C   -0.297319
     2  C   -0.308818
     3  C   -0.475662
     4  H    0.150076
     5  H    0.150012
     6  H    0.155193
     7  H    0.157296
     8  H    0.155753
     9  H    0.155693
    10  H    0.160662
    11  C   -0.305856
    12  C   -0.299248
    13  C   -0.478605
    14  H    0.154954
    15  H    0.151572
    16  H    0.152381
    17  H    0.152378
    18  H    0.155650
    19  H    0.156917
    20  H    0.161213
    21  C   -0.305703
    22  C   -0.300764
    23  C   -0.477394
    24  H    0.148254
    25  H    0.159886
    26  H    0.151999
    27  H    0.150845
    28  H    0.155919
    29  H    0.155449
    30  H    0.159799
    31  C   -0.303466
    32  C   -0.301327
    33  C   -0.478632
    34  H    0.148527
    35  H    0.156838
    36  H    0.152147
    37  H    0.151083
    38  H    0.156696
    39  H    0.155796
    40  H    0.159804
 Sum of Mulliken charges =  -0.00000

 Dipole moment (field-independent basis, Debye):
    X=              0.0897    Y=             -0.0454    Z=             -0.0054  Tot=              0.1007
 Quadrupole moment (field-independent basis, Debye-Ang):
   XX=            -84.2431   YY=            -86.4051   ZZ=            -84.1881
   XY=             -0.9176   XZ=             -0.0745   YZ=             -0.6700

 Normal termination of Gaussian 16 at Wed May  5 19:44:46 2021.
