 Gaussian 16, Revision A.03,
 Gaussian 16:  EM64L-G16RevA.03 25-Dec-2016

 -------------
 #p 6-31g* mp2
 -------------

 ------------------------------------------------------
 Input file generated by CHIRIPA (05-May-2021 14:55:18)
 ------------------------------------------------------
 Symbolic Z-matrix:
 Charge =  0 Multiplicity = 1

                         Standard orientation:
 ---------------------------------------------------------------------
 Center     Atomic      Atomic             Coordinates (Angstroms)
 Number     Number       Type             X           Y           Z
 ---------------------------------------------------------------------
      1          6           0       -1.162937   -2.020553    1.064798
      2          6           0       -0.640828   -1.032410    0.223671
      3          6           0       -1.483667   -0.090180   -0.373299
      4          6           0       -2.849741   -0.165816   -0.106072
      5          6           0       -3.400151   -1.138323    0.727338
      6          6           0       -2.538507   -2.070268    1.313509
      7          1           0       -0.500896   -2.748505    1.524345
      8          1           0        0.427047   -0.991386    0.028722
      9          1           0       -1.106131    0.685401   -1.028554
     10          1           0       -4.468989   -1.153777    0.902735
     11          1           0       -2.946780   -2.836563    1.966311
     12          7           0       -3.751970    0.826236   -0.732341
     13          8           0       -4.951829    0.738122   -0.480925
     14          8           0       -3.242194    1.673137   -1.462768
     15          6           0        3.994987   -0.013007   -0.321216
     16          6           0        3.584125   -1.478640   -0.466474
     17          6           0        4.670155   -2.335237   -1.118066
     18          1           0        4.238542    0.392893   -1.312615
     19          1           0        4.916051    0.044971    0.275168
     20          1           0        2.663346   -1.533736   -1.061239
     21          1           0        3.341336   -1.881044    0.525363
     22          1           0        5.589110   -2.310035   -0.523519
     23          1           0        4.907268   -1.960754   -2.119137
     24          1           0        4.355464   -3.379260   -1.212129
     25          6           0        2.919681    0.856063    0.328524
     26          6           0        3.330543    2.321695    0.473782
     27          6           0        2.244514    3.178294    1.125375
     28          1           0        1.998617    0.798086   -0.267859
     29          1           0        2.676127    0.450163    1.319922
     30          1           0        3.573332    2.724100   -0.518055
     31          1           0        4.251322    2.376793    1.068548
     32          1           0        2.007400    2.803810    2.126444
     33          1           0        1.325558    3.153090    0.530827
     34          1           0        2.559205    4.222315    1.219438
 ---------------------------------------------------------------------

 SCF Done:  E(RHF) =  -669.535174476     A.U. after   15 cycles
 E2 =    -0.2092392853D+01 EUMP2 =    -0.67162756732909D+03

 The electronic state is 1-A.
 Alpha  occ. eigenvalues --  -20.60701 -20.60696 -15.85752 -11.31095 -11.27655
 Alpha  occ. eigenvalues --  -11.27641 -11.27370 -11.26675 -11.26557 -11.22695
 Alpha  occ. eigenvalues --  -11.22363 -11.22247 -11.22208 -11.21889 -11.21492
 Alpha  occ. eigenvalues --   -1.59776  -1.39331  -1.19253  -1.09318  -1.08650
 Alpha  occ. eigenvalues --   -1.04650  -1.04302  -0.96723  -0.95495  -0.87737
 Alpha  occ. eigenvalues --   -0.86053  -0.82337  -0.80402  -0.79194  -0.77361
 Alpha  occ. eigenvalues --   -0.71971  -0.71098  -0.70368  -0.65966  -0.64901
 Alpha  occ. eigenvalues --   -0.64640  -0.62010  -0.61690  -0.60110  -0.58349
 Alpha  occ. eigenvalues --   -0.55992  -0.55155  -0.53413  -0.53173  -0.52972
 Alpha  occ. eigenvalues --   -0.52727  -0.50664  -0.48752  -0.48729  -0.48680
 Alpha  occ. eigenvalues --   -0.47434  -0.46605  -0.46578  -0.44742  -0.44581
 Alpha  occ. eigenvalues --   -0.37232  -0.36244
 Alpha virt. eigenvalues --    0.05139   0.11367   0.16610   0.19702   0.22643
 Alpha virt. eigenvalues --    0.23187   0.24667   0.25555   0.27074   0.28226
 Alpha virt. eigenvalues --    0.29388   0.30741   0.31092   0.31286   0.31788

 Mulliken charges:
               1
     1  C   -0.174024
     2  C   -0.226755
     3  C   -0.174963
     4  C    0.159083
     5  C   -0.171620
     6  C   -0.218260
     7  H    0.225511
     8  H    0.239879
     9  H    0.274175
    10  H    0.275138
    11  H    0.222835
    12  N    0.488168
    13  O   -0.460733
    14  O   -0.460928
    15  C   -0.297860
    16  C   -0.305501
    17  C   -0.475305
    18  H    0.153680
    19  H    0.153552
    20  H    0.148089
    21  H    0.148645
    22  H    0.158227
    23  H    0.158886
    24  H    0.161375
    25  C   -0.302420
    26  C   -0.300178
    27  C   -0.476583
    28  H    0.142334
    29  H    0.149675
    30  H    0.154931
    31  H    0.154200
    32  H    0.155707
    33  H    0.157051
    34  H    0.163990
 Sum of Mulliken charges =  -0.00000

 Dipole moment (field-independent basis, Debye):
    X=              3.4566    Y=             -3.4058    Z=              2.2149  Tot=              5.3342
 Quadrupole moment (field-independent basis, Debye-Ang):
   XX=           -109.4129   YY=            -93.3809   ZZ=            -94.1700
   XY=             11.9817   XZ=             -8.1714   YZ=             -1.5698

 Normal termination of Gaussian 16 at Thu May  6 17:21:27 2021.
