 Gaussian 16, Revision A.03,
 Gaussian 16:  EM64L-G16RevA.03 25-Dec-2016

 -------------
 #p 6-31g* mp2
 -------------

 ------------------------------------------------------
 Input file generated by CHIRIPA (05-May-2021 14:57:23)
 ------------------------------------------------------
 Symbolic Z-matrix:
 Charge =  0 Multiplicity = 1

                         Standard orientation:
 ---------------------------------------------------------------------
 Center     Atomic      Atomic             Coordinates (Angstroms)
 Number     Number       Type             X           Y           Z
 ---------------------------------------------------------------------
      1          6           0       -6.396346    0.190037   -0.854379
      2          6           0       -5.590461    1.290887   -0.545834
      3          6           0       -4.320613    1.107762    0.009592
      4          6           0       -3.886343   -0.195920    0.244352
      5          6           0       -4.665800   -1.312970   -0.052186
      6          6           0       -5.932262   -1.106093   -0.607006
      7          1           0       -7.381479    0.341518   -1.285612
      8          1           0       -5.948276    2.298618   -0.736865
      9          1           0       -3.676019    1.942139    0.258051
     10          1           0       -4.281719   -2.305524    0.149648
     11          1           0       -6.555952   -1.962900   -0.845621
     12          7           0       -2.543804   -0.402359    0.832036
     13          8           0       -2.184339   -1.561038    1.029230
     14          8           0       -1.876408    0.598422    1.084341
     15          6           0        2.293060    1.912553   -0.055104
     16          6           0        1.959941    0.569051   -0.256494
     17          6           0        2.957067   -0.409461   -0.309428
     18          6           0        4.283034   -0.007351   -0.156426
     19          6           0        4.646736    1.323141    0.045570
     20          6           0        3.633032    2.284654    0.095021
     21          1           0        1.512029    2.666082   -0.015336
     22          1           0        0.920142    0.277171   -0.373400
     23          1           0        2.727244   -1.456676   -0.464149
     24          1           0        5.692110    1.583522    0.158766
     25          1           0        3.894678    3.327288    0.251548
     26          7           0        5.347421   -1.034260   -0.210622
     27          8           0        6.508128   -0.654183   -0.073006
     28          8           0        5.000827   -2.199783   -0.389689
 ---------------------------------------------------------------------

 SCF Done:  E(RHF) =  -868.339870522     A.U. after   16 cycles
 E2 =    -0.2598372128D+01 EUMP2 =    -0.87093824265004D+03

 The electronic state is 1-A.
 Alpha  occ. eigenvalues --  -20.61804 -20.61762 -20.59976 -20.59965 -15.86808
 Alpha  occ. eigenvalues --  -15.85017 -11.31923 -11.30212 -11.28483 -11.28437
 Alpha  occ. eigenvalues --  -11.28144 -11.27421 -11.27391 -11.26795 -11.26666
 Alpha  occ. eigenvalues --  -11.26412 -11.25802 -11.25540  -1.60852  -1.59052
 Alpha  occ. eigenvalues --   -1.40410  -1.38610  -1.20070  -1.18347  -1.09509
 Alpha  occ. eigenvalues --   -1.07769  -1.05433  -1.03709  -0.96385  -0.94640
 Alpha  occ. eigenvalues --   -0.86842  -0.85108  -0.83224  -0.81470  -0.78305
 Alpha  occ. eigenvalues --   -0.76546  -0.73025  -0.72162  -0.71241  -0.71170
 Alpha  occ. eigenvalues --   -0.70371  -0.69451  -0.65723  -0.65429  -0.63989
 Alpha  occ. eigenvalues --   -0.63677  -0.62784  -0.61049  -0.55935  -0.54209
 Alpha  occ. eigenvalues --   -0.53776  -0.53519  -0.52067  -0.51784  -0.49794
 Alpha  occ. eigenvalues --   -0.49756  -0.48005  -0.47980  -0.45863  -0.44054
 Alpha  occ. eigenvalues --   -0.38031  -0.37025  -0.36318  -0.35307
 Alpha virt. eigenvalues --    0.04181   0.05958   0.10634   0.12348   0.15727
 Alpha virt. eigenvalues --    0.17510   0.20807   0.22540   0.26737   0.27642
 Alpha virt. eigenvalues --    0.28496   0.29313   0.30418   0.31878   0.32090

 Mulliken charges:
               1
     1  C   -0.169740
     2  C   -0.218358
     3  C   -0.171003
     4  C    0.157566
     5  C   -0.170364
     6  C   -0.218421
     7  H    0.228175
     8  H    0.224997
     9  H    0.273412
    10  H    0.277346
    11  H    0.226194
    12  N    0.487533
    13  O   -0.456295
    14  O   -0.467919
    15  C   -0.171340
    16  C   -0.217638
    17  C   -0.172631
    18  C    0.158000
    19  C   -0.173075
    20  C   -0.219067
    21  H    0.225572
    22  H    0.237309
    23  H    0.275687
    24  H    0.271980
    25  H    0.219154
    26  N    0.488145
    27  O   -0.463720
    28  O   -0.461495
 Sum of Mulliken charges =  -0.00000

 Dipole moment (field-independent basis, Debye):
    X=             -9.0729    Y=              4.2396    Z=             -1.8846  Tot=             10.1904
 Quadrupole moment (field-independent basis, Debye-Ang):
   XX=            -98.7729   YY=            -98.1189   ZZ=           -107.5084
   XY=             17.2765   XZ=              9.3623   YZ=              0.7151

 Normal termination of Gaussian 16 at Thu May  6 17:57:16 2021.
