 Gaussian 16, Revision A.03,
 Gaussian 16:  EM64L-G16RevA.03 25-Dec-2016

 -------------
 #p 6-31g* mp2
 -------------

 ------------------------------------------------------
 Input file generated by CHIRIPA (05-May-2021 14:53:13)
 ------------------------------------------------------
 Symbolic Z-matrix:
 Charge =  0 Multiplicity = 1

                         Standard orientation:
 ---------------------------------------------------------------------
 Center     Atomic      Atomic             Coordinates (Angstroms)
 Number     Number       Type             X           Y           Z
 ---------------------------------------------------------------------
      1          6           0        3.125341   -0.784115    0.088234
      2          6           0        2.749955   -1.348961    1.458643
      3          6           0        1.763559   -2.513690    1.367959
      4          1           0        2.213183   -0.454640   -0.427866
      5          1           0        3.559017   -1.586201   -0.524936
      6          1           0        2.318388   -0.545726    2.069526
      7          1           0        3.663133   -1.676953    1.971618
      8          1           0        2.189024   -3.334020    0.780900
      9          1           0        0.836639   -2.196365    0.879363
     10          1           0        1.508894   -2.902192    2.358955
     11          6           0        4.110752    0.380872    0.162396
     12          6           0        4.486137    0.945718   -1.208012
     13          6           0        5.472534    2.110447   -1.117329
     14          1           0        3.677075    1.182958    0.775566
     15          1           0        5.022910    0.051397    0.678496
     16          1           0        3.572960    1.273710   -1.720988
     17          1           0        4.917704    0.142483   -1.818895
     18          1           0        6.399453    1.793121   -0.628733
     19          1           0        5.047068    2.930777   -0.530270
     20          1           0        5.727199    2.498949   -2.108324
     21          6           0       -3.169045    2.361381    1.081774
     22          6           0       -4.061191    1.955541    0.083830
     23          6           0       -3.881228    0.736450   -0.576456
     24          6           0       -2.793492   -0.055545   -0.211949
     25          6           0       -1.887357    0.321180    0.778146
     26          6           0       -2.086884    1.544346    1.425141
     27          1           0       -3.316444    3.309982    1.589539
     28          1           0       -4.902495    2.588023   -0.184905
     29          1           0       -4.556660    0.397888   -1.352719
     30          1           0       -1.058012   -0.330787    1.024203
     31          1           0       -1.392435    1.856972    2.199771
     32          7           0       -2.592618   -1.348298   -0.903930
     33          8           0       -1.626462   -2.027914   -0.564366
     34          8           0       -3.405132   -1.657465   -1.772765
 ---------------------------------------------------------------------

 SCF Done:  E(RHF) =  -669.535850467     A.U. after   15 cycles
 E2 =    -0.2091579009D+01 EUMP2 =    -0.67162742947585D+03

 The electronic state is 1-A.
 Alpha  occ. eigenvalues --  -20.60895 -20.60889 -15.85937 -11.31272 -11.27837
 Alpha  occ. eigenvalues --  -11.27833 -11.27576 -11.26849 -11.26839 -11.21537
 Alpha  occ. eigenvalues --  -11.21455 -11.21329 -11.21188 -11.21062 -11.20531
 Alpha  occ. eigenvalues --   -1.59962  -1.39518  -1.19443  -1.08843  -1.08309
 Alpha  occ. eigenvalues --   -1.04842  -1.03373  -0.95801  -0.95675  -0.86799
 Alpha  occ. eigenvalues --   -0.86242  -0.82518  -0.79432  -0.78116  -0.77566
 Alpha  occ. eigenvalues --   -0.72164  -0.71277  -0.70553  -0.65102  -0.64982
 Alpha  occ. eigenvalues --   -0.64822  -0.62207  -0.60769  -0.59177  -0.57399
 Alpha  occ. eigenvalues --   -0.55352  -0.55071  -0.53172  -0.52934  -0.52483
 Alpha  occ. eigenvalues --   -0.52186  -0.49749  -0.48908  -0.48897  -0.47714
 Alpha  occ. eigenvalues --   -0.46470  -0.45642  -0.45587  -0.44922  -0.43632
 Alpha  occ. eigenvalues --   -0.37422  -0.36443
 Alpha virt. eigenvalues --    0.04961   0.11201   0.16464   0.20115   0.22814
 Alpha virt. eigenvalues --    0.23898   0.26338   0.27286   0.27626   0.27874
 Alpha virt. eigenvalues --    0.29129   0.30528   0.31508   0.31907   0.32004

 Mulliken charges:
               1
     1  C   -0.298214
     2  C   -0.299754
     3  C   -0.489868
     4  H    0.150634
     5  H    0.152925
     6  H    0.141129
     7  H    0.151596
     8  H    0.159122
     9  H    0.177306
    10  H    0.156345
    11  C   -0.297452
    12  C   -0.299566
    13  C   -0.475450
    14  H    0.144903
    15  H    0.149662
    16  H    0.151996
    17  H    0.153662
    18  H    0.155241
    19  H    0.153153
    20  H    0.160451
    21  C   -0.170328
    22  C   -0.218825
    23  C   -0.170310
    24  C    0.156310
    25  C   -0.172515
    26  C   -0.220890
    27  H    0.225962
    28  H    0.223774
    29  H    0.275819
    30  H    0.282428
    31  H    0.224237
    32  N    0.492796
    33  O   -0.466988
    34  O   -0.459288
 Sum of Mulliken charges =  -0.00000

 Dipole moment (field-independent basis, Debye):
    X=             -0.8198    Y=              4.4690    Z=              2.3192  Tot=              5.1012
 Quadrupole moment (field-independent basis, Debye-Ang):
   XX=            -87.6726   YY=            -95.8533   ZZ=            -95.0783
   XY=            -15.0712   XZ=             -4.3578   YZ=             -1.2833

 Normal termination of Gaussian 16 at Thu May  6 13:44:53 2021.
