 Gaussian 16, Revision A.03,
 Gaussian 16:  EM64L-G16RevA.03 25-Dec-2016

 -------------
 #p 6-31g* mp2
 -------------

 ------------------------------------------------------
 Input file generated by CHIRIPA (05-May-2021 14:53:13)
 ------------------------------------------------------
 Symbolic Z-matrix:
 Charge =  0 Multiplicity = 1

                         Standard orientation:
 ---------------------------------------------------------------------
 Center     Atomic      Atomic             Coordinates (Angstroms)
 Number     Number       Type             X           Y           Z
 ---------------------------------------------------------------------
      1          6           0        5.151580    0.030250   -0.092167
      2          6           0        5.368850   -1.352918    0.522345
      3          6           0        6.790429   -1.875789    0.313749
      4          1           0        5.373377   -0.014209   -1.167237
      5          1           0        5.870796    0.735756    0.346450
      6          1           0        4.648521   -2.055299    0.083708
      7          1           0        5.146325   -1.305206    1.596040
      8          1           0        7.520707   -1.197619    0.766938
      9          1           0        7.020074   -1.951974   -0.753987
     10          1           0        6.923702   -2.865809    0.760914
     11          6           0        3.735208    0.566448    0.108105
     12          6           0        3.517938    1.949616   -0.506407
     13          6           0        2.096359    2.472486   -0.297811
     14          1           0        3.015992   -0.139058   -0.330513
     15          1           0        3.513411    0.610906    1.183175
     16          1           0        3.740463    1.901904   -1.580103
     17          1           0        4.238267    2.651997   -0.067770
     18          1           0        1.866713    2.548672    0.769925
     19          1           0        1.366081    1.794317   -0.751001
     20          1           0        1.963086    3.462507   -0.744977
     21          6           0       -5.978564   -0.232025    0.276726
     22          6           0       -5.335375   -1.351296   -0.261848
     23          6           0       -3.946713   -1.362971   -0.423186
     24          6           0       -3.229018   -0.233188   -0.033580
     25          6           0       -3.840884    0.897158    0.506076
     26          6           0       -5.230583    0.886657    0.658297
     27          1           0       -7.057713   -0.231569    0.398516
     28          1           0       -5.913718   -2.221487   -0.559054
     29          1           0       -3.423224   -2.216071   -0.837430
     30          1           0       -3.237526    1.749782    0.793148
     31          1           0       -5.727414    1.757303    1.076844
     32          7           0       -1.758355   -0.233809   -0.199556
     33          8           0       -1.148722    0.774049    0.151453
     34          8           0       -1.243128   -1.242142   -0.677513
 ---------------------------------------------------------------------

 SCF Done:  E(RHF) =  -669.536029174     A.U. after   15 cycles
 E2 =    -0.2090852428D+01 EUMP2 =    -0.67162688160216D+03

 The electronic state is 1-A.
 Alpha  occ. eigenvalues --  -20.60955 -20.60937 -15.85975 -11.31295 -11.27859
 Alpha  occ. eigenvalues --  -11.27853 -11.27596 -11.26865 -11.26855 -11.20715
 Alpha  occ. eigenvalues --  -11.20366 -11.20357 -11.20261 -11.20047 -11.19290
 Alpha  occ. eigenvalues --   -1.60011  -1.39566  -1.19464  -1.08870  -1.07285
 Alpha  occ. eigenvalues --   -1.04859  -1.02360  -0.95713  -0.94788  -0.86260
 Alpha  occ. eigenvalues --   -0.85798  -0.82543  -0.78453  -0.77596  -0.77048
 Alpha  occ. eigenvalues --   -0.72194  -0.71324  -0.70572  -0.65118  -0.64862
 Alpha  occ. eigenvalues --   -0.63924  -0.62206  -0.59764  -0.58221  -0.56394
 Alpha  occ. eigenvalues --   -0.55365  -0.54070  -0.53191  -0.52951  -0.51520
 Alpha  occ. eigenvalues --   -0.51202  -0.49070  -0.48957  -0.48597  -0.46707
 Alpha  occ. eigenvalues --   -0.45497  -0.44971  -0.44598  -0.44461  -0.42627
 Alpha  occ. eigenvalues --   -0.37443  -0.36460
 Alpha virt. eigenvalues --    0.04925   0.11195   0.16422   0.21333   0.23950
 Alpha virt. eigenvalues --    0.25519   0.27250   0.27799   0.28193   0.28650
 Alpha virt. eigenvalues --    0.29256   0.30903   0.32431   0.32625   0.32783

 Mulliken charges:
               1
     1  C   -0.297505
     2  C   -0.299119
     3  C   -0.475041
     4  H    0.147541
     5  H    0.145927
     6  H    0.153971
     7  H    0.150657
     8  H    0.153282
     9  H    0.153995
    10  H    0.157841
    11  C   -0.298747
    12  C   -0.299538
    13  C   -0.479343
    14  H    0.159781
    15  H    0.148015
    16  H    0.147469
    17  H    0.144919
    18  H    0.152653
    19  H    0.179970
    20  H    0.149218
    21  C   -0.170577
    22  C   -0.218604
    23  C   -0.170651
    24  C    0.157774
    25  C   -0.170868
    26  C   -0.218575
    27  H    0.225988
    28  H    0.223784
    29  H    0.275764
    30  H    0.276211
    31  H    0.223882
    32  N    0.489317
    33  O   -0.459224
    34  O   -0.460166
 Sum of Mulliken charges =  -0.00000

 Dipole moment (field-independent basis, Debye):
    X=             -5.5849    Y=             -0.1001    Z=              0.5746  Tot=              5.6153
 Quadrupole moment (field-independent basis, Debye-Ang):
   XX=            -64.3690   YY=            -91.3059   ZZ=            -94.1685
   XY=              1.7047   XZ=             -1.4005   YZ=              2.4119

 Normal termination of Gaussian 16 at Wed May  5 21:46:48 2021.
