 Gaussian 16, Revision A.03,
 Gaussian 16:  EM64L-G16RevA.03 25-Dec-2016

 -------------
 #p 6-31g* mp2
 -------------

 ------------------------------------------------------
 Input file generated by CHIRIPA (05-May-2021 14:55:22)
 ------------------------------------------------------
 Symbolic Z-matrix:
 Charge =  0 Multiplicity = 1

                         Standard orientation:
 ---------------------------------------------------------------------
 Center     Atomic      Atomic             Coordinates (Angstroms)
 Number     Number       Type             X           Y           Z
 ---------------------------------------------------------------------
      1          6           0        1.288280    1.450916   -1.090586
      2          6           0        1.282087    0.074123   -1.337409
      3          6           0        2.337864   -0.730585   -0.898857
      4          6           0        3.388476   -0.122610   -0.213386
      5          6           0        3.423526    1.246253    0.047910
      6          6           0        2.357096    2.031564   -0.399931
      7          1           0        0.463990    2.068499   -1.434872
      8          1           0        0.453351   -0.379540   -1.873536
      9          1           0        2.358551   -1.798985   -1.076369
     10          1           0        4.263563    1.669775    0.584925
     11          1           0        2.364577    3.100534   -0.206823
     12          7           0        4.511819   -0.964251    0.255807
     13          8           0        5.425664   -0.404384    0.857532
     14          8           0        4.457180   -2.167859    0.012951
     15          6           0       -3.455946   -0.189296    0.746046
     16          6           0       -2.422997    0.937610    0.713144
     17          6           0       -1.139435    0.585139    1.465491
     18          1           0       -3.695669   -0.427957    1.791281
     19          1           0       -3.012761   -1.096292    0.312063
     20          1           0       -2.868458    1.842592    1.145796
     21          1           0       -2.185848    1.173748   -0.332139
     22          1           0       -0.669430   -0.302837    1.030524
     23          1           0       -1.355918    0.369809    2.516856
     24          1           0       -0.414917    1.404663    1.429243
     25          6           0       -4.744594    0.148074   -0.001817
     26          6           0       -5.777543   -0.978832    0.031085
     27          6           0       -7.061105   -0.626360   -0.721263
     28          1           0       -5.187778    1.055070    0.432166
     29          1           0       -4.504871    0.386736   -1.047053
     30          1           0       -6.014691   -1.214969    1.076367
     31          1           0       -5.332082   -1.883815   -0.401567
     32          1           0       -6.844622   -0.411030   -1.772629
     33          1           0       -7.531109    0.261615   -0.286296
     34          1           0       -7.785623   -1.445885   -0.685015
 ---------------------------------------------------------------------

 SCF Done:  E(RHF) =  -669.534709620     A.U. after   15 cycles
 E2 =    -0.2092817405D+01 EUMP2 =    -0.67162752702557D+03

 The electronic state is 1-A.
 Alpha  occ. eigenvalues --  -20.60771 -20.60766 -15.85827 -11.31203 -11.27794
 Alpha  occ. eigenvalues --  -11.27789 -11.27519 -11.26795 -11.26781 -11.22310
 Alpha  occ. eigenvalues --  -11.22046 -11.21976 -11.21898 -11.21462 -11.21452
 Alpha  occ. eigenvalues --   -1.59847  -1.39400  -1.19390  -1.08992  -1.08776
 Alpha  occ. eigenvalues --   -1.04801  -1.04044  -0.96468  -0.95606  -0.87473
 Alpha  occ. eigenvalues --   -0.86195  -0.82446  -0.80116  -0.78800  -0.77488
 Alpha  occ. eigenvalues --   -0.72046  -0.71170  -0.70504  -0.65636  -0.65043
 Alpha  occ. eigenvalues --   -0.64800  -0.62153  -0.61452  -0.59861  -0.58097
 Alpha  occ. eigenvalues --   -0.55801  -0.55291  -0.53456  -0.52913  -0.52880
 Alpha  occ. eigenvalues --   -0.52743  -0.50367  -0.48806  -0.48799  -0.48428
 Alpha  occ. eigenvalues --   -0.47169  -0.46336  -0.46269  -0.44804  -0.44303
 Alpha  occ. eigenvalues --   -0.37284  -0.36378
 Alpha virt. eigenvalues --    0.05029   0.11155   0.16451   0.20030   0.22648
 Alpha virt. eigenvalues --    0.24056   0.25721   0.26427   0.27349   0.27525
 Alpha virt. eigenvalues --    0.28568   0.30498   0.31142   0.31274   0.31960

 Mulliken charges:
               1
     1  C   -0.166597
     2  C   -0.216800
     3  C   -0.171839
     4  C    0.158836
     5  C   -0.170093
     6  C   -0.220405
     7  H    0.227000
     8  H    0.223180
     9  H    0.275642
    10  H    0.275852
    11  H    0.223624
    12  N    0.488130
    13  O   -0.460380
    14  O   -0.460474
    15  C   -0.297828
    16  C   -0.300896
    17  C   -0.475600
    18  H    0.153179
    19  H    0.148037
    20  H    0.153364
    21  H    0.139771
    22  H    0.156996
    23  H    0.156791
    24  H    0.159386
    25  C   -0.298118
    26  C   -0.299972
    27  C   -0.475908
    28  H    0.150524
    29  H    0.146816
    30  H    0.153599
    31  H    0.151966
    32  H    0.154604
    33  H    0.155775
    34  H    0.161841
 Sum of Mulliken charges =  -0.00000

 Dipole moment (field-independent basis, Debye):
    X=             -3.9775    Y=              2.9466    Z=             -1.6084  Tot=              5.2048
 Quadrupole moment (field-independent basis, Debye-Ang):
   XX=           -121.7010   YY=            -92.3337   ZZ=            -93.4770
   XY=             12.7998   XZ=             -4.8001   YZ=              1.7514

 Normal termination of Gaussian 16 at Wed May  5 19:01:32 2021.
