 Gaussian 16, Revision A.03,
 Gaussian 16:  EM64L-G16RevA.03 25-Dec-2016

 -------------
 #p 6-31g* mp2
 -------------

 ------------------------------------------------------
 Input file generated by CHIRIPA (05-May-2021 14:55:18)
 ------------------------------------------------------
 Symbolic Z-matrix:
 Charge =  0 Multiplicity = 1

                         Standard orientation:
 ---------------------------------------------------------------------
 Center     Atomic      Atomic             Coordinates (Angstroms)
 Number     Number       Type             X           Y           Z
 ---------------------------------------------------------------------
      1          6           0        1.462611    1.107302   -0.267496
      2          6           0        1.561404   -0.055049    0.504322
      3          6           0        2.780787   -0.729057    0.619934
      4          6           0        3.886169   -0.210475   -0.052740
      5          6           0        3.819625    0.945326   -0.829262
      6          6           0        2.590049    1.602906   -0.930655
      7          1           0        0.511406    1.624506   -0.351784
      8          1           0        0.687477   -0.442235    1.020445
      9          1           0        2.885404   -1.630919    1.210796
     10          1           0        4.708256    1.307124   -1.332110
     11          1           0        2.516275    2.505392   -1.530756
     12          7           0        5.182471   -0.915321    0.062127
     13          8           0        6.141576   -0.438044   -0.540335
     14          8           0        5.214861   -1.931710    0.752447
     15          6           0       -5.092701   -0.286941   -0.421764
     16          6           0       -6.297709   -1.015468    0.174215
     17          6           0       -7.071575   -1.826680   -0.865428
     18          1           0       -5.435366    0.377677   -1.226629
     19          1           0       -4.422176   -1.022228   -0.887753
     20          1           0       -6.965076   -0.279166    0.640153
     21          1           0       -5.952158   -1.678286    0.977884
     22          1           0       -6.425325   -2.582589   -1.323208
     23          1           0       -7.443998   -1.175520   -1.662859
     24          1           0       -7.928790   -2.339234   -0.417846
     25          6           0       -4.308959    0.528370    0.605244
     26          6           0       -3.103950    1.256895    0.009264
     27          6           0       -2.330084    2.068107    1.048909
     28          1           0       -4.979483    1.263656    1.071233
     29          1           0       -3.966294   -0.136249    1.410109
     30          1           0       -3.449500    1.919714   -0.794403
     31          1           0       -2.436583    0.520594   -0.456673
     32          1           0       -1.957661    1.416949    1.846338
     33          1           0       -2.976333    2.824018    1.506688
     34          1           0       -1.472869    2.580662    0.601326
 ---------------------------------------------------------------------

 SCF Done:  E(RHF) =  -669.535468678     A.U. after   15 cycles
 E2 =    -0.2091071553D+01 EUMP2 =    -0.67162654023066D+03

 The electronic state is 1-A.
 Alpha  occ. eigenvalues --  -20.60726 -20.60721 -15.85780 -11.31135 -11.27708
 Alpha  occ. eigenvalues --  -11.27705 -11.27405 -11.26714 -11.26704 -11.22741
 Alpha  occ. eigenvalues --  -11.22405 -11.22268 -11.22170 -11.22066 -11.21533
 Alpha  occ. eigenvalues --   -1.59802  -1.39356  -1.19306  -1.09269  -1.08698
 Alpha  occ. eigenvalues --   -1.04711  -1.04398  -0.96851  -0.95535  -0.87863
 Alpha  occ. eigenvalues --   -0.86105  -0.82373  -0.80469  -0.79025  -0.77423
 Alpha  occ. eigenvalues --   -0.71998  -0.71125  -0.70435  -0.65901  -0.64956
 Alpha  occ. eigenvalues --   -0.64719  -0.62073  -0.61773  -0.60301  -0.58462
 Alpha  occ. eigenvalues --   -0.56127  -0.55214  -0.53525  -0.53231  -0.53035
 Alpha  occ. eigenvalues --   -0.52801  -0.50774  -0.48795  -0.48753  -0.48737
 Alpha  occ. eigenvalues --   -0.47499  -0.46575  -0.46470  -0.44764  -0.44633
 Alpha  occ. eigenvalues --   -0.37276  -0.36319
 Alpha virt. eigenvalues --    0.05109   0.11328   0.16587   0.18896   0.22503
 Alpha virt. eigenvalues --    0.23959   0.25386   0.25877   0.26712   0.27054
 Alpha virt. eigenvalues --    0.29148   0.29879   0.31093   0.31264   0.32217

 Mulliken charges:
               1
     1  C   -0.175876
     2  C   -0.221826
     3  C   -0.170874
     4  C    0.158279
     5  C   -0.170662
     6  C   -0.220219
     7  H    0.235551
     8  H    0.223563
     9  H    0.275304
    10  H    0.275370
    11  H    0.223509
    12  N    0.488039
    13  O   -0.460566
    14  O   -0.460651
    15  C   -0.298970
    16  C   -0.300294
    17  C   -0.476183
    18  H    0.150997
    19  H    0.149937
    20  H    0.153012
    21  H    0.152553
    22  H    0.155913
    23  H    0.155908
    24  H    0.162106
    25  C   -0.298461
    26  C   -0.302823
    27  C   -0.480363
    28  H    0.152512
    29  H    0.149765
    30  H    0.155527
    31  H    0.148333
    32  H    0.155275
    33  H    0.163546
    34  H    0.152770
 Sum of Mulliken charges =  -0.00000

 Dipole moment (field-independent basis, Debye):
    X=             -4.8460    Y=              2.4924    Z=             -0.3888  Tot=              5.4633
 Quadrupole moment (field-independent basis, Debye-Ang):
   XX=           -128.9553   YY=            -93.5002   ZZ=            -93.8545
   XY=             11.3788   XZ=             -3.1807   YZ=             -2.9443

 Normal termination of Gaussian 16 at Wed May  5 23:40:57 2021.
