 Gaussian 16, Revision A.03,
 Gaussian 16:  EM64L-G16RevA.03 25-Dec-2016

 -------------
 #p 6-31g* mp2
 -------------

 ------------------------------------------------------
 Input file generated by CHIRIPA (05-May-2021 14:53:14)
 ------------------------------------------------------
 Symbolic Z-matrix:
 Charge =  0 Multiplicity = 1

                         Standard orientation:
 ---------------------------------------------------------------------
 Center     Atomic      Atomic             Coordinates (Angstroms)
 Number     Number       Type             X           Y           Z
 ---------------------------------------------------------------------
      1          6           0        4.136044   -0.150207    0.442757
      2          6           0        3.366852   -1.396696    0.881612
      3          6           0        1.967110   -1.073727    1.405259
      4          1           0        4.211443    0.543908    1.290970
      5          1           0        3.562880    0.370216   -0.337010
      6          1           0        3.941953   -1.915362    1.659340
      7          1           0        3.293442   -2.088008    0.032310
      8          1           0        1.371876   -0.576685    0.632442
      9          1           0        2.024072   -0.403058    2.268717
     10          1           0        1.434964   -1.979105    1.713436
     11          6           0        5.537154   -0.456838   -0.083168
     12          6           0        6.306346    0.789651   -0.522023
     13          6           0        7.706088    0.466682   -1.045670
     14          1           0        6.110318   -0.977261    0.696600
     15          1           0        5.461755   -1.150953   -0.931381
     16          1           0        6.379756    1.480963    0.327279
     17          1           0        5.731245    1.308317   -1.299751
     18          1           0        7.649126   -0.203987   -1.909128
     19          1           0        8.301322   -0.030360   -0.272853
     20          1           0        8.238234    1.372060   -1.353846
     21          6           0       -1.766723    1.724800    0.183776
     22          6           0       -3.044859    2.197318    0.499396
     23          6           0       -4.166741    1.381793    0.323757
     24          6           0       -3.973094    0.093304   -0.171811
     25          6           0       -2.712541   -0.406265   -0.495433
     26          6           0       -1.604929    0.426805   -0.311758
     27          1           0       -0.900761    2.365134    0.323337
     28          1           0       -3.173512    3.204920    0.884405
     29          1           0       -5.167602    1.722199    0.560015
     30          1           0       -2.615917   -1.415307   -0.877421
     31          1           0       -0.613504    0.057179   -0.557720
     32          7           0       -5.153226   -0.779342   -0.362005
     33          8           0       -4.955925   -1.910606   -0.800129
     34          8           0       -6.253170   -0.315536   -0.069355
 ---------------------------------------------------------------------

 SCF Done:  E(RHF) =  -669.535383688     A.U. after   15 cycles
 E2 =    -0.2090800579D+01 EUMP2 =    -0.67162618426667D+03

 The electronic state is 1-A.
 Alpha  occ. eigenvalues --  -20.60731 -20.60726 -15.85785 -11.31145 -11.27716
 Alpha  occ. eigenvalues --  -11.27709 -11.27454 -11.26730 -11.26707 -11.22333
 Alpha  occ. eigenvalues --  -11.22108 -11.22096 -11.22006 -11.21930 -11.21482
 Alpha  occ. eigenvalues --   -1.59807  -1.39361  -1.19317  -1.09070  -1.08713
 Alpha  occ. eigenvalues --   -1.04721  -1.04171  -0.96633  -0.95548  -0.87653
 Alpha  occ. eigenvalues --   -0.86120  -0.82382  -0.80237  -0.78871  -0.77431
 Alpha  occ. eigenvalues --   -0.72003  -0.71130  -0.70424  -0.65713  -0.64970
 Alpha  occ. eigenvalues --   -0.64748  -0.62120  -0.61536  -0.59995  -0.58230
 Alpha  occ. eigenvalues --   -0.55954  -0.55214  -0.53324  -0.53145  -0.53026
 Alpha  occ. eigenvalues --   -0.52747  -0.50564  -0.48769  -0.48758  -0.48540
 Alpha  occ. eigenvalues --   -0.47265  -0.46414  -0.46330  -0.44767  -0.44415
 Alpha  occ. eigenvalues --   -0.37294  -0.36317
 Alpha virt. eigenvalues --    0.05107   0.11280   0.16588   0.19993   0.22460
 Alpha virt. eigenvalues --    0.23747   0.25371   0.26374   0.27077   0.28216
 Alpha virt. eigenvalues --    0.28621   0.30111   0.31076   0.31471   0.31961

 Mulliken charges:
               1
     1  C   -0.297983
     2  C   -0.300159
     3  C   -0.477654
     4  H    0.150089
     5  H    0.145028
     6  H    0.155781
     7  H    0.153243
     8  H    0.144048
     9  H    0.157778
    10  H    0.165422
    11  C   -0.298687
    12  C   -0.299944
    13  C   -0.476035
    14  H    0.151403
    15  H    0.150784
    16  H    0.152099
    17  H    0.151158
    18  H    0.156000
    19  H    0.156200
    20  H    0.161289
    21  C   -0.171959
    22  C   -0.218650
    23  C   -0.171074
    24  C    0.158680
    25  C   -0.172163
    26  C   -0.220395
    27  H    0.225710
    28  H    0.223251
    29  H    0.275453
    30  H    0.275706
    31  H    0.228648
    32  N    0.488046
    33  O   -0.460520
    34  O   -0.460591
 Sum of Mulliken charges =  -0.00000

 Dipole moment (field-independent basis, Debye):
    X=              4.3330    Y=              3.0336    Z=              0.7281  Tot=              5.3392
 Quadrupole moment (field-independent basis, Debye-Ang):
   XX=           -126.7302   YY=            -91.7068   ZZ=            -94.3735
   XY=            -14.4739   XZ=             -3.6733   YZ=              0.9832

 Normal termination of Gaussian 16 at Thu May  6 18:45:07 2021.
