 Gaussian 16, Revision A.03,
 Gaussian 16:  EM64L-G16RevA.03 25-Dec-2016

 -------------
 #p 6-31g* mp2
 -------------

 ------------------------------------------------------
 Input file generated by CHIRIPA (05-May-2021 14:55:19)
 ------------------------------------------------------
 Symbolic Z-matrix:
 Charge =  0 Multiplicity = 1

                         Standard orientation:
 ---------------------------------------------------------------------
 Center     Atomic      Atomic             Coordinates (Angstroms)
 Number     Number       Type             X           Y           Z
 ---------------------------------------------------------------------
      1          6           0       -0.587177   -1.014062   -0.510980
      2          6           0       -1.684918   -1.879945   -0.552600
      3          6           0       -2.976500   -1.400940   -0.314021
      4          6           0       -3.134657   -0.044196   -0.035597
      5          6           0       -2.060965    0.843564    0.012952
      6          6           0       -0.778366    0.342537   -0.228834
      7          1           0        0.412666   -1.394718   -0.697560
      8          1           0       -1.539428   -2.933972   -0.771470
      9          1           0       -3.843995   -2.049166   -0.339992
     10          1           0       -2.237504    1.889270    0.233749
     11          1           0        0.072303    1.017310   -0.195857
     12          7           0       -4.497242    0.474562    0.218674
     13          8           0       -4.609979    1.674078    0.461756
     14          8           0       -5.426699   -0.328174    0.170073
     15          6           0        3.963764   -0.515347   -0.150071
     16          6           0        3.511243   -1.677428    0.734676
     17          6           0        3.996887   -3.033939    0.222989
     18          1           0        3.595616   -0.676344   -1.172564
     19          1           0        5.060975   -0.514475   -0.209420
     20          1           0        2.415270   -1.675276    0.793461
     21          1           0        3.880349   -1.513549    1.755226
     22          1           0        5.090559   -3.060776    0.181009
     23          1           0        3.617157   -3.223421   -0.786220
     24          1           0        3.662085   -3.850484    0.870307
     25          6           0        3.486059    0.847362    0.348480
     26          6           0        3.938580    2.009443   -0.536266
     27          6           0        3.452936    3.365953   -0.024578
     28          1           0        2.388848    0.846490    0.407831
     29          1           0        3.854207    1.008359    1.370974
     30          1           0        3.569473    1.845563   -1.556815
     31          1           0        5.034552    2.007290   -0.595050
     32          1           0        3.832666    3.555436    0.984630
     33          1           0        2.359263    3.392790    0.017401
     34          1           0        3.787737    4.182500   -0.671897
 ---------------------------------------------------------------------

 SCF Done:  E(RHF) =  -669.535111207     A.U. after   15 cycles
 E2 =    -0.2092408501D+01 EUMP2 =    -0.67162751970786D+03

 The electronic state is 1-A.
 Alpha  occ. eigenvalues --  -20.60758 -20.60753 -15.85811 -11.31186 -11.27752
 Alpha  occ. eigenvalues --  -11.27748 -11.27484 -11.26770 -11.26755 -11.22714
 Alpha  occ. eigenvalues --  -11.22577 -11.22525 -11.22472 -11.22059 -11.21940
 Alpha  occ. eigenvalues --   -1.59833  -1.39386  -1.19357  -1.09529  -1.08750
 Alpha  occ. eigenvalues --   -1.04761  -1.04548  -0.96987  -0.95586  -0.87998
 Alpha  occ. eigenvalues --   -0.86164  -0.82420  -0.80600  -0.79342  -0.77463
 Alpha  occ. eigenvalues --   -0.72030  -0.71156  -0.70495  -0.66245  -0.65006
 Alpha  occ. eigenvalues --   -0.64722  -0.62164  -0.61922  -0.60346  -0.58587
 Alpha  occ. eigenvalues --   -0.56297  -0.55267  -0.53640  -0.53404  -0.53088
 Alpha  occ. eigenvalues --   -0.52863  -0.50930  -0.48916  -0.48784  -0.48775
 Alpha  occ. eigenvalues --   -0.47646  -0.46847  -0.46804  -0.44814  -0.44790
 Alpha  occ. eigenvalues --   -0.37330  -0.36361
 Alpha virt. eigenvalues --    0.05048   0.11245   0.16451   0.17873   0.21610
 Alpha virt. eigenvalues --    0.23402   0.25105   0.26164   0.26756   0.27706
 Alpha virt. eigenvalues --    0.29361   0.30543   0.30895   0.31486   0.32373

 Mulliken charges:
               1
     1  C   -0.176077
     2  C   -0.219268
     3  C   -0.170935
     4  C    0.158958
     5  C   -0.171348
     6  C   -0.224979
     7  H    0.231082
     8  H    0.223723
     9  H    0.275616
    10  H    0.276001
    11  H    0.230105
    12  N    0.487929
    13  O   -0.460306
    14  O   -0.460398
    15  C   -0.300032
    16  C   -0.304354
    17  C   -0.476582
    18  H    0.146593
    19  H    0.155288
    20  H    0.146159
    21  H    0.157948
    22  H    0.159791
    23  H    0.152352
    24  H    0.163199
    25  C   -0.303200
    26  C   -0.301068
    27  C   -0.475460
    28  H    0.142372
    29  H    0.155564
    30  H    0.151757
    31  H    0.156277
    32  H    0.158673
    33  H    0.149822
    34  H    0.164794
 Sum of Mulliken charges =  -0.00000

 Dipole moment (field-independent basis, Debye):
    X=              5.0647    Y=             -1.8003    Z=             -0.8455  Tot=              5.4412
 Quadrupole moment (field-independent basis, Debye-Ang):
   XX=           -122.6810   YY=            -91.1480   ZZ=            -95.1756
   XY=              8.0524   XZ=              3.7162   YZ=              0.5701

 Normal termination of Gaussian 16 at Thu May  6 09:14:40 2021.
