 Gaussian 16, Revision A.03,
 Gaussian 16:  EM64L-G16RevA.03 25-Dec-2016

 -------------
 #p 6-31g* mp2
 -------------

 ------------------------------------------------------
 Input file generated by CHIRIPA (05-May-2021 14:55:24)
 ------------------------------------------------------
 Symbolic Z-matrix:
 Charge =  0 Multiplicity = 1

                         Standard orientation:
 ---------------------------------------------------------------------
 Center     Atomic      Atomic             Coordinates (Angstroms)
 Number     Number       Type             X           Y           Z
 ---------------------------------------------------------------------
      1          6           0       -1.708445    1.777237   -0.798460
      2          6           0       -3.092219    1.947343   -0.911392
      3          6           0       -3.965579    0.913122   -0.561852
      4          6           0       -3.418393   -0.283310   -0.100955
      5          6           0       -2.044350   -0.483352    0.022660
      6          6           0       -1.189841    0.564570   -0.332615
      7          1           0       -1.037320    2.585966   -1.072218
      8          1           0       -3.497793    2.888026   -1.272874
      9          1           0       -5.040951    1.017846   -0.639489
     10          1           0       -1.669767   -1.432550    0.386155
     11          1           0       -0.115613    0.429637   -0.243884
     12          7           0       -4.333001   -1.385446    0.272123
     13          8           0       -3.825843   -2.429814    0.675513
     14          8           0       -5.539712   -1.184063    0.154088
     15          6           0        4.591015   -0.509819    0.292136
     16          6           0        5.597106   -0.739927   -0.836055
     17          6           0        6.406587   -2.024134   -0.653446
     18          1           0        5.126488   -0.474229    1.250754
     19          1           0        3.908982   -1.369608    0.346818
     20          1           0        6.276173    0.120670   -0.889491
     21          1           0        5.059197   -0.774782   -1.792118
     22          1           0        5.744632   -2.895588   -0.622062
     23          1           0        6.968522   -1.995049    0.285695
     24          1           0        7.119584   -2.168958   -1.471076
     25          6           0        3.774180    0.770081    0.123717
     26          6           0        2.768088    1.000189    1.251908
     27          6           0        1.958608    2.284397    1.069299
     28          1           0        4.456212    1.629870    0.069035
     29          1           0        3.238707    0.734491   -0.834901
     30          1           0        3.305997    1.035044    2.207971
     31          1           0        2.089022    0.139592    1.305344
     32          1           0        1.396672    2.255311    0.130159
     33          1           0        2.620562    3.155851    1.037915
     34          1           0        1.245611    2.429221    1.886929
 ---------------------------------------------------------------------

 SCF Done:  E(RHF) =  -669.534957469     A.U. after   15 cycles
 E2 =    -0.2091909227D+01 EUMP2 =    -0.67162686669561D+03

 The electronic state is 1-A.
 Alpha  occ. eigenvalues --  -20.60730 -20.60725 -15.85783 -11.31138 -11.27706
 Alpha  occ. eigenvalues --  -11.27697 -11.27434 -11.26721 -11.26671 -11.22655
 Alpha  occ. eigenvalues --  -11.22274 -11.22264 -11.22150 -11.22044 -11.21491
 Alpha  occ. eigenvalues --   -1.59806  -1.39360  -1.19308  -1.09244  -1.08704
 Alpha  occ. eigenvalues --   -1.04718  -1.04334  -0.96791  -0.95541  -0.87809
 Alpha  occ. eigenvalues --   -0.86109  -0.82375  -0.80413  -0.79004  -0.77430
 Alpha  occ. eigenvalues --   -0.72003  -0.71129  -0.70427  -0.65979  -0.64962
 Alpha  occ. eigenvalues --   -0.64720  -0.62245  -0.61523  -0.60159  -0.58370
 Alpha  occ. eigenvalues --   -0.56090  -0.55214  -0.53477  -0.53200  -0.53028
 Alpha  occ. eigenvalues --   -0.52769  -0.50741  -0.48774  -0.48758  -0.48691
 Alpha  occ. eigenvalues --   -0.47472  -0.46549  -0.46459  -0.44768  -0.44567
 Alpha  occ. eigenvalues --   -0.37280  -0.36309
 Alpha virt. eigenvalues --    0.05107   0.11300   0.16589   0.18951   0.22520
 Alpha virt. eigenvalues --    0.23810   0.25318   0.25612   0.26972   0.28164
 Alpha virt. eigenvalues --    0.28659   0.30139   0.30848   0.31496   0.31903

 Mulliken charges:
               1
     1  C   -0.172817
     2  C   -0.218603
     3  C   -0.171221
     4  C    0.158618
     5  C   -0.172633
     6  C   -0.222212
     7  H    0.226553
     8  H    0.223272
     9  H    0.275398
    10  H    0.275104
    11  H    0.231184
    12  N    0.488058
    13  O   -0.460626
    14  O   -0.460565
    15  C   -0.298689
    16  C   -0.300211
    17  C   -0.476239
    18  H    0.152176
    19  H    0.149652
    20  H    0.152831
    21  H    0.151946
    22  H    0.156336
    23  H    0.156290
    24  H    0.161965
    25  C   -0.299006
    26  C   -0.303864
    27  C   -0.478602
    28  H    0.152700
    29  H    0.145737
    30  H    0.159131
    31  H    0.148070
    32  H    0.142479
    33  H    0.160934
    34  H    0.166851
 Sum of Mulliken charges =  -0.00000

 Dipole moment (field-independent basis, Debye):
    X=              3.4609    Y=              3.9058    Z=             -1.2317  Tot=              5.3619
 Quadrupole moment (field-independent basis, Debye-Ang):
   XX=           -112.9344   YY=            -96.1766   ZZ=            -94.5988
   XY=            -15.9432   XZ=              5.9000   YZ=             -0.4046

 Normal termination of Gaussian 16 at Thu May  6 19:21:19 2021.
