 Gaussian 16, Revision A.03,
 Gaussian 16:  EM64L-G16RevA.03 25-Dec-2016

 -------------
 #p 6-31g* mp2
 -------------

 ------------------------------------------------------
 Input file generated by CHIRIPA (05-May-2021 14:51:08)
 ------------------------------------------------------
 Symbolic Z-matrix:
 Charge =  0 Multiplicity = 1

                         Standard orientation:
 ---------------------------------------------------------------------
 Center     Atomic      Atomic             Coordinates (Angstroms)
 Number     Number       Type             X           Y           Z
 ---------------------------------------------------------------------
      1          6           0        3.398673    0.184942    0.395841
      2          6           0        2.038147   -0.489426    0.216455
      3          6           0        0.885846    0.346600    0.774179
      4          1           0        3.567217    0.377724    1.464191
      5          1           0        3.382328    1.165422   -0.099928
      6          1           0        2.057504   -1.468935    0.711231
      7          1           0        1.872907   -0.680799   -0.851575
      8          1           0        0.837958    1.319086    0.273600
      9          1           0        1.023604    0.526471    1.845286
     10          1           0       -0.077376   -0.154202    0.635395
     11          6           0        4.560606   -0.638641   -0.156746
     12          6           0        5.921133    0.035727    0.022640
     13          6           0        7.073434   -0.800300   -0.535084
     14          1           0        4.576951   -1.619121    0.339023
     15          1           0        4.392063   -0.831423   -1.225097
     16          1           0        6.086373    0.227099    1.090670
     17          1           0        5.901776    1.015236   -0.472137
     18          1           0        6.935676   -0.980170   -1.606191
     19          1           0        7.121322   -1.772785   -0.034505
     20          1           0        8.036655   -0.299497   -0.396300
     21          6           0       -4.686873   -0.061555   -0.110839
     22          6           0       -4.718138   -1.588747   -0.042346
     23          6           0       -6.139989   -2.150759   -0.025638
     24          1           0       -5.234866    0.348962    0.748303
     25          1           0       -5.223483    0.269225   -1.010855
     26          1           0       -4.180438   -1.916605    0.856545
     27          1           0       -4.169843   -1.995675   -0.901646
     28          1           0       -6.682884   -1.852161   -0.928248
     29          1           0       -6.693538   -1.772642    0.839933
     30          1           0       -6.138955   -3.244120    0.023540
     31          6           0       -3.272406    0.515254   -0.128256
     32          6           0       -3.241141    2.042446   -0.196749
     33          6           0       -1.819291    2.604458   -0.213457
     34          1           0       -2.735796    0.184474    0.771760
     35          1           0       -2.724414    0.104737   -0.987397
     36          1           0       -3.789436    2.449375    0.662551
     37          1           0       -3.778842    2.370304   -1.095640
     38          1           0       -1.265742    2.226341   -1.079027
     39          1           0       -1.276396    2.305861    0.689153
     40          1           0       -1.820325    3.697821   -0.262634
 ---------------------------------------------------------------------

 SCF Done:  E(RHF) =  -470.731812893     A.U. after   11 cycles
 E2 =    -0.1583465127D+01 EUMP2 =    -0.47231527801948D+03

 The electronic state is 1-A.
 Alpha  occ. eigenvalues --  -11.21600 -11.21574 -11.21554 -11.21516 -11.21393
 Alpha  occ. eigenvalues --  -11.21361 -11.21333 -11.21300 -11.21069 -11.21051
 Alpha  occ. eigenvalues --  -11.20919 -11.20893  -1.08421  -1.08373  -1.03543
 Alpha  occ. eigenvalues --   -1.03432  -0.96024  -0.95857  -0.87087  -0.86843
 Alpha  occ. eigenvalues --   -0.79730  -0.79404  -0.78259  -0.78156  -0.65044
 Alpha  occ. eigenvalues --   -0.65015  -0.60912  -0.60880  -0.59458  -0.59160
 Alpha  occ. eigenvalues --   -0.57686  -0.57457  -0.55279  -0.55189  -0.52758
 Alpha  occ. eigenvalues --   -0.52680  -0.52514  -0.52083  -0.49930  -0.49822
 Alpha  occ. eigenvalues --   -0.47978  -0.47706  -0.46611  -0.46529  -0.45814
 Alpha  occ. eigenvalues --   -0.45724  -0.45686  -0.45582  -0.43767  -0.43646
 Alpha virt. eigenvalues --    0.22291   0.22990   0.23655   0.24793   0.26113
 Alpha virt. eigenvalues --    0.26536   0.26975   0.27017   0.27871   0.29347
 Alpha virt. eigenvalues --    0.30277   0.30942   0.31346   0.31992   0.32066

 Mulliken charges:
               1
     1  C   -0.298431
     2  C   -0.300195
     3  C   -0.482594
     4  H    0.149393
     5  H    0.149507
     6  H    0.151131
     7  H    0.151245
     8  H    0.160787
     9  H    0.152887
    10  H    0.165214
    11  C   -0.298134
    12  C   -0.299578
    13  C   -0.475666
    14  H    0.149419
    15  H    0.149464
    16  H    0.151859
    17  H    0.151879
    18  H    0.155108
    19  H    0.155124
    20  H    0.160155
    21  C   -0.297948
    22  C   -0.299700
    23  C   -0.475678
    24  H    0.149659
    25  H    0.149560
    26  H    0.151755
    27  H    0.151838
    28  H    0.155201
    29  H    0.155207
    30  H    0.160233
    31  C   -0.300851
    32  C   -0.299696
    33  C   -0.479237
    34  H    0.151623
    35  H    0.149563
    36  H    0.151564
    37  H    0.151321
    38  H    0.154407
    39  H    0.163953
    40  H    0.158654
 Sum of Mulliken charges =  -0.00000

 Dipole moment (field-independent basis, Debye):
    X=             -0.0212    Y=              0.0201    Z=              0.0082  Tot=              0.0303
 Quadrupole moment (field-independent basis, Debye-Ang):
   XX=            -86.8075   YY=            -85.2001   ZZ=            -83.0358
   XY=             -0.0644   XZ=              0.3842   YZ=             -0.4935

 Normal termination of Gaussian 16 at Thu May  6 00:31:42 2021.
