 Gaussian 16, Revision A.03,
 Gaussian 16:  EM64L-G16RevA.03 25-Dec-2016

 -------------
 #p 6-31g* mp2
 -------------

 ------------------------------------------------------
 Input file generated by CHIRIPA (05-May-2021 14:57:23)
 ------------------------------------------------------
 Symbolic Z-matrix:
 Charge =  0 Multiplicity = 1

                         Standard orientation:
 ---------------------------------------------------------------------
 Center     Atomic      Atomic             Coordinates (Angstroms)
 Number     Number       Type             X           Y           Z
 ---------------------------------------------------------------------
      1          6           0       -6.114230    0.785211    0.526162
      2          6           0       -5.038026    0.900752    1.412140
      3          6           0       -3.802663    0.321124    1.108069
      4          6           0       -3.678151   -0.370018   -0.096135
      5          6           0       -4.731620   -0.502542   -0.999424
      6          6           0       -5.957867    0.085167   -0.674675
      7          1           0       -7.070349    1.238619    0.770403
      8          1           0       -5.156566    1.443830    2.345446
      9          1           0       -2.952931    0.395212    1.775816
     10          1           0       -4.582973   -1.050077   -1.922206
     11          1           0       -6.791925   -0.006174   -1.364639
     12          7           0       -2.375152   -0.987922   -0.428987
     13          8           0       -2.291190   -1.591612   -1.496294
     14          8           0       -1.462497   -0.856844    0.383734
     15          6           0        2.552281    2.360309   -0.396509
     16          6           0        1.938221    1.243062    0.179000
     17          6           0        2.671267    0.078525    0.426069
     18          6           0        4.022506    0.065921    0.083600
     19          6           0        4.662808    1.162782   -0.491027
     20          6           0        3.910221    2.316681   -0.729099
     21          1           0        1.975242    3.260818   -0.584944
     22          1           0        0.883785    1.274091    0.438320
     23          1           0        2.221029   -0.800775    0.870518
     24          1           0        5.715590    1.101773   -0.738713
     25          1           0        4.389743    3.182844   -1.176160
     26          7           0        4.808894   -1.161291    0.340400
     27          8           0        5.997930   -1.147001    0.029551
     28          8           0        4.221339   -2.114233    0.847664
 ---------------------------------------------------------------------

 SCF Done:  E(RHF) =  -868.339324369     A.U. after   16 cycles
 E2 =    -0.2598602262D+01 EUMP2 =    -0.87093792663098D+03

 The electronic state is 1-A.
 Alpha  occ. eigenvalues --  -20.61599 -20.61527 -20.59930 -20.59908 -15.86598
 Alpha  occ. eigenvalues --  -15.84969 -11.31805 -11.30233 -11.28377 -11.28326
 Alpha  occ. eigenvalues --  -11.28049 -11.27334 -11.27305 -11.26864 -11.26665
 Alpha  occ. eigenvalues --  -11.26585 -11.25902 -11.25673  -1.60620  -1.58999
 Alpha  occ. eigenvalues --   -1.40183  -1.38554  -1.19959  -1.18406  -1.09379
 Alpha  occ. eigenvalues --   -1.07842  -1.05337  -1.03768  -0.96241  -0.94685
 Alpha  occ. eigenvalues --   -0.86742  -0.85193  -0.83082  -0.81496  -0.78151
 Alpha  occ. eigenvalues --   -0.76542  -0.72824  -0.71929  -0.71193  -0.71060
 Alpha  occ. eigenvalues --   -0.70319  -0.69548  -0.65614  -0.65332  -0.64057
 Alpha  occ. eigenvalues --   -0.63769  -0.62687  -0.61093  -0.55833  -0.54349
 Alpha  occ. eigenvalues --   -0.53675  -0.53424  -0.52142  -0.51850  -0.49588
 Alpha  occ. eigenvalues --   -0.49547  -0.47954  -0.47939  -0.45613  -0.43980
 Alpha  occ. eigenvalues --   -0.37925  -0.36935  -0.36435  -0.35364
 Alpha virt. eigenvalues --    0.04345   0.05957   0.10721   0.12268   0.15849
 Alpha virt. eigenvalues --    0.17456   0.20838   0.22377   0.26744   0.27432
 Alpha virt. eigenvalues --    0.28540   0.29188   0.30449   0.31566   0.32457

 Mulliken charges:
               1
     1  C   -0.170214
     2  C   -0.218387
     3  C   -0.171890
     4  C    0.157957
     5  C   -0.170497
     6  C   -0.218421
     7  H    0.227626
     8  H    0.224777
     9  H    0.272970
    10  H    0.277257
    11  H    0.225603
    12  N    0.489698
    13  O   -0.453584
    14  O   -0.470186
    15  C   -0.172016
    16  C   -0.220478
    17  C   -0.169910
    18  C    0.157536
    19  C   -0.172477
    20  C   -0.218950
    21  H    0.220570
    22  H    0.232175
    23  H    0.284360
    24  H    0.272457
    25  H    0.219171
    26  N    0.488017
    27  O   -0.464337
    28  O   -0.458826
 Sum of Mulliken charges =  -0.00000

 Dipole moment (field-independent basis, Debye):
    X=             -7.8631    Y=              6.3418    Z=              0.2497  Tot=             10.1049
 Quadrupole moment (field-independent basis, Debye-Ang):
   XX=            -90.1769   YY=           -105.8723   ZZ=           -101.6284
   XY=             13.2217   XZ=             -7.3693   YZ=              0.5868

 Normal termination of Gaussian 16 at Thu May  6 17:56:53 2021.
