 Gaussian 16, Revision A.03,
 Gaussian 16:  EM64L-G16RevA.03 25-Dec-2016

 -------------
 #p 6-31g* mp2
 -------------

 ------------------------------------------------------
 Input file generated by CHIRIPA (05-May-2021 14:57:22)
 ------------------------------------------------------
 Symbolic Z-matrix:
 Charge =  0 Multiplicity = 1

                         Standard orientation:
 ---------------------------------------------------------------------
 Center     Atomic      Atomic             Coordinates (Angstroms)
 Number     Number       Type             X           Y           Z
 ---------------------------------------------------------------------
      1          6           0       -6.221567    1.647225   -0.425538
      2          6           0       -4.922819    2.098152   -0.167777
      3          6           0       -3.886288    1.187128    0.056251
      4          6           0       -4.185376   -0.173803    0.015002
      5          6           0       -5.469076   -0.654166   -0.239273
      6          6           0       -6.490077    0.274924   -0.460401
      7          1           0       -7.020736    2.361947   -0.598442
      8          1           0       -4.711371    3.163313   -0.140099
      9          1           0       -2.871776    1.508786    0.258040
     10          1           0       -5.649097   -1.722135   -0.260516
     11          1           0       -7.497751   -0.078147   -0.660347
     12          7           0       -3.096268   -1.147826    0.250636
     13          8           0       -3.385736   -2.341604    0.208936
     14          8           0       -1.973780   -0.699044    0.472564
     15          6           0        2.089565   -0.977501    0.479089
     16          6           0        3.036099   -1.704008   -0.250830
     17          6           0        4.299939   -1.164958   -0.509062
     18          6           0        4.584843    0.109057   -0.020179
     19          6           0        3.663140    0.857660    0.710127
     20          6           0        2.405549    0.298764    0.956396
     21          1           0        1.110211   -1.403956    0.675042
     22          1           0        2.793469   -2.695398   -0.622745
     23          1           0        5.051556   -1.705543   -1.071430
     24          1           0        3.934163    1.843548    1.067881
     25          1           0        1.672432    0.865270    1.523544
     26          7           0        5.919506    0.690230   -0.287225
     27          8           0        6.145889    1.814646    0.154448
     28          8           0        6.713958    0.010332   -0.933152
 ---------------------------------------------------------------------

 SCF Done:  E(RHF) =  -868.340531082     A.U. after   16 cycles
 E2 =    -0.2598012492D+01 EUMP2 =    -0.87093854357415D+03

 The electronic state is 1-A.
 Alpha  occ. eigenvalues --  -20.61849 -20.61820 -20.60132 -20.60126 -15.86862
 Alpha  occ. eigenvalues --  -15.85181 -11.31935 -11.30334 -11.28483 -11.28452
 Alpha  occ. eigenvalues --  -11.28143 -11.27414 -11.27398 -11.26920 -11.26907
 Alpha  occ. eigenvalues --  -11.26348 -11.25785 -11.25770  -1.60893  -1.59214
 Alpha  occ. eigenvalues --   -1.40456  -1.38773  -1.20076  -1.18476  -1.09523
 Alpha  occ. eigenvalues --   -1.07856  -1.05436  -1.03867  -0.96410  -0.94731
 Alpha  occ. eigenvalues --   -0.86847  -0.85241  -0.83257  -0.81593  -0.78335
 Alpha  occ. eigenvalues --   -0.76717  -0.73110  -0.72187  -0.71401  -0.71179
 Alpha  occ. eigenvalues --   -0.70537  -0.69429  -0.65733  -0.65433  -0.64103
 Alpha  occ. eigenvalues --   -0.63844  -0.62789  -0.61234  -0.55941  -0.54161
 Alpha  occ. eigenvalues --   -0.53778  -0.53522  -0.52193  -0.51938  -0.49866
 Alpha  occ. eigenvalues --   -0.49816  -0.48170  -0.48137  -0.45922  -0.44228
 Alpha  occ. eigenvalues --   -0.38033  -0.37025  -0.36365  -0.35503
 Alpha virt. eigenvalues --    0.04187   0.05838   0.10635   0.12176   0.15745
 Alpha virt. eigenvalues --    0.17408   0.20785   0.22512   0.26721   0.27588
 Alpha virt. eigenvalues --    0.28232   0.29514   0.30446   0.31881   0.32216

 Mulliken charges:
               1
     1  C   -0.169683
     2  C   -0.218327
     3  C   -0.170163
     4  C    0.157899
     5  C   -0.170188
     6  C   -0.218463
     7  H    0.228286
     8  H    0.225570
     9  H    0.273230
    10  H    0.276566
    11  H    0.225803
    12  N    0.491469
    13  O   -0.457003
    14  O   -0.472478
    15  C   -0.176065
    16  C   -0.220948
    17  C   -0.171811
    18  C    0.156736
    19  C   -0.172515
    20  C   -0.221242
    21  H    0.250715
    22  H    0.223684
    23  H    0.272655
    24  H    0.271466
    25  H    0.222742
    26  N    0.488352
    27  O   -0.463564
    28  O   -0.462723
 Sum of Mulliken charges =  -0.00000

 Dipole moment (field-independent basis, Debye):
    X=             -9.1810    Y=              1.3016    Z=              0.1074  Tot=              9.2734
 Quadrupole moment (field-independent basis, Debye-Ang):
   XX=           -114.5711   YY=           -100.4379   ZZ=           -105.1485
   XY=            -22.7283   XZ=              7.8370   YZ=              3.1503

 Normal termination of Gaussian 16 at Fri May  7 07:53:05 2021.
