 Gaussian 16, Revision A.03,
 Gaussian 16:  EM64L-G16RevA.03 25-Dec-2016

 -------------
 #p 6-31g* mp2
 -------------

 ------------------------------------------------------
 Input file generated by CHIRIPA (05-May-2021 14:51:14)
 ------------------------------------------------------
 Symbolic Z-matrix:
 Charge =  0 Multiplicity = 1

                         Standard orientation:
 ---------------------------------------------------------------------
 Center     Atomic      Atomic             Coordinates (Angstroms)
 Number     Number       Type             X           Y           Z
 ---------------------------------------------------------------------
      1          6           0       -2.509132   -0.772221    0.827835
      2          6           0       -0.981749   -0.715665    0.784377
      3          6           0       -0.326761   -1.618986    1.829746
      4          1           0       -2.852018   -0.483243    1.830764
      5          1           0       -2.835223   -1.810048    0.672995
      6          1           0       -0.658684    0.321969    0.937874
      7          1           0       -0.642468   -1.004626   -0.218621
      8          1           0       -0.620435   -2.662347    1.675621
      9          1           0       -0.636743   -1.328214    2.838687
     10          1           0        0.765195   -1.563150    1.781010
     11          6           0       -3.178413    0.125515   -0.211327
     12          6           0       -4.705796    0.068958   -0.167869
     13          6           0       -5.360784    0.972279   -1.213238
     14          1           0       -2.852322    1.163342   -0.056487
     15          1           0       -2.835527   -0.163463   -1.214256
     16          1           0       -5.045077    0.357920    0.835129
     17          1           0       -5.028861   -0.968676   -0.321366
     18          1           0       -5.050801    0.681507   -2.222179
     19          1           0       -5.067110    2.015640   -1.059113
     20          1           0       -6.452740    0.916444   -1.164502
     21          6           0        2.668433   -0.272504   -0.752824
     22          6           0        3.305953   -1.582894   -0.289761
     23          6           0        2.945854   -2.765729   -1.189221
     24          1           0        1.576909   -0.393533   -0.782385
     25          1           0        2.987533   -0.061516   -1.782900
     26          1           0        2.986846   -1.790638    0.739622
     27          1           0        4.396074   -1.458671   -0.261116
     28          1           0        3.279133   -2.584256   -2.216154
     29          1           0        1.861898   -2.918109   -1.209731
     30          1           0        3.412148   -3.692243   -0.839935
     31          6           0        3.019113    0.919210    0.136316
     32          6           0        2.381592    2.229601   -0.326747
     33          6           0        2.741690    3.412435    0.572712
     34          1           0        2.700013    0.708222    1.166392
     35          1           0        4.110635    1.040240    0.165877
     36          1           0        1.291471    2.105378   -0.355392
     37          1           0        2.700699    2.437345   -1.356131
     38          1           0        3.825647    3.564816    0.593223
     39          1           0        2.408413    3.230963    1.599646
     40          1           0        2.275397    4.338950    0.223427
 ---------------------------------------------------------------------

 SCF Done:  E(RHF) =  -470.732538481     A.U. after   11 cycles
 E2 =    -0.1584739106D+01 EUMP2 =    -0.47231727758767D+03

 The electronic state is 1-A.
 Alpha  occ. eigenvalues --  -11.21719 -11.21643 -11.21571 -11.21570 -11.21474
 Alpha  occ. eigenvalues --  -11.21412 -11.21350 -11.21251 -11.21161 -11.21100
 Alpha  occ. eigenvalues --  -11.21061 -11.21059  -1.08526  -1.08375  -1.03621
 Alpha  occ. eigenvalues --   -1.03496  -0.96057  -0.95946  -0.87071  -0.86967
 Alpha  occ. eigenvalues --   -0.79726  -0.79548  -0.78402  -0.78115  -0.65169
 Alpha  occ. eigenvalues --   -0.65073  -0.61151  -0.60827  -0.59371  -0.59311
 Alpha  occ. eigenvalues --   -0.57667  -0.57538  -0.55337  -0.55225  -0.52765
 Alpha  occ. eigenvalues --   -0.52652  -0.52471  -0.52379  -0.50021  -0.49863
 Alpha  occ. eigenvalues --   -0.48094  -0.47894  -0.46837  -0.46505  -0.46127
 Alpha  occ. eigenvalues --   -0.45771  -0.45715  -0.45280  -0.43807  -0.43747
 Alpha virt. eigenvalues --    0.19612   0.23008   0.23088   0.24999   0.25504
 Alpha virt. eigenvalues --    0.26084   0.26581   0.27771   0.28305   0.29617
 Alpha virt. eigenvalues --    0.30080   0.30790   0.31684   0.32007   0.32379

 Mulliken charges:
               1
     1  C   -0.297531
     2  C   -0.305362
     3  C   -0.482529
     4  H    0.149927
     5  H    0.149892
     6  H    0.154041
     7  H    0.153947
     8  H    0.155806
     9  H    0.155774
    10  H    0.166523
    11  C   -0.298485
    12  C   -0.299701
    13  C   -0.475774
    14  H    0.149440
    15  H    0.149818
    16  H    0.152056
    17  H    0.152075
    18  H    0.155323
    19  H    0.155283
    20  H    0.160415
    21  C   -0.307428
    22  C   -0.302544
    23  C   -0.476217
    24  H    0.160752
    25  H    0.149171
    26  H    0.153756
    27  H    0.152104
    28  H    0.155206
    29  H    0.155170
    30  H    0.160288
    31  C   -0.298542
    32  C   -0.301941
    33  C   -0.475666
    34  H    0.149461
    35  H    0.149514
    36  H    0.153896
    37  H    0.151948
    38  H    0.155237
    39  H    0.154845
    40  H    0.160047
 Sum of Mulliken charges =  -0.00000

 Dipole moment (field-independent basis, Debye):
    X=             -0.0482    Y=             -0.0105    Z=              0.0010  Tot=              0.0494
 Quadrupole moment (field-independent basis, Debye-Ang):
   XX=            -84.6021   YY=            -85.4548   ZZ=            -84.7845
   XY=              0.3609   XZ=             -1.0030   YZ=              0.2890

 Normal termination of Gaussian 16 at Thu May  6 04:01:13 2021.
