 Gaussian 16, Revision A.03,
 Gaussian 16:  EM64L-G16RevA.03 25-Dec-2016

 -------------
 #p 6-31g* mp2
 -------------

 ------------------------------------------------------
 Input file generated by CHIRIPA (05-May-2021 14:51:09)
 ------------------------------------------------------
 Symbolic Z-matrix:
 Charge =  0 Multiplicity = 1

                         Standard orientation:
 ---------------------------------------------------------------------
 Center     Atomic      Atomic             Coordinates (Angstroms)
 Number     Number       Type             X           Y           Z
 ---------------------------------------------------------------------
      1          6           0       -3.763642   -0.674626   -0.018430
      2          6           0       -2.290087   -0.610281    0.384660
      3          6           0       -1.578897   -1.956265    0.242084
      4          1           0       -4.273383   -1.427428    0.598333
      5          1           0       -3.837237   -1.020891   -1.058660
      6          1           0       -2.219231   -0.262915    1.423377
      7          1           0       -1.783836    0.142593   -0.233004
      8          1           0       -1.619946   -2.305752   -0.794630
      9          1           0       -2.057814   -2.713564    0.871162
     10          1           0       -0.526741   -1.887457    0.535498
     11          6           0       -4.488189    0.663271    0.118655
     12          6           0       -5.961744    0.598926   -0.284435
     13          6           0       -6.672934    1.944911   -0.141859
     14          1           0       -4.414594    1.009537    1.158885
     15          1           0       -3.978448    1.416074   -0.498108
     16          1           0       -6.467995   -0.153947    0.333229
     17          1           0       -6.032600    0.251561   -1.323152
     18          1           0       -6.194017    2.702209   -0.770937
     19          1           0       -6.631885    2.294397    0.894855
     20          1           0       -7.725090    1.876102   -0.435273
     21          6           0        3.469811   -0.372581    0.049287
     22          6           0        3.568886   -1.859198   -0.294426
     23          6           0        2.248322   -2.602379   -0.090494
     24          1           0        3.144255   -0.264981    1.093021
     25          1           0        2.688810    0.088746   -0.570880
     26          1           0        4.350420   -2.317293    0.325226
     27          1           0        3.894429   -1.963273   -1.337406
     28          1           0        1.462920   -2.172187   -0.720320
     29          1           0        1.921502   -2.528218    0.951758
     30          1           0        2.341784   -3.663437   -0.342056
     31          6           0        4.782019    0.383936   -0.149513
     32          6           0        4.682946    1.870553    0.194201
     33          6           0        6.003509    2.613734   -0.009731
     34          1           0        5.563021   -0.077391    0.470655
     35          1           0        5.107577    0.276336   -1.193246
     36          1           0        4.357402    1.974627    1.237181
     37          1           0        3.901411    2.328648   -0.425450
     38          1           0        6.330329    2.539573   -1.051982
     39          1           0        6.788911    2.183542    0.620095
     40          1           0        5.910048    3.674791    0.241831
 ---------------------------------------------------------------------

 SCF Done:  E(RHF) =  -470.732564119     A.U. after   11 cycles
 E2 =    -0.1582653496D+01 EUMP2 =    -0.47231521761448D+03

 The electronic state is 1-A.
 Alpha  occ. eigenvalues --  -11.21608 -11.21598 -11.21573 -11.21524 -11.21416
 Alpha  occ. eigenvalues --  -11.21358 -11.21356 -11.21296 -11.21076 -11.21050
 Alpha  occ. eigenvalues --  -11.21044 -11.20878  -1.08440  -1.08377  -1.03550
 Alpha  occ. eigenvalues --   -1.03456  -0.96035  -0.95874  -0.87096  -0.86851
 Alpha  occ. eigenvalues --   -0.79672  -0.79470  -0.78255  -0.78191  -0.65071
 Alpha  occ. eigenvalues --   -0.65008  -0.60959  -0.60847  -0.59444  -0.59266
 Alpha  occ. eigenvalues --   -0.57757  -0.57373  -0.55329  -0.55154  -0.52973
 Alpha  occ. eigenvalues --   -0.52663  -0.52380  -0.52022  -0.49988  -0.49797
 Alpha  occ. eigenvalues --   -0.48027  -0.47704  -0.46657  -0.46543  -0.45792
 Alpha  occ. eigenvalues --   -0.45733  -0.45717  -0.45661  -0.43793  -0.43652
 Alpha virt. eigenvalues --    0.22345   0.23040   0.23626   0.24953   0.26467
 Alpha virt. eigenvalues --    0.26698   0.26938   0.27477   0.27712   0.28996
 Alpha virt. eigenvalues --    0.30658   0.31382   0.31667   0.31880   0.32079

 Mulliken charges:
               1
     1  C   -0.298275
     2  C   -0.299175
     3  C   -0.483131
     4  H    0.149548
     5  H    0.149229
     6  H    0.151427
     7  H    0.151032
     8  H    0.153575
     9  H    0.154109
    10  H    0.170948
    11  C   -0.298139
    12  C   -0.299575
    13  C   -0.475657
    14  H    0.149400
    15  H    0.149403
    16  H    0.151896
    17  H    0.151821
    18  H    0.155082
    19  H    0.155132
    20  H    0.160143
    21  C   -0.298463
    22  C   -0.299754
    23  C   -0.479550
    24  H    0.149433
    25  H    0.149354
    26  H    0.151787
    27  H    0.151867
    28  H    0.160307
    29  H    0.155260
    30  H    0.160708
    31  C   -0.298194
    32  C   -0.299645
    33  C   -0.475721
    34  H    0.149599
    35  H    0.149671
    36  H    0.151985
    37  H    0.151909
    38  H    0.155171
    39  H    0.155201
    40  H    0.160283
 Sum of Mulliken charges =  -0.00000

 Dipole moment (field-independent basis, Debye):
    X=              0.0491    Y=             -0.0204    Z=             -0.0001  Tot=              0.0532
 Quadrupole moment (field-independent basis, Debye-Ang):
   XX=            -86.0594   YY=            -85.9458   ZZ=            -82.8991
   XY=             -0.0416   XZ=              0.1134   YZ=             -0.4132

 Normal termination of Gaussian 16 at Wed May  5 15:08:52 2021.
