 Gaussian 16, Revision A.03,
 Gaussian 16:  EM64L-G16RevA.03 25-Dec-2016

 -------------
 #p 6-31g* mp2
 -------------

 ------------------------------------------------------
 Input file generated by CHIRIPA (05-May-2021 14:57:25)
 ------------------------------------------------------
 Symbolic Z-matrix:
 Charge =  0 Multiplicity = 1

                         Standard orientation:
 ---------------------------------------------------------------------
 Center     Atomic      Atomic             Coordinates (Angstroms)
 Number     Number       Type             X           Y           Z
 ---------------------------------------------------------------------
      1          6           0       -3.896047   -2.171008    0.597278
      2          6           0       -3.724862   -1.119362    1.503510
      3          6           0       -3.212695    0.109467    1.076648
      4          6           0       -2.880657    0.252559   -0.269668
      5          6           0       -3.039617   -0.776281   -1.196766
      6          6           0       -3.553482   -1.996419   -0.747597
      7          1           0       -4.294570   -3.122217    0.937540
      8          1           0       -3.990045   -1.252096    2.548548
      9          1           0       -3.069937    0.940330    1.756872
     10          1           0       -2.766237   -0.613893   -2.232291
     11          1           0       -3.685354   -2.811389   -1.453627
     12          7           0       -2.337550    1.548865   -0.733376
     13          8           0       -2.052649    1.649540   -1.924734
     14          8           0       -2.207047    2.439688    0.103308
     15          6           0        5.135688   -0.805927   -0.849893
     16          6           0        5.097333   -0.450817    0.502493
     17          6           0        3.903024   -0.024415    1.091013
     18          6           0        2.760813    0.035241    0.294090
     19          6           0        2.766987   -0.311857   -1.056012
     20          6           0        3.972443   -0.735438   -1.623465
     21          1           0        6.067785   -1.136071   -1.298886
     22          1           0        5.999174   -0.504582    1.105682
     23          1           0        3.845061    0.256419    2.135613
     24          1           0        1.851655   -0.247955   -1.631774
     25          1           0        3.999266   -1.010600   -2.673994
     26          7           0        1.490551    0.485160    0.905978
     27          8           0        0.498051    0.529016    0.182337
     28          8           0        1.511473    0.785434    2.097630
 ---------------------------------------------------------------------

 SCF Done:  E(RHF) =  -868.338184154     A.U. after   16 cycles
 E2 =    -0.2601205719D+01 EUMP2 =    -0.87093938987274D+03

 The electronic state is 1-A.
 Alpha  occ. eigenvalues --  -20.60650 -20.60628 -20.59289 -20.59223 -15.85696
 Alpha  occ. eigenvalues --  -15.84322 -11.31017 -11.29874 -11.27600 -11.27556
 Alpha  occ. eigenvalues --  -11.27346 -11.26614 -11.26588 -11.26563 -11.26430
 Alpha  occ. eigenvalues --  -11.26370 -11.25680 -11.25590  -1.59694  -1.58287
 Alpha  occ. eigenvalues --   -1.39257  -1.37860  -1.19190  -1.18089  -1.08598
 Alpha  occ. eigenvalues --   -1.07459  -1.04590  -1.03564  -0.95444  -0.94272
 Alpha  occ. eigenvalues --   -0.85991  -0.84954  -0.82294  -0.81137  -0.77326
 Alpha  occ. eigenvalues --   -0.76123  -0.72114  -0.71002  -0.70601  -0.70314
 Alpha  occ. eigenvalues --   -0.69345  -0.69270  -0.64844  -0.64597  -0.63782
 Alpha  occ. eigenvalues --   -0.63620  -0.61933  -0.60929  -0.55105  -0.54114
 Alpha  occ. eigenvalues --   -0.52922  -0.52685  -0.51850  -0.51695  -0.48701
 Alpha  occ. eigenvalues --   -0.48654  -0.47362  -0.47303  -0.44663  -0.43228
 Alpha  occ. eigenvalues --   -0.37180  -0.36194  -0.36052  -0.35172
 Alpha virt. eigenvalues --    0.05217   0.06517   0.11464   0.12485   0.16699
 Alpha virt. eigenvalues --    0.17919   0.21582   0.22416   0.27495   0.28273
 Alpha virt. eigenvalues --    0.28481   0.29359   0.31116   0.31880   0.32752

 Mulliken charges:
               1
     1  C   -0.172728
     2  C   -0.219817
     3  C   -0.163847
     4  C    0.171808
     5  C   -0.172906
     6  C   -0.219825
     7  H    0.219872
     8  H    0.219792
     9  H    0.277631
    10  H    0.269359
    11  H    0.216685
    12  N    0.499870
    13  O   -0.471727
    14  O   -0.456132
    15  C   -0.170750
    16  C   -0.218846
    17  C   -0.170623
    18  C    0.157784
    19  C   -0.170240
    20  C   -0.218893
    21  H    0.224972
    22  H    0.222712
    23  H    0.275025
    24  H    0.278975
    25  H    0.223404
    26  N    0.495659
    27  O   -0.467122
    28  O   -0.460094
 Sum of Mulliken charges =  -0.00000

 Dipole moment (field-independent basis, Debye):
    X=              2.8343    Y=             -5.8901    Z=             -0.3827  Tot=              6.5478
 Quadrupole moment (field-independent basis, Debye-Ang):
   XX=            -70.4957   YY=           -108.4261   ZZ=            -99.3439
   XY=              8.0328   XZ=             -7.4679   YZ=              3.8629

 Normal termination of Gaussian 16 at Thu May  6 03:33:19 2021.
