 Gaussian 16, Revision A.03,
 Gaussian 16:  EM64L-G16RevA.03 25-Dec-2016

 -------------
 #p 6-31g* mp2
 -------------

 ------------------------------------------------------
 Input file generated by CHIRIPA (05-May-2021 14:51:12)
 ------------------------------------------------------
 Symbolic Z-matrix:
 Charge =  0 Multiplicity = 1

                         Standard orientation:
 ---------------------------------------------------------------------
 Center     Atomic      Atomic             Coordinates (Angstroms)
 Number     Number       Type             X           Y           Z
 ---------------------------------------------------------------------
      1          6           0       -3.832228   -0.422813   -0.244976
      2          6           0       -5.294176   -0.830956   -0.060281
      3          6           0       -5.875910   -1.520502   -1.294747
      4          1           0       -3.751779    0.246336   -1.112566
      5          1           0       -3.236816   -1.315307   -0.482322
      6          1           0       -5.886423    0.061836    0.178009
      7          1           0       -5.371182   -1.499058    0.807086
      8          1           0       -5.310139   -2.427258   -1.532015
      9          1           0       -5.828307   -0.857496   -2.164666
     10          1           0       -6.921836   -1.803748   -1.140893
     11          6           0       -3.236567    0.267748    0.980602
     12          6           0       -1.774619    0.675891    0.795908
     13          6           0       -1.192885    1.365436    2.030374
     14          1           0       -3.831979    1.160242    1.217949
     15          1           0       -3.317016   -0.401401    1.848193
     16          1           0       -1.697613    1.343993   -0.071459
     17          1           0       -1.182372   -0.216901    0.557618
     18          1           0       -1.240488    0.702431    2.900293
     19          1           0       -1.758657    2.272193    2.267642
     20          1           0       -0.146960    1.648683    1.876520
     21          6           0        3.692093   -0.616972   -0.091720
     22          6           0        5.190684   -0.902463    0.011737
     23          6           0        5.490179   -2.295727    0.565732
     24          1           0        3.235457   -0.724052    0.901740
     25          1           0        3.224760   -1.376219   -0.734014
     26          1           0        5.655280   -0.142097    0.652525
     27          1           0        5.643839   -0.794503   -0.982050
     28          1           0        5.053215   -3.067603   -0.076039
     29          1           0        5.064722   -2.411490    1.567824
     30          1           0        6.567250   -2.478728    0.631234
     31          6           0        3.376703    0.772038   -0.643907
     32          6           0        1.878112    1.057528   -0.747364
     33          6           0        1.578616    2.450792   -1.301359
     34          1           0        3.844036    1.531284   -0.001614
     35          1           0        3.833339    0.879118   -1.637366
     36          1           0        1.424957    0.949567    0.246423
     37          1           0        1.413515    0.297162   -1.388152
     38          1           0        2.004074    2.566555   -2.303450
     39          1           0        2.015580    3.222668   -0.659588
     40          1           0        0.501546    2.633793   -1.366861
 ---------------------------------------------------------------------

 SCF Done:  E(RHF) =  -470.732977326     A.U. after   11 cycles
 E2 =    -0.1583371752D+01 EUMP2 =    -0.47231634907798D+03

 The electronic state is 1-A.
 Alpha  occ. eigenvalues --  -11.21601 -11.21597 -11.21581 -11.21541 -11.21402
 Alpha  occ. eigenvalues --  -11.21392 -11.21342 -11.21330 -11.21071 -11.21071
 Alpha  occ. eigenvalues --  -11.21070 -11.21058  -1.08447  -1.08398  -1.03583
 Alpha  occ. eigenvalues --   -1.03464  -0.96018  -0.95934  -0.87006  -0.86978
 Alpha  occ. eigenvalues --   -0.79632  -0.79543  -0.78306  -0.78160  -0.65069
 Alpha  occ. eigenvalues --   -0.65051  -0.60979  -0.60927  -0.59568  -0.59149
 Alpha  occ. eigenvalues --   -0.57780  -0.57343  -0.55270  -0.55251  -0.52708
 Alpha  occ. eigenvalues --   -0.52640  -0.52430  -0.52379  -0.49921  -0.49904
 Alpha  occ. eigenvalues --   -0.47923  -0.47893  -0.46624  -0.46576  -0.45854
 Alpha  occ. eigenvalues --   -0.45743  -0.45682  -0.45626  -0.43789  -0.43756
 Alpha virt. eigenvalues --    0.20906   0.23106   0.23413   0.25140   0.25961
 Alpha virt. eigenvalues --    0.26393   0.26654   0.27594   0.27905   0.29101
 Alpha virt. eigenvalues --    0.29952   0.30970   0.31229   0.31867   0.32409

 Mulliken charges:
               1
     1  C   -0.298245
     2  C   -0.299640
     3  C   -0.475707
     4  H    0.149500
     5  H    0.149569
     6  H    0.151932
     7  H    0.151953
     8  H    0.155163
     9  H    0.155161
    10  H    0.160258
    11  C   -0.298480
    12  C   -0.301337
    13  C   -0.480541
    14  H    0.149405
    15  H    0.149623
    16  H    0.153516
    17  H    0.153701
    18  H    0.155056
    19  H    0.155435
    20  H    0.163648
    21  C   -0.298307
    22  C   -0.299594
    23  C   -0.475713
    24  H    0.149444
    25  H    0.149391
    26  H    0.151949
    27  H    0.151975
    28  H    0.155107
    29  H    0.155146
    30  H    0.160258
    31  C   -0.297938
    32  C   -0.306158
    33  C   -0.477740
    34  H    0.149154
    35  H    0.149498
    36  H    0.159415
    37  H    0.152273
    38  H    0.155207
    39  H    0.154773
    40  H    0.161890
 Sum of Mulliken charges =  -0.00000

 Dipole moment (field-independent basis, Debye):
    X=             -0.0091    Y=             -0.0046    Z=              0.0003  Tot=              0.0102
 Quadrupole moment (field-independent basis, Debye-Ang):
   XX=            -85.2714   YY=            -85.0472   ZZ=            -84.5693
   XY=             -0.2025   XZ=             -0.4591   YZ=             -0.0131

 Normal termination of Gaussian 16 at Thu May  6 05:30:43 2021.
