 Gaussian 16, Revision A.03,
 Gaussian 16:  EM64L-G16RevA.03 25-Dec-2016

 -------------
 #p 6-31g* mp2
 -------------

 ------------------------------------------------------
 Input file generated by CHIRIPA (05-May-2021 14:55:19)
 ------------------------------------------------------
 Symbolic Z-matrix:
 Charge =  0 Multiplicity = 1

                         Standard orientation:
 ---------------------------------------------------------------------
 Center     Atomic      Atomic             Coordinates (Angstroms)
 Number     Number       Type             X           Y           Z
 ---------------------------------------------------------------------
      1          6           0       -4.185269   -0.619219   -1.459620
      2          6           0       -3.635364    0.663549   -1.366709
      3          6           0       -2.668791    0.953316   -0.399073
      4          6           0       -2.273472   -0.068119    0.463297
      5          6           0       -2.802615   -1.356042    0.395829
      6          6           0       -3.767875   -1.623151   -0.579606
      7          1           0       -4.935617   -0.835516   -2.214332
      8          1           0       -3.957618    1.445175   -2.048807
      9          1           0       -2.226536    1.937683   -0.304996
     10          1           0       -2.461358   -2.114552    1.089821
     11          1           0       -4.193206   -2.620278   -0.649440
     12          7           0       -1.250899    0.226650    1.491818
     13          8           0       -0.919524   -0.690673    2.239712
     14          8           0       -0.800144    1.369433    1.530604
     15          6           0        2.619927    0.679481   -0.591796
     16          6           0        2.963462    2.083720   -0.093720
     17          6           0        1.942200    3.133224   -0.533446
     18          1           0        2.554045    0.692187   -1.688355
     19          1           0        1.623553    0.400381   -0.222015
     20          1           0        3.959472    2.359538   -0.463185
     21          1           0        3.028722    2.067627    1.001769
     22          1           0        0.946310    2.885024   -0.152395
     23          1           0        1.882348    3.178593   -1.625673
     24          1           0        2.207203    4.129715   -0.166514
     25          6           0        3.631605   -0.380727   -0.160293
     26          6           0        3.288070   -1.784966   -0.658368
     27          6           0        4.309332   -2.834470   -0.218643
     28          1           0        4.627979   -0.101627   -0.530074
     29          1           0        3.697487   -0.393433    0.936266
     30          1           0        3.222810   -1.768873   -1.753858
     31          1           0        2.292060   -2.060784   -0.288904
     32          1           0        4.369184   -2.879839    0.873584
     33          1           0        5.305222   -2.586270   -0.599694
     34          1           0        4.044329   -3.830961   -0.585575
 ---------------------------------------------------------------------

 SCF Done:  E(RHF) =  -669.536464229     A.U. after   15 cycles
 E2 =    -0.2091962974D+01 EUMP2 =    -0.67162842720269D+03

 The electronic state is 1-A.
 Alpha  occ. eigenvalues --  -20.61052 -20.61045 -15.86067 -11.31325 -11.27884
 Alpha  occ. eigenvalues --  -11.27879 -11.27611 -11.26878 -11.26867 -11.21010
 Alpha  occ. eigenvalues --  -11.20653 -11.20627 -11.20560 -11.20527 -11.20075
 Alpha  occ. eigenvalues --   -1.60106  -1.39663  -1.19489  -1.08907  -1.07638
 Alpha  occ. eigenvalues --   -1.04876  -1.02749  -0.95760  -0.95211  -0.86281
 Alpha  occ. eigenvalues --   -0.86238  -0.82596  -0.78843  -0.77664  -0.77456
 Alpha  occ. eigenvalues --   -0.72296  -0.71418  -0.70600  -0.65149  -0.64880
 Alpha  occ. eigenvalues --   -0.64238  -0.62226  -0.60117  -0.58604  -0.56835
 Alpha  occ. eigenvalues --   -0.55386  -0.54474  -0.53210  -0.52969  -0.51931
 Alpha  occ. eigenvalues --   -0.51658  -0.49220  -0.49041  -0.48977  -0.47171
 Alpha  occ. eigenvalues --   -0.45887  -0.45270  -0.44976  -0.44652  -0.43016
 Alpha  occ. eigenvalues --   -0.37465  -0.36472
 Alpha virt. eigenvalues --    0.04832   0.11173   0.16298   0.21141   0.23616
 Alpha virt. eigenvalues --    0.24898   0.26615   0.27306   0.27859   0.28210
 Alpha virt. eigenvalues --    0.29048   0.30597   0.31608   0.32434   0.32583

 Mulliken charges:
               1
     1  C   -0.170305
     2  C   -0.218654
     3  C   -0.170490
     4  C    0.157479
     5  C   -0.170719
     6  C   -0.218545
     7  H    0.226197
     8  H    0.224259
     9  H    0.276750
    10  H    0.275742
    11  H    0.223967
    12  N    0.489997
    13  O   -0.458532
    14  O   -0.461599
    15  C   -0.298495
    16  C   -0.296157
    17  C   -0.485232
    18  H    0.143009
    19  H    0.152658
    20  H    0.146404
    21  H    0.159567
    22  H    0.172602
    23  H    0.145656
    24  H    0.156897
    25  C   -0.298307
    26  C   -0.299333
    27  C   -0.475396
    28  H    0.146378
    29  H    0.155158
    30  H    0.147935
    31  H    0.153077
    32  H    0.157408
    33  H    0.153588
    34  H    0.157037
 Sum of Mulliken charges =  -0.00000

 Dipole moment (field-independent basis, Debye):
    X=             -3.8352    Y=             -1.0687    Z=             -3.4282  Tot=              5.2540
 Quadrupole moment (field-independent basis, Debye-Ang):
   XX=            -79.5464   YY=            -91.4052   ZZ=            -97.7259
   XY=              3.5920   XZ=              6.7262   YZ=             -1.7461

 Normal termination of Gaussian 16 at Thu May  6 20:39:29 2021.
