 Gaussian 16, Revision A.03,
 Gaussian 16:  EM64L-G16RevA.03 25-Dec-2016

 -------------
 #p 6-31g* mp2
 -------------

 ------------------------------------------------------
 Input file generated by CHIRIPA (05-May-2021 14:55:23)
 ------------------------------------------------------
 Symbolic Z-matrix:
 Charge =  0 Multiplicity = 1

                         Standard orientation:
 ---------------------------------------------------------------------
 Center     Atomic      Atomic             Coordinates (Angstroms)
 Number     Number       Type             X           Y           Z
 ---------------------------------------------------------------------
      1          6           0       -2.054349    2.219558   -0.076089
      2          6           0       -1.560532    1.286262    0.841311
      3          6           0       -2.115572    0.005505    0.919679
      4          6           0       -3.168125   -0.309632    0.061711
      5          6           0       -3.682106    0.598237   -0.862891
      6          6           0       -3.111695    1.873178   -0.923769
      7          1           0       -1.617211    3.212222   -0.130174
      8          1           0       -0.739467    1.552494    1.500870
      9          1           0       -1.752669   -0.736431    1.620571
     10          1           0       -4.501468    0.303635   -1.507308
     11          1           0       -3.497233    2.595953   -1.637212
     12          7           0       -3.763857   -1.662433    0.135417
     13          8           0       -4.690412   -1.915410   -0.631483
     14          8           0       -3.292956   -2.444166    0.958692
     15          6           0        3.324467    0.554330   -0.207471
     16          6           0        3.426275    1.943056    0.424240
     17          6           0        2.208331    2.818359    0.127171
     18          1           0        3.203958    0.660786   -1.294251
     19          1           0        2.416139    0.057442    0.160548
     20          1           0        4.334870    2.436637    0.056202
     21          1           0        3.546749    1.833276    1.509619
     22          1           0        1.295313    2.350663    0.509609
     23          1           0        2.087911    2.957451   -0.952067
     24          1           0        2.302064    3.806541    0.588224
     25          6           0        4.534583   -0.332445    0.080590
     26          6           0        4.432775   -1.721171   -0.551121
     27          6           0        5.650720   -2.596475   -0.254053
     28          1           0        5.442911    0.164442   -0.287430
     29          1           0        4.655092   -0.438902    1.167369
     30          1           0        4.312302   -1.611391   -1.636502
     31          1           0        3.524181   -2.214752   -0.183085
     32          1           0        5.771139   -2.735567    0.825184
     33          1           0        6.563738   -2.128779   -0.636491
     34          1           0        5.556988   -3.584657   -0.715106
 ---------------------------------------------------------------------

 SCF Done:  E(RHF) =  -669.535357324     A.U. after   15 cycles
 E2 =    -0.2091379318D+01 EUMP2 =    -0.67162673664119D+03

 The electronic state is 1-A.
 Alpha  occ. eigenvalues --  -20.60762 -20.60757 -15.85816 -11.31182 -11.27761
 Alpha  occ. eigenvalues --  -11.27756 -11.27483 -11.26760 -11.26750 -11.22295
 Alpha  occ. eigenvalues --  -11.22026 -11.21905 -11.21843 -11.21737 -11.21241
 Alpha  occ. eigenvalues --   -1.59838  -1.39391  -1.19357  -1.08907  -1.08747
 Alpha  occ. eigenvalues --   -1.04766  -1.04030  -0.96501  -0.95581  -0.87528
 Alpha  occ. eigenvalues --   -0.86161  -0.82417  -0.80107  -0.78677  -0.77469
 Alpha  occ. eigenvalues --   -0.72035  -0.71161  -0.70452  -0.65563  -0.65010
 Alpha  occ. eigenvalues --   -0.64787  -0.62161  -0.61397  -0.59878  -0.58080
 Alpha  occ. eigenvalues --   -0.55813  -0.55242  -0.53211  -0.53138  -0.52966
 Alpha  occ. eigenvalues --   -0.52755  -0.50440  -0.48796  -0.48789  -0.48405
 Alpha  occ. eigenvalues --   -0.47125  -0.46227  -0.46130  -0.44797  -0.44269
 Alpha  occ. eigenvalues --   -0.37316  -0.36359
 Alpha virt. eigenvalues --    0.05071   0.11161   0.16541   0.20246   0.22598
 Alpha virt. eigenvalues --    0.23899   0.25692   0.26475   0.27151   0.27996
 Alpha virt. eigenvalues --    0.28839   0.30108   0.31055   0.31650   0.31859

 Mulliken charges:
               1
     1  C   -0.170066
     2  C   -0.219716
     3  C   -0.171716
     4  C    0.158441
     5  C   -0.170689
     6  C   -0.218935
     7  H    0.227640
     8  H    0.225064
     9  H    0.275365
    10  H    0.275639
    11  H    0.223513
    12  N    0.488099
    13  O   -0.460402
    14  O   -0.460581
    15  C   -0.298136
    16  C   -0.299691
    17  C   -0.480686
    18  H    0.151405
    19  H    0.148012
    20  H    0.155053
    21  H    0.152040
    22  H    0.147692
    23  H    0.157992
    24  H    0.160512
    25  C   -0.298799
    26  C   -0.300269
    27  C   -0.476052
    28  H    0.150263
    29  H    0.149779
    30  H    0.152731
    31  H    0.153635
    32  H    0.155517
    33  H    0.155103
    34  H    0.162243
 Sum of Mulliken charges =  -0.00000

 Dipole moment (field-independent basis, Debye):
    X=              2.2064    Y=              4.7334    Z=             -0.3206  Tot=              5.2322
 Quadrupole moment (field-independent basis, Debye-Ang):
   XX=           -106.4278   YY=            -98.4719   ZZ=            -91.8456
   XY=            -16.1410   XZ=              3.1231   YZ=             -0.9675

 Normal termination of Gaussian 16 at Wed May  5 17:32:38 2021.
