 Gaussian 16, Revision A.03,
 Gaussian 16:  EM64L-G16RevA.03 25-Dec-2016

 -------------
 #p 6-31g* mp2
 -------------

 ------------------------------------------------------
 Input file generated by CHIRIPA (05-May-2021 14:53:17)
 ------------------------------------------------------
 Symbolic Z-matrix:
 Charge =  0 Multiplicity = 1

                         Standard orientation:
 ---------------------------------------------------------------------
 Center     Atomic      Atomic             Coordinates (Angstroms)
 Number     Number       Type             X           Y           Z
 ---------------------------------------------------------------------
      1          6           0        4.151580    0.178186    0.057372
      2          6           0        4.021315   -1.219000   -0.549989
      3          6           0        5.338869   -1.994671   -0.536444
      4          1           0        4.916021    0.741446   -0.495180
      5          1           0        4.514956    0.088871    1.090510
      6          1           0        3.656974   -1.127151   -1.581219
      7          1           0        3.256960   -1.778934    0.003952
      8          1           0        5.704079   -2.115795    0.488519
      9          1           0        6.106366   -1.460308   -1.105658
     10          1           0        5.222936   -2.990616   -0.975208
     11          6           0        2.842731    0.965969    0.051004
     12          6           0        2.972996    2.363155    0.658365
     13          6           0        1.655442    3.138825    0.644820
     14          1           0        2.479355    1.055284   -0.982135
     15          1           0        2.078290    0.402709    0.603556
     16          1           0        3.737351    2.923089    0.104424
     17          1           0        3.337337    2.271305    1.689594
     18          1           0        0.887945    2.604463    1.214034
     19          1           0        1.290232    3.259949   -0.380144
     20          1           0        1.771375    4.134770    1.083583
     21          6           0       -0.801710   -1.994160    0.453051
     22          6           0       -2.071965   -2.272573    0.968277
     23          6           0       -3.148875   -1.422291    0.700258
     24          6           0       -2.918781   -0.297355   -0.090226
     25          6           0       -1.664964    0.007080   -0.618005
     26          6           0       -0.602614   -0.857227   -0.337052
     27          1           0        0.029205   -2.660127    0.666277
     28          1           0       -2.229521   -3.154808    1.582185
     29          1           0       -4.142650   -1.613965    1.086381
     30          1           0       -1.538828    0.894156   -1.226779
     31          1           0        0.382795   -0.638506   -0.738519
     32          7           0       -4.051150    0.610223   -0.380812
     33          8           0       -3.822329    1.594860   -1.079932
     34          8           0       -5.146080    0.319763    0.096050
 ---------------------------------------------------------------------

 SCF Done:  E(RHF) =  -669.535382047     A.U. after   15 cycles
 E2 =    -0.2092342515D+01 EUMP2 =    -0.67162772456215D+03

 The electronic state is 1-A.
 Alpha  occ. eigenvalues --  -20.60708 -20.60702 -15.85759 -11.31118 -11.27685
 Alpha  occ. eigenvalues --  -11.27657 -11.27415 -11.26708 -11.26593 -11.22641
 Alpha  occ. eigenvalues --  -11.22352 -11.22246 -11.22228 -11.21881 -11.21551
 Alpha  occ. eigenvalues --   -1.59783  -1.39337  -1.19282  -1.09311  -1.08679
 Alpha  occ. eigenvalues --   -1.04678  -1.04304  -0.96737  -0.95518  -0.87752
 Alpha  occ. eigenvalues --   -0.86080  -0.82351  -0.80389  -0.79199  -0.77375
 Alpha  occ. eigenvalues --   -0.71978  -0.71106  -0.70394  -0.65942  -0.64929
 Alpha  occ. eigenvalues --   -0.64673  -0.62035  -0.61692  -0.60115  -0.58362
 Alpha  occ. eigenvalues --   -0.56010  -0.55186  -0.53406  -0.53257  -0.53012
 Alpha  occ. eigenvalues --   -0.52675  -0.50673  -0.48748  -0.48734  -0.48687
 Alpha  occ. eigenvalues --   -0.47427  -0.46621  -0.46595  -0.44744  -0.44582
 Alpha  occ. eigenvalues --   -0.37264  -0.36262
 Alpha virt. eigenvalues --    0.05122   0.11268   0.16584   0.19786   0.22652
 Alpha virt. eigenvalues --    0.23196   0.24796   0.25311   0.26936   0.28365
 Alpha virt. eigenvalues --    0.29261   0.30593   0.31119   0.31207   0.31592

 Mulliken charges:
               1
     1  C   -0.297408
     2  C   -0.301365
     3  C   -0.475893
     4  H    0.153720
     5  H    0.152406
     6  H    0.151812
     7  H    0.143151
     8  H    0.157170
     9  H    0.158775
    10  H    0.161357
    11  C   -0.306349
    12  C   -0.299352
    13  C   -0.477962
    14  H    0.145514
    15  H    0.149652
    16  H    0.154549
    17  H    0.154258
    18  H    0.157642
    19  H    0.154429
    20  H    0.164836
    21  C   -0.174515
    22  C   -0.218215
    23  C   -0.171382
    24  C    0.158676
    25  C   -0.173720
    26  C   -0.222705
    27  H    0.225545
    28  H    0.222970
    29  H    0.275269
    30  H    0.275724
    31  H    0.234469
    32  N    0.488077
    33  O   -0.460375
    34  O   -0.460763
 Sum of Mulliken charges =  -0.00000

 Dipole moment (field-independent basis, Debye):
    X=              4.2057    Y=             -3.0845    Z=              1.0621  Tot=              5.3226
 Quadrupole moment (field-independent basis, Debye-Ang):
   XX=           -116.5056   YY=            -91.6069   ZZ=            -93.2306
   XY=             11.0503   XZ=             -5.3627   YZ=             -2.1361

 Normal termination of Gaussian 16 at Thu May  6 20:31:28 2021.
