 Gaussian 16, Revision A.03,
 Gaussian 16:  EM64L-G16RevA.03 25-Dec-2016

 -------------
 #p 6-31g* mp2
 -------------

 ------------------------------------------------------
 Input file generated by CHIRIPA (05-May-2021 14:51:09)
 ------------------------------------------------------
 Symbolic Z-matrix:
 Charge =  0 Multiplicity = 1

                         Standard orientation:
 ---------------------------------------------------------------------
 Center     Atomic      Atomic             Coordinates (Angstroms)
 Number     Number       Type             X           Y           Z
 ---------------------------------------------------------------------
      1          6           0       -2.106842    0.638966   -0.150548
      2          6           0       -3.036046    1.724651    0.393376
      3          6           0       -2.505455    3.136637    0.143254
      4          1           0       -1.116376    0.747341    0.312245
      5          1           0       -1.966320    0.793103   -1.229385
      6          1           0       -3.175877    1.567694    1.470607
      7          1           0       -4.024469    1.613559   -0.070622
      8          1           0       -2.382837    3.317690   -0.929492
      9          1           0       -1.529423    3.271564    0.620494
     10          1           0       -3.185188    3.897100    0.540142
     11          6           0       -2.623673   -0.778023    0.091849
     12          6           0       -1.694469   -1.863708   -0.452074
     13          6           0       -2.225060   -3.275695   -0.201953
     14          1           0       -2.764195   -0.932161    1.170687
     15          1           0       -3.614139   -0.886399   -0.370943
     16          1           0       -0.706046   -1.752617    0.011924
     17          1           0       -1.554638   -1.706752   -1.529306
     18          1           0       -3.201092   -3.410621   -0.679192
     19          1           0       -2.347678   -3.456747    0.870794
     20          1           0       -1.545327   -4.036158   -0.598840
     21          6           0        2.385195    0.700437   -0.400755
     22          6           0        2.423717    1.991358    0.417797
     23          6           0        2.463358    3.244908   -0.456750
     24          1           0        3.265360    0.663608   -1.057185
     25          1           0        1.505191    0.717713   -1.058545
     26          1           0        3.302629    1.971038    1.074849
     27          1           0        1.543459    2.025026    1.072494
     28          1           0        1.580265    3.292479   -1.102106
     29          1           0        3.349431    3.238185   -1.099738
     30          1           0        2.490515    4.156190    0.148797
     31          6           0        2.345320   -0.561380    0.459453
     32          6           0        2.306798   -1.852300   -0.359099
     33          6           0        2.267157   -3.105851    0.515449
     34          1           0        3.225324   -0.578655    1.117243
     35          1           0        1.465156   -0.524551    1.115883
     36          1           0        3.187056   -1.885969   -1.013795
     37          1           0        1.427886   -1.831981   -1.016150
     38          1           0        1.381084   -3.099127    1.158436
     39          1           0        3.150250   -3.153421    1.160804
     40          1           0        2.240000   -4.017132   -0.090099
 ---------------------------------------------------------------------

 SCF Done:  E(RHF) =  -470.732813809     A.U. after   11 cycles
 E2 =    -0.1585264467D+01 EUMP2 =    -0.47231807827633D+03

 The electronic state is 1-A.
 Alpha  occ. eigenvalues --  -11.21667 -11.21634 -11.21609 -11.21535 -11.21485
 Alpha  occ. eigenvalues --  -11.21420 -11.21402 -11.21331 -11.21125 -11.21109
 Alpha  occ. eigenvalues --  -11.21071 -11.21049  -1.08538  -1.08393  -1.03633
 Alpha  occ. eigenvalues --   -1.03481  -0.96056  -0.95952  -0.87070  -0.86969
 Alpha  occ. eigenvalues --   -0.79711  -0.79539  -0.78354  -0.78218  -0.65443
 Alpha  occ. eigenvalues --   -0.64786  -0.61306  -0.60679  -0.59382  -0.59313
 Alpha  occ. eigenvalues --   -0.57666  -0.57568  -0.55444  -0.55121  -0.52732
 Alpha  occ. eigenvalues --   -0.52651  -0.52481  -0.52377  -0.50040  -0.49859
 Alpha  occ. eigenvalues --   -0.48148  -0.47752  -0.46688  -0.46591  -0.46165
 Alpha  occ. eigenvalues --   -0.45931  -0.45577  -0.45362  -0.43848  -0.43764
 Alpha virt. eigenvalues --    0.19089   0.21461   0.23751   0.25418   0.25542
 Alpha virt. eigenvalues --    0.25992   0.26117   0.28189   0.29055   0.29755
 Alpha virt. eigenvalues --    0.30569   0.31424   0.31669   0.31780   0.32410

 Mulliken charges:
               1
     1  C   -0.303620
     2  C   -0.299588
     3  C   -0.476935
     4  H    0.153794
     5  H    0.149425
     6  H    0.152090
     7  H    0.152421
     8  H    0.155178
     9  H    0.156236
    10  H    0.160733
    11  C   -0.297467
    12  C   -0.309559
    13  C   -0.475657
    14  H    0.149355
    15  H    0.150032
    16  H    0.162812
    17  H    0.151358
    18  H    0.155335
    19  H    0.154967
    20  H    0.161277
    21  C   -0.299927
    22  C   -0.301056
    23  C   -0.476202
    24  H    0.149827
    25  H    0.152452
    26  H    0.151950
    27  H    0.151717
    28  H    0.156476
    29  H    0.155094
    30  H    0.160141
    31  C   -0.300686
    32  C   -0.305614
    33  C   -0.476909
    34  H    0.149888
    35  H    0.149207
    36  H    0.152792
    37  H    0.157492
    38  H    0.155639
    39  H    0.155291
    40  H    0.160243
 Sum of Mulliken charges =  -0.00000

 Dipole moment (field-independent basis, Debye):
    X=             -0.0231    Y=             -0.0048    Z=             -0.0203  Tot=              0.0311
 Quadrupole moment (field-independent basis, Debye-Ang):
   XX=            -83.5608   YY=            -86.9046   ZZ=            -84.2349
   XY=             -0.3522   XZ=              0.4551   YZ=              0.5877

 Normal termination of Gaussian 16 at Wed May  5 21:23:16 2021.
