 Gaussian 16, Revision A.03,
 Gaussian 16:  EM64L-G16RevA.03 25-Dec-2016

 -------------
 #p 6-31g* mp2
 -------------

 ------------------------------------------------------
 Input file generated by CHIRIPA (05-May-2021 14:55:24)
 ------------------------------------------------------
 Symbolic Z-matrix:
 Charge =  0 Multiplicity = 1

                         Standard orientation:
 ---------------------------------------------------------------------
 Center     Atomic      Atomic             Coordinates (Angstroms)
 Number     Number       Type             X           Y           Z
 ---------------------------------------------------------------------
      1          6           0        2.942528   -2.137931   -1.320836
      2          6           0        1.918623   -1.797558   -0.430732
      3          6           0        1.920864   -0.556547    0.213035
      4          6           0        2.967167    0.323886   -0.057849
      5          6           0        4.001555    0.013892   -0.939458
      6          6           0        3.978899   -1.232716   -1.571916
      7          1           0        2.932857   -3.104152   -1.816537
      8          1           0        1.112493   -2.498576   -0.233823
      9          1           0        1.140762   -0.267340    0.906734
     10          1           0        4.791755    0.733611   -1.115546
     11          1           0        4.775394   -1.494360   -2.262700
     12          7           0        2.980346    1.640651    0.617692
     13          8           0        3.913445    2.398660    0.361990
     14          8           0        2.057326    1.889789    1.390092
     15          6           0       -3.231772   -0.106280    0.731395
     16          6           0       -2.938239   -1.454785    1.389696
     17          6           0       -1.808673   -1.377573    2.417273
     18          1           0       -2.318176    0.264665    0.246950
     19          1           0       -3.491924    0.624771    1.509394
     20          1           0       -2.680066   -2.183427    0.610565
     21          1           0       -3.852690   -1.822653    1.872466
     22          1           0       -2.061244   -0.671663    3.215082
     23          1           0       -0.881956   -1.034486    1.946011
     24          1           0       -1.615486   -2.352529    2.875528
     25          6           0       -4.358615   -0.167299   -0.298280
     26          6           0       -4.652148    1.181205   -0.956579
     27          6           0       -5.781713    1.103994   -1.984156
     28          1           0       -4.098463   -0.898350   -1.076277
     29          1           0       -5.272210   -0.538245    0.186165
     30          1           0       -3.737697    1.549073   -1.439351
     31          1           0       -4.910321    1.909846   -0.177449
     32          1           0       -6.708431    0.760906   -1.512894
     33          1           0       -5.529144    0.398083   -2.781965
     34          1           0       -5.974901    2.078950   -2.442412
 ---------------------------------------------------------------------

 SCF Done:  E(RHF) =  -669.535418684     A.U. after   15 cycles
 E2 =    -0.2091221757D+01 EUMP2 =    -0.67162664044031D+03

 The electronic state is 1-A.
 Alpha  occ. eigenvalues --  -20.60759 -20.60752 -15.85810 -11.31182 -11.27753
 Alpha  occ. eigenvalues --  -11.27743 -11.27500 -11.26774 -11.26761 -11.22039
 Alpha  occ. eigenvalues --  -11.21676 -11.21637 -11.21625 -11.21546 -11.21140
 Alpha  occ. eigenvalues --   -1.59833  -1.39386  -1.19357  -1.08751  -1.08675
 Alpha  occ. eigenvalues --   -1.04764  -1.03804  -0.96255  -0.95585  -0.87273
 Alpha  occ. eigenvalues --   -0.86160  -0.82417  -0.79864  -0.78456  -0.77463
 Alpha  occ. eigenvalues --   -0.72029  -0.71156  -0.70478  -0.65322  -0.65009
 Alpha  occ. eigenvalues --   -0.64769  -0.62171  -0.61172  -0.59624  -0.57847
 Alpha  occ. eigenvalues --   -0.55586  -0.55236  -0.53091  -0.52958  -0.52907
 Alpha  occ. eigenvalues --   -0.52618  -0.50203  -0.48788  -0.48783  -0.48170
 Alpha  occ. eigenvalues --   -0.46899  -0.46001  -0.45919  -0.44790  -0.44038
 Alpha  occ. eigenvalues --   -0.37340  -0.36366
 Alpha virt. eigenvalues --    0.05070   0.11283   0.16561   0.19387   0.22880
 Alpha virt. eigenvalues --    0.23768   0.25420   0.26705   0.27370   0.27983
 Alpha virt. eigenvalues --    0.29184   0.30190   0.31409   0.31519   0.32012

 Mulliken charges:
               1
     1  C   -0.170763
     2  C   -0.221925
     3  C   -0.182626
     4  C    0.160888
     5  C   -0.170188
     6  C   -0.218921
     7  H    0.225586
     8  H    0.224009
     9  H    0.287597
    10  H    0.275637
    11  H    0.223495
    12  N    0.487166
    13  O   -0.460467
    14  O   -0.459869
    15  C   -0.298674
    16  C   -0.300042
    17  C   -0.479072
    18  H    0.149569
    19  H    0.154019
    20  H    0.146560
    21  H    0.154830
    22  H    0.163911
    23  H    0.147307
    24  H    0.160444
    25  C   -0.298366
    26  C   -0.300140
    27  C   -0.475864
    28  H    0.147423
    29  H    0.150070
    30  H    0.153536
    31  H    0.154045
    32  H    0.155118
    33  H    0.154145
    34  H    0.161562
 Sum of Mulliken charges =  -0.00000

 Dipole moment (field-independent basis, Debye):
    X=             -0.1615    Y=             -4.5730    Z=             -2.3289  Tot=              5.1344
 Quadrupole moment (field-independent basis, Debye-Ang):
   XX=            -91.3556   YY=            -98.1727   ZZ=            -93.8173
   XY=            -13.0305   XZ=            -10.9188   YZ=             -0.8001

 Normal termination of Gaussian 16 at Thu May  6 11:01:35 2021.
