 Gaussian 16, Revision A.03,
 Gaussian 16:  EM64L-G16RevA.03 25-Dec-2016

 -------------
 #p 6-31g* mp2
 -------------

 ------------------------------------------------------
 Input file generated by CHIRIPA (05-May-2021 14:55:19)
 ------------------------------------------------------
 Symbolic Z-matrix:
 Charge =  0 Multiplicity = 1

                         Standard orientation:
 ---------------------------------------------------------------------
 Center     Atomic      Atomic             Coordinates (Angstroms)
 Number     Number       Type             X           Y           Z
 ---------------------------------------------------------------------
      1          6           0       -3.327541    1.952673   -1.029154
      2          6           0       -1.983347    1.622074   -0.828238
      3          6           0       -1.629961    0.379008   -0.294898
      4          6           0       -2.651107   -0.513426    0.027767
      5          6           0       -3.999347   -0.213362   -0.160649
      6          6           0       -4.329485    1.035517   -0.695306
      7          1           0       -3.593030    2.920575   -1.443977
      8          1           0       -1.203108    2.332375   -1.086588
      9          1           0       -0.597260    0.097198   -0.128979
     10          1           0       -4.754826   -0.942234    0.106589
     11          1           0       -5.374235    1.289553   -0.850252
     12          7           0       -2.289299   -1.832482    0.593087
     13          8           0       -3.207760   -2.601148    0.869164
     14          8           0       -1.094105   -2.072714    0.749404
     15          6           0        3.531610   -0.382171    0.065051
     16          6           0        4.629498   -0.878381   -0.876440
     17          6           0        4.740997   -2.403065   -0.902910
     18          1           0        3.731301   -0.754302    1.079243
     19          1           0        2.570203   -0.815752   -0.243329
     20          1           0        5.588324   -0.442897   -0.567214
     21          1           0        4.427274   -0.504866   -1.888472
     22          1           0        3.798786   -2.852565   -1.232739
     23          1           0        4.966433   -2.790244    0.096026
     24          1           0        5.531865   -2.736032   -1.582264
     25          6           0        3.407877    1.140007    0.102387
     26          6           0        2.309991    1.636217    1.043877
     27          6           0        2.198491    3.160901    1.070347
     28          1           0        4.369285    1.573587    0.410767
     29          1           0        3.208188    1.512138   -0.911806
     30          1           0        2.512214    1.262702    2.055909
     31          1           0        1.351164    1.200732    0.734650
     32          1           0        1.973056    3.548080    0.071411
     33          1           0        3.140703    3.610401    1.400177
     34          1           0        1.407624    3.493868    1.749701
 ---------------------------------------------------------------------

 SCF Done:  E(RHF) =  -669.535472818     A.U. after   15 cycles
 E2 =    -0.2091639050D+01 EUMP2 =    -0.67162711186732D+03

 The electronic state is 1-A.
 Alpha  occ. eigenvalues --  -20.60777 -20.60772 -15.85829 -11.31193 -11.27764
 Alpha  occ. eigenvalues --  -11.27752 -11.27507 -11.26784 -11.26771 -11.22042
 Alpha  occ. eigenvalues --  -11.21617 -11.21579 -11.21522 -11.21326 -11.20829
 Alpha  occ. eigenvalues --   -1.59851  -1.39404  -1.19368  -1.08762  -1.08576
 Alpha  occ. eigenvalues --   -1.04774  -1.03678  -0.96110  -0.95598  -0.87127
 Alpha  occ. eigenvalues --   -0.86170  -0.82431  -0.79768  -0.78334  -0.77473
 Alpha  occ. eigenvalues --   -0.72048  -0.71173  -0.70488  -0.65255  -0.65016
 Alpha  occ. eigenvalues --   -0.64766  -0.62161  -0.61054  -0.59500  -0.57704
 Alpha  occ. eigenvalues --   -0.55408  -0.55270  -0.53100  -0.52898  -0.52808
 Alpha  occ. eigenvalues --   -0.52511  -0.50056  -0.48806  -0.48803  -0.48056
 Alpha  occ. eigenvalues --   -0.46818  -0.45867  -0.45780  -0.44810  -0.43915
 Alpha  occ. eigenvalues --   -0.37349  -0.36371
 Alpha virt. eigenvalues --    0.05041   0.11265   0.16524   0.19246   0.23043
 Alpha virt. eigenvalues --    0.23931   0.24650   0.26603   0.27466   0.28257
 Alpha virt. eigenvalues --    0.29450   0.31125   0.31456   0.31719   0.32310

 Mulliken charges:
               1
     1  C   -0.170762
     2  C   -0.221137
     3  C   -0.179703
     4  C    0.160090
     5  C   -0.170444
     6  C   -0.218726
     7  H    0.225736
     8  H    0.224366
     9  H    0.284677
    10  H    0.275630
    11  H    0.223535
    12  N    0.487421
    13  O   -0.460292
    14  O   -0.460515
    15  C   -0.300674
    16  C   -0.299833
    17  C   -0.476228
    18  H    0.153703
    19  H    0.154238
    20  H    0.151092
    21  H    0.149846
    22  H    0.159480
    23  H    0.156949
    24  H    0.159138
    25  C   -0.298482
    26  C   -0.303021
    27  C   -0.476286
    28  H    0.151221
    29  H    0.145736
    30  H    0.159107
    31  H    0.144894
    32  H    0.149100
    33  H    0.159099
    34  H    0.161045
 Sum of Mulliken charges =  -0.00000

 Dipole moment (field-independent basis, Debye):
    X=             -1.1964    Y=              4.5656    Z=             -1.9123  Tot=              5.0924
 Quadrupole moment (field-independent basis, Debye-Ang):
   XX=            -82.4724   YY=           -101.0589   ZZ=            -95.0470
   XY=            -10.4241   XZ=              5.9158   YZ=              0.9929

 Normal termination of Gaussian 16 at Thu May  6 09:13:57 2021.
