 Gaussian 16, Revision A.03,
 Gaussian 16:  EM64L-G16RevA.03 25-Dec-2016

 -------------
 #p 6-31g* mp2
 -------------

 ------------------------------------------------------
 Input file generated by CHIRIPA (05-May-2021 14:57:23)
 ------------------------------------------------------
 Symbolic Z-matrix:
 Charge =  0 Multiplicity = 1

                         Standard orientation:
 ---------------------------------------------------------------------
 Center     Atomic      Atomic             Coordinates (Angstroms)
 Number     Number       Type             X           Y           Z
 ---------------------------------------------------------------------
      1          6           0       -1.580017   -1.641036    1.079062
      2          6           0       -2.912948   -1.683793    1.500950
      3          6           0       -3.880433   -0.889163    0.878790
      4          6           0       -3.478194   -0.059574   -0.166808
      5          6           0       -2.158080    0.005290   -0.609958
      6          6           0       -1.207494   -0.798117    0.026810
      7          1           0       -0.835015   -2.261732    1.568045
      8          1           0       -3.205129   -2.337469    2.317885
      9          1           0       -4.919329   -0.902621    1.185272
     10          1           0       -1.897114    0.666877   -1.427036
     11          1           0       -0.173055   -0.762851   -0.302944
     12          7           0       -4.493482    0.786311   -0.833194
     13          8           0       -4.113532    1.508761   -1.752074
     14          8           0       -5.649989    0.710848   -0.424008
     15          6           0        4.063311   -1.759524   -1.344441
     16          6           0        3.090342   -1.939052   -0.355694
     17          6           0        2.665849   -0.861034    0.426758
     18          6           0        3.238118    0.388327    0.192464
     19          6           0        4.209415    0.599082   -0.785010
     20          6           0        4.618763   -0.493262   -1.555572
     21          1           0        4.387185   -2.602518   -1.947651
     22          1           0        2.657227   -2.921314   -0.189513
     23          1           0        1.914289   -0.971882    1.198955
     24          1           0        4.622786    1.590186   -0.927336
     25          1           0        5.374559   -0.350890   -2.322740
     26          7           0        2.796743    1.537161    1.014518
     27          8           0        3.316431    2.627773    0.788407
     28          8           0        1.939464    1.325249    1.869387
 ---------------------------------------------------------------------

 SCF Done:  E(RHF) =  -868.336631337     A.U. after   16 cycles
 E2 =    -0.2601127934D+01 EUMP2 =    -0.87093775927068D+03

 The electronic state is 1-A.
 Alpha  occ. eigenvalues --  -20.61509 -20.61498 -20.60600 -20.60594 -15.86565
 Alpha  occ. eigenvalues --  -15.85653 -11.32129 -11.31048 -11.28770 -11.28610
 Alpha  occ. eigenvalues --  -11.28377 -11.27791 -11.27646 -11.27616 -11.27601
 Alpha  occ. eigenvalues --  -11.27469 -11.26681 -11.26644  -1.60580  -1.59672
 Alpha  occ. eigenvalues --   -1.40128  -1.39225  -1.20296  -1.19227  -1.09628
 Alpha  occ. eigenvalues --   -1.08644  -1.05732  -1.04632  -0.96444  -0.95472
 Alpha  occ. eigenvalues --   -0.87102  -0.86053  -0.83273  -0.82297  -0.78319
 Alpha  occ. eigenvalues --   -0.77319  -0.72770  -0.71918  -0.71876  -0.71371
 Alpha  occ. eigenvalues --   -0.70991  -0.70407  -0.65929  -0.65725  -0.64900
 Alpha  occ. eigenvalues --   -0.64686  -0.63059  -0.61966  -0.56149  -0.55237
 Alpha  occ. eigenvalues --   -0.54057  -0.53803  -0.52946  -0.52695  -0.49547
 Alpha  occ. eigenvalues --   -0.49522  -0.48637  -0.48625  -0.45487  -0.44624
 Alpha  occ. eigenvalues --   -0.38237  -0.37332  -0.37227  -0.36204
 Alpha virt. eigenvalues --    0.04190   0.05210   0.10211   0.11422   0.15659
 Alpha virt. eigenvalues --    0.16685   0.19317   0.21927   0.25236   0.27149
 Alpha virt. eigenvalues --    0.27637   0.29448   0.30239   0.30829   0.32040

 Mulliken charges:
               1
     1  C   -0.171447
     2  C   -0.217361
     3  C   -0.170855
     4  C    0.159452
     5  C   -0.170528
     6  C   -0.216614
     7  H    0.216810
     8  H    0.222937
     9  H    0.275624
    10  H    0.276492
    11  H    0.223538
    12  N    0.488103
    13  O   -0.459845
    14  O   -0.460640
    15  C   -0.170327
    16  C   -0.219253
    17  C   -0.183560
    18  C    0.159828
    19  C   -0.170039
    20  C   -0.217075
    21  H    0.229206
    22  H    0.223049
    23  H    0.273319
    24  H    0.279356
    25  H    0.227754
    26  N    0.487818
    27  O   -0.455827
    28  O   -0.459914
 Sum of Mulliken charges =  -0.00000

 Dipole moment (field-independent basis, Debye):
    X=              5.3798    Y=             -6.8594    Z=             -0.6438  Tot=              8.7411
 Quadrupole moment (field-independent basis, Debye-Ang):
   XX=           -114.4356   YY=           -106.2041   ZZ=           -104.5546
   XY=              1.2614   XZ=            -22.7942   YZ=             -4.3947

 Normal termination of Gaussian 16 at Fri May  7 04:53:39 2021.
