 Gaussian 16, Revision A.03,
 Gaussian 16:  EM64L-G16RevA.03 25-Dec-2016

 -------------
 #p 6-31g* mp2
 -------------

 ------------------------------------------------------
 Input file generated by CHIRIPA (05-May-2021 14:57:24)
 ------------------------------------------------------
 Symbolic Z-matrix:
 Charge =  0 Multiplicity = 1

                         Standard orientation:
 ---------------------------------------------------------------------
 Center     Atomic      Atomic             Coordinates (Angstroms)
 Number     Number       Type             X           Y           Z
 ---------------------------------------------------------------------
      1          6           0        3.477460    1.611391    1.691941
      2          6           0        3.050238    1.954609    0.405006
      3          6           0        2.808371    0.963370   -0.550763
      4          6           0        3.004777   -0.367073   -0.183836
      5          6           0        3.429752   -0.740818    1.090135
      6          6           0        3.665522    0.267143    2.029803
      7          1           0        3.662980    2.387904    2.428152
      8          1           0        2.903351    2.997750    0.139815
      9          1           0        2.477032    1.201030   -1.554332
     10          1           0        3.567370   -1.789311    1.324954
     11          1           0        3.997246   -0.002345    3.028492
     12          7           0        2.751950   -1.425304   -1.187143
     13          8           0        2.932418   -2.590133   -0.838943
     14          8           0        2.378104   -1.069880   -2.302737
     15          6           0       -1.344271    1.780326   -0.955099
     16          6           0       -2.701571    1.940601   -1.252705
     17          6           0       -3.653490    1.066854   -0.718886
     18          6           0       -3.211006    0.039174    0.112601
     19          6           0       -1.865849   -0.146561    0.427795
     20          6           0       -0.931470    0.739092   -0.117275
     21          1           0       -0.611610    2.463698   -1.374152
     22          1           0       -3.025043    2.748337   -1.903069
     23          1           0       -4.710580    1.167949   -0.932800
     24          1           0       -1.573804   -0.961232    1.079285
     25          1           0        0.121965    0.612210    0.115579
     26          7           0       -4.209476   -0.892124    0.683687
     27          8           0       -3.793974   -1.789509    1.413548
     28          8           0       -5.388673   -0.707059    0.390629
 ---------------------------------------------------------------------

 SCF Done:  E(RHF) =  -868.336581300     A.U. after   16 cycles
 E2 =    -0.2601949753D+01 EUMP2 =    -0.87093853105278D+03

 The electronic state is 1-A.
 Alpha  occ. eigenvalues --  -20.61598 -20.61590 -20.60605 -20.60599 -15.86658
 Alpha  occ. eigenvalues --  -15.85655 -11.32254 -11.31030 -11.28859 -11.28759
 Alpha  occ. eigenvalues --  -11.28515 -11.27897 -11.27774 -11.27600 -11.27565
 Alpha  occ. eigenvalues --  -11.27405 -11.26659 -11.26521  -1.60673  -1.59678
 Alpha  occ. eigenvalues --   -1.40217  -1.39232  -1.20451  -1.19200  -1.09760
 Alpha  occ. eigenvalues --   -1.08612  -1.05863  -1.04599  -0.96563  -0.95447
 Alpha  occ. eigenvalues --   -0.87221  -0.86013  -0.83378  -0.82276  -0.78412
 Alpha  occ. eigenvalues --   -0.77314  -0.72856  -0.72028  -0.71877  -0.71467
 Alpha  occ. eigenvalues --   -0.70998  -0.70368  -0.66050  -0.65801  -0.64863
 Alpha  occ. eigenvalues --   -0.64657  -0.63168  -0.61984  -0.56265  -0.55209
 Alpha  occ. eigenvalues --   -0.54272  -0.53897  -0.52929  -0.52554  -0.49638
 Alpha  occ. eigenvalues --   -0.49608  -0.48635  -0.48630  -0.45564  -0.44635
 Alpha  occ. eigenvalues --   -0.38403  -0.37467  -0.37198  -0.36182
 Alpha virt. eigenvalues --    0.04082   0.05219   0.10075   0.11500   0.15552
 Alpha virt. eigenvalues --    0.16704   0.19963   0.21739   0.25608   0.27175
 Alpha virt. eigenvalues --    0.27517   0.29092   0.30125   0.31000   0.32073

 Mulliken charges:
               1
     1  C   -0.170738
     2  C   -0.216452
     3  C   -0.191349
     4  C    0.159535
     5  C   -0.172162
     6  C   -0.217226
     7  H    0.230219
     8  H    0.224844
     9  H    0.275564
    10  H    0.280404
    11  H    0.228894
    12  N    0.488360
    13  O   -0.455600
    14  O   -0.458669
    15  C   -0.172281
    16  C   -0.217637
    17  C   -0.171441
    18  C    0.159607
    19  C   -0.172216
    20  C   -0.221671
    21  H    0.216984
    22  H    0.222298
    23  H    0.275266
    24  H    0.275930
    25  H    0.232405
    26  N    0.488062
    27  O   -0.460039
    28  O   -0.460892
 Sum of Mulliken charges =  -0.00000

 Dipole moment (field-independent basis, Debye):
    X=              4.6907    Y=              6.8642    Z=              1.6503  Tot=              8.4760
 Quadrupole moment (field-independent basis, Debye-Ang):
   XX=           -119.2302   YY=           -104.4158   ZZ=           -103.8602
   XY=             -2.6238   XZ=             20.9587   YZ=             -5.5676

 Normal termination of Gaussian 16 at Wed May  5 19:26:11 2021.
