 Gaussian 16, Revision A.03,
 Gaussian 16:  EM64L-G16RevA.03 25-Dec-2016

 -------------
 #p 6-31g* mp2
 -------------

 ------------------------------------------------------
 Input file generated by CHIRIPA (05-May-2021 14:55:21)
 ------------------------------------------------------
 Symbolic Z-matrix:
 Charge =  0 Multiplicity = 1

                         Standard orientation:
 ---------------------------------------------------------------------
 Center     Atomic      Atomic             Coordinates (Angstroms)
 Number     Number       Type             X           Y           Z
 ---------------------------------------------------------------------
      1          6           0       -1.938313    1.957173    1.368285
      2          6           0       -1.596439    1.821966    0.018707
      3          6           0       -1.959543    0.675528   -0.694302
      4          6           0       -2.667312   -0.320571   -0.023379
      5          6           0       -3.022569   -0.215254    1.320493
      6          6           0       -2.649034    0.939925    2.013733
      7          1           0       -1.652194    2.851149    1.914490
      8          1           0       -1.044515    2.610364   -0.485132
      9          1           0       -1.707792    0.544921   -1.739760
     10          1           0       -3.573086   -1.018135    1.795604
     11          1           0       -2.915893    1.042210    3.061764
     12          7           0       -3.057236   -1.538881   -0.767746
     13          8           0       -3.680501   -2.402121   -0.153748
     14          8           0       -2.732209   -1.607483   -1.951084
     15          6           0        3.523093   -0.338546    0.425116
     16          6           0        4.476076   -1.437878   -0.045285
     17          6           0        4.849346   -2.414068    1.070742
     18          1           0        3.988573    0.211214    1.254595
     19          1           0        2.611824   -0.800992    0.829008
     20          1           0        5.384693   -0.973456   -0.449440
     21          1           0        4.008351   -1.984961   -0.873868
     22          1           0        3.955010   -2.904141    1.468981
     23          1           0        5.339173   -1.886889    1.895820
     24          1           0        5.531240   -3.191621    0.712564
     25          6           0        3.140711    0.645180   -0.679328
     26          6           0        2.187727    1.744514   -0.208929
     27          6           0        1.814457    2.720703   -1.324955
     28          1           0        4.051979    1.107627   -1.083220
     29          1           0        2.675230    0.095421   -1.508808
     30          1           0        2.655452    2.291596    0.619656
     31          1           0        1.279109    1.280091    0.195227
     32          1           0        1.324630    2.193524   -2.150032
     33          1           0        2.708792    3.210777   -1.723193
     34          1           0        1.132563    3.498256   -0.966776
 ---------------------------------------------------------------------

 SCF Done:  E(RHF) =  -669.534862869     A.U. after   15 cycles
 E2 =    -0.2092819029D+01 EUMP2 =    -0.67162768189855D+03

 The electronic state is 1-A.
 Alpha  occ. eigenvalues --  -20.60800 -20.60795 -15.85852 -11.31223 -11.27776
 Alpha  occ. eigenvalues --  -11.27771 -11.27508 -11.26801 -11.26731 -11.22123
 Alpha  occ. eigenvalues --  -11.21992 -11.21750 -11.21729 -11.21606 -11.21152
 Alpha  occ. eigenvalues --   -1.59875  -1.39429  -1.19392  -1.08816  -1.08747
 Alpha  occ. eigenvalues --   -1.04802  -1.03931  -0.96415  -0.95617  -0.87432
 Alpha  occ. eigenvalues --   -0.86184  -0.82448  -0.80000  -0.78550  -0.77500
 Alpha  occ. eigenvalues --   -0.72070  -0.71199  -0.70489  -0.65456  -0.65035
 Alpha  occ. eigenvalues --   -0.64805  -0.62236  -0.61269  -0.59796  -0.57999
 Alpha  occ. eigenvalues --   -0.55708  -0.55263  -0.53246  -0.53140  -0.52917
 Alpha  occ. eigenvalues --   -0.52608  -0.50331  -0.48827  -0.48825  -0.48314
 Alpha  occ. eigenvalues --   -0.47011  -0.46103  -0.45992  -0.44833  -0.44174
 Alpha  occ. eigenvalues --   -0.37354  -0.36343
 Alpha virt. eigenvalues --    0.05023   0.11206   0.16470   0.20198   0.22831
 Alpha virt. eigenvalues --    0.24026   0.26129   0.26355   0.26955   0.27990
 Alpha virt. eigenvalues --    0.29435   0.29899   0.31170   0.31591   0.32040

 Mulliken charges:
               1
     1  C   -0.172979
     2  C   -0.219786
     3  C   -0.174718
     4  C    0.158891
     5  C   -0.171360
     6  C   -0.218262
     7  H    0.226107
     8  H    0.233326
     9  H    0.275760
    10  H    0.275632
    11  H    0.223612
    12  N    0.488049
    13  O   -0.460319
    14  O   -0.460492
    15  C   -0.298852
    16  C   -0.300343
    17  C   -0.476065
    18  H    0.148607
    19  H    0.151444
    20  H    0.151732
    21  H    0.154673
    22  H    0.156517
    23  H    0.154225
    24  H    0.161518
    25  C   -0.298262
    26  C   -0.307395
    27  C   -0.480325
    28  H    0.150070
    29  H    0.152257
    30  H    0.151208
    31  H    0.158548
    32  H    0.154786
    33  H    0.162231
    34  H    0.149966
 Sum of Mulliken charges =  -0.00000

 Dipole moment (field-independent basis, Debye):
    X=              1.4393    Y=              4.2242    Z=              2.6313  Tot=              5.1806
 Quadrupole moment (field-independent basis, Debye-Ang):
   XX=           -101.0755   YY=            -97.8610   ZZ=            -92.1104
   XY=            -10.4609   XZ=             -9.3648   YZ=             -1.8968

 Normal termination of Gaussian 16 at Wed May  5 20:37:30 2021.
