 Gaussian 16, Revision A.03,
 Gaussian 16:  EM64L-G16RevA.03 25-Dec-2016

 -------------
 #p 6-31g* mp2
 -------------

 ------------------------------------------------------
 Input file generated by CHIRIPA (05-May-2021 14:57:24)
 ------------------------------------------------------
 Symbolic Z-matrix:
 Charge =  0 Multiplicity = 1

                         Standard orientation:
 ---------------------------------------------------------------------
 Center     Atomic      Atomic             Coordinates (Angstroms)
 Number     Number       Type             X           Y           Z
 ---------------------------------------------------------------------
      1          6           0        1.446162   -2.407327    0.110606
      2          6           0        1.401561   -1.531283   -0.978925
      3          6           0        2.265442   -0.433974   -1.043512
      4          6           0        3.165407   -0.241909    0.003610
      5          6           0        3.234021   -1.096946    1.102470
      6          6           0        2.360637   -2.187750    1.146001
      7          1           0        0.771387   -3.257217    0.152601
      8          1           0        0.692399   -1.699339   -1.784462
      9          1           0        2.252247    0.259926   -1.875225
     10          1           0        3.951814   -0.903393    1.890333
     11          1           0        2.397510   -2.866453    1.993378
     12          7           0        4.084990    0.916319   -0.053620
     13          8           0        4.868687    1.063555    0.881675
     14          8           0        4.004648    1.654972   -1.032688
     15          6           0       -4.352446   -1.703630   -0.111772
     16          6           0       -3.130209   -1.611604   -0.785705
     17          6           0       -2.380080   -0.432802   -0.737949
     18          6           0       -2.884439    0.639342   -0.003497
     19          6           0       -4.098661    0.578526    0.678598
     20          6           0       -4.831927   -0.610199    0.616944
     21          1           0       -4.928614   -2.623207   -0.154268
     22          1           0       -2.755374   -2.459180   -1.352415
     23          1           0       -1.430755   -0.334317   -1.250298
     24          1           0       -4.446352    1.440262    1.235321
     25          1           0       -5.780807   -0.678813    1.141313
     26          7           0       -2.099237    1.892539    0.054417
     27          8           0       -2.565497    2.822890    0.708395
     28          8           0       -1.032404    1.920716   -0.555264
 ---------------------------------------------------------------------

 SCF Done:  E(RHF) =  -868.336217208     A.U. after   16 cycles
 E2 =    -0.2601056680D+01 EUMP2 =    -0.87093727388724D+03

 The electronic state is 1-A.
 Alpha  occ. eigenvalues --  -20.61076 -20.61071 -20.60399 -20.60371 -15.86137
 Alpha  occ. eigenvalues --  -15.85453 -11.31655 -11.30987 -11.28304 -11.28218
 Alpha  occ. eigenvalues --  -11.28031 -11.27646 -11.27637 -11.27539 -11.27374
 Alpha  occ. eigenvalues --  -11.27251 -11.26809 -11.26690  -1.60144  -1.59456
 Alpha  occ. eigenvalues --   -1.39696  -1.39005  -1.19853  -1.19233  -1.09214
 Alpha  occ. eigenvalues --   -1.08616  -1.05299  -1.04682  -0.96024  -0.95403
 Alpha  occ. eigenvalues --   -0.86685  -0.86089  -0.82866  -0.82248  -0.77901
 Alpha  occ. eigenvalues --   -0.77228  -0.72352  -0.71679  -0.71471  -0.70971
 Alpha  occ. eigenvalues --   -0.70771  -0.70381  -0.65515  -0.65339  -0.64909
 Alpha  occ. eigenvalues --   -0.64748  -0.62685  -0.61983  -0.55782  -0.55244
 Alpha  occ. eigenvalues --   -0.53605  -0.53456  -0.52928  -0.52776  -0.49116
 Alpha  occ. eigenvalues --   -0.49097  -0.48453  -0.48409  -0.45068  -0.44373
 Alpha  occ. eigenvalues --   -0.37835  -0.37309  -0.36855  -0.36233
 Alpha virt. eigenvalues --    0.04666   0.05326   0.10659   0.11382   0.16112
 Alpha virt. eigenvalues --    0.16619   0.19290   0.22085   0.25278   0.27109
 Alpha virt. eigenvalues --    0.28203   0.29394   0.30417   0.31017   0.32660

 Mulliken charges:
               1
     1  C   -0.169456
     2  C   -0.222685
     3  C   -0.158866
     4  C    0.158985
     5  C   -0.168624
     6  C   -0.219159
     7  H    0.220174
     8  H    0.211722
     9  H    0.280925
    10  H    0.276415
    11  H    0.222412
    12  N    0.488710
    13  O   -0.461628
    14  O   -0.456156
    15  C   -0.170575
    16  C   -0.221351
    17  C   -0.170375
    18  C    0.158520
    19  C   -0.169590
    20  C   -0.218697
    21  H    0.226058
    22  H    0.217034
    23  H    0.272562
    24  H    0.277795
    25  H    0.225195
    26  N    0.487961
    27  O   -0.457609
    28  O   -0.459697
 Sum of Mulliken charges =  -0.00000

 Dipole moment (field-independent basis, Debye):
    X=             -5.9356    Y=             -8.2030    Z=              0.1039  Tot=             10.1258
 Quadrupole moment (field-independent basis, Debye-Ang):
   XX=           -106.2398   YY=           -108.7649   ZZ=           -100.1164
   XY=             -3.2981   XZ=              0.5280   YZ=             -0.3914

 Normal termination of Gaussian 16 at Thu May  6 11:23:06 2021.
