 Gaussian 16, Revision A.03,
 Gaussian 16:  EM64L-G16RevA.03 25-Dec-2016

 -------------
 #p 6-31g* mp2
 -------------

 ------------------------------------------------------
 Input file generated by CHIRIPA (05-May-2021 14:51:10)
 ------------------------------------------------------
 Symbolic Z-matrix:
 Charge =  0 Multiplicity = 1

                         Standard orientation:
 ---------------------------------------------------------------------
 Center     Atomic      Atomic             Coordinates (Angstroms)
 Number     Number       Type             X           Y           Z
 ---------------------------------------------------------------------
      1          6           0        3.816530   -0.511241    0.100642
      2          6           0        2.984433   -1.521476   -0.689943
      3          6           0        3.269806   -2.968031   -0.285176
      4          1           0        4.883151   -0.730583   -0.044803
      5          1           0        3.614433   -0.639569    1.173061
      6          1           0        3.186998   -1.390353   -1.760639
      7          1           0        1.919672   -1.299586   -0.542753
      8          1           0        3.049763   -3.121631    0.776232
      9          1           0        4.324289   -3.212914   -0.448574
     10          1           0        2.664260   -3.673442   -0.862731
     11          6           0        3.542444    0.939244   -0.292673
     12          6           0        4.374542    1.949479    0.497912
     13          6           0        4.089169    3.396034    0.093146
     14          1           0        3.744541    1.067572   -1.365092
     15          1           0        2.475823    1.158586   -0.147228
     16          1           0        5.439303    1.727589    0.350722
     17          1           0        4.171977    1.818356    1.568609
     18          1           0        3.034685    3.640917    0.256543
     19          1           0        4.309212    3.549634   -0.968263
     20          1           0        4.694715    4.101445    0.670700
     21          6           0       -3.067492   -0.585605   -0.170076
     22          6           0       -2.343424   -1.404891    0.898794
     23          6           0       -1.121242   -2.142536    0.351125
     24          1           0       -3.375412   -1.251799   -0.987582
     25          1           0       -2.365208    0.138976   -0.605017
     26          1           0       -3.047236   -2.126773    1.332557
     27          1           0       -2.037362   -0.736701    1.713941
     28          1           0       -0.397657   -1.433713   -0.064322
     29          1           0       -1.413270   -2.831683   -0.447873
     30          1           0       -0.618729   -2.721845    1.131985
     31          6           0       -4.291482    0.157602    0.362107
     32          6           0       -5.015550    0.976888   -0.706763
     33          6           0       -6.237734    1.714533   -0.159094
     34          1           0       -4.993767   -0.566979    0.797048
     35          1           0       -3.983563    0.823795    1.179614
     36          1           0       -5.321613    0.308698   -1.521909
     37          1           0       -4.311739    1.698770   -1.140526
     38          1           0       -5.945705    2.403680    0.639903
     39          1           0       -6.961317    1.005709    0.256353
     40          1           0       -6.740246    2.293842   -0.939954
 ---------------------------------------------------------------------

 SCF Done:  E(RHF) =  -470.733260377     A.U. after   11 cycles
 E2 =    -0.1582554459D+01 EUMP2 =    -0.47231581483523D+03

 The electronic state is 1-A.
 Alpha  occ. eigenvalues --  -11.21638 -11.21618 -11.21601 -11.21519 -11.21432
 Alpha  occ. eigenvalues --  -11.21391 -11.21372 -11.21323 -11.21104 -11.21084
 Alpha  occ. eigenvalues --  -11.21077 -11.21006  -1.08458  -1.08406  -1.03565
 Alpha  occ. eigenvalues --   -1.03492  -0.96015  -0.95943  -0.87029  -0.86965
 Alpha  occ. eigenvalues --   -0.79658  -0.79531  -0.78281  -0.78209  -0.65124
 Alpha  occ. eigenvalues --   -0.65012  -0.61057  -0.60813  -0.59373  -0.59319
 Alpha  occ. eigenvalues --   -0.57639  -0.57541  -0.55348  -0.55197  -0.52703
 Alpha  occ. eigenvalues --   -0.52636  -0.52444  -0.52371  -0.50046  -0.49832
 Alpha  occ. eigenvalues --   -0.48024  -0.47817  -0.46793  -0.46462  -0.45869
 Alpha  occ. eigenvalues --   -0.45768  -0.45726  -0.45533  -0.43809  -0.43755
 Alpha virt. eigenvalues --    0.21634   0.23044   0.23724   0.24741   0.25681
 Alpha virt. eigenvalues --    0.26794   0.27075   0.27568   0.27879   0.28885
 Alpha virt. eigenvalues --    0.30571   0.31268   0.31683   0.31966   0.32342

 Mulliken charges:
               1
     1  C   -0.297756
     2  C   -0.307439
     3  C   -0.474920
     4  H    0.149522
     5  H    0.149347
     6  H    0.151475
     7  H    0.159897
     8  H    0.154876
     9  H    0.154647
    10  H    0.160728
    11  C   -0.298073
    12  C   -0.299620
    13  C   -0.475667
    14  H    0.149600
    15  H    0.148480
    16  H    0.152077
    17  H    0.151898
    18  H    0.154905
    19  H    0.155211
    20  H    0.160269
    21  C   -0.298453
    22  C   -0.299471
    23  C   -0.480886
    24  H    0.149861
    25  H    0.149482
    26  H    0.152135
    27  H    0.151648
    28  H    0.159617
    29  H    0.155701
    30  H    0.160692
    31  C   -0.298303
    32  C   -0.299692
    33  C   -0.475723
    34  H    0.149621
    35  H    0.149579
    36  H    0.152019
    37  H    0.151987
    38  H    0.155177
    39  H    0.155209
    40  H    0.160342
 Sum of Mulliken charges =  -0.00000

 Dipole moment (field-independent basis, Debye):
    X=             -0.0248    Y=             -0.0148    Z=             -0.0036  Tot=              0.0291
 Quadrupole moment (field-independent basis, Debye-Ang):
   XX=            -84.7764   YY=            -85.6683   ZZ=            -84.3434
   XY=              1.1076   XZ=             -0.1756   YZ=              0.2811

 Normal termination of Gaussian 16 at Thu May  6 06:58:31 2021.
