 Gaussian 16, Revision A.03,
 Gaussian 16:  EM64L-G16RevA.03 25-Dec-2016

 -------------
 #p 6-31g* mp2
 -------------

 ------------------------------------------------------
 Input file generated by CHIRIPA (05-May-2021 14:55:22)
 ------------------------------------------------------
 Symbolic Z-matrix:
 Charge =  0 Multiplicity = 1

                         Standard orientation:
 ---------------------------------------------------------------------
 Center     Atomic      Atomic             Coordinates (Angstroms)
 Number     Number       Type             X           Y           Z
 ---------------------------------------------------------------------
      1          6           0       -5.566903   -0.695492    0.392709
      2          6           0       -4.563945   -1.577275    0.808711
      3          6           0       -3.221624   -1.312271    0.521491
      4          6           0       -2.916626   -0.150987   -0.186807
      5          6           0       -3.893186    0.746998   -0.614876
      6          6           0       -5.228918    0.461790   -0.316506
      7          1           0       -6.607091   -0.909201    0.620159
      8          1           0       -4.823493   -2.476798    1.359653
      9          1           0       -2.425128   -1.977761    0.831548
     10          1           0       -3.603519    1.635642   -1.162436
     11          1           0       -6.005727    1.148392   -0.640836
     12          7           0       -1.499059    0.140255   -0.496775
     13          8           0       -1.256475    1.170140   -1.122176
     14          8           0       -0.657395   -0.666870   -0.108459
     15          6           0        4.169366   -0.496519    0.191509
     16          6           0        5.541504   -0.875968   -0.366381
     17          6           0        5.800940   -2.382187   -0.324051
     18          1           0        4.089778   -0.854779    1.227010
     19          1           0        3.391029   -1.019819   -0.380981
     20          1           0        6.316954   -0.351034    0.206100
     21          1           0        5.617905   -0.516596   -1.400611
     22          1           0        5.048785   -2.919293   -0.910891
     23          1           0        5.751805   -2.752790    0.704949
     24          1           0        6.787370   -2.631154   -0.727573
     25          6           0        3.895296    1.005928    0.155934
     26          6           0        2.523158    1.385377    0.713825
     27          6           0        2.263722    2.891595    0.671494
     28          1           0        4.673633    1.529227    0.728424
     29          1           0        3.974884    1.364188   -0.879566
     30          1           0        2.446756    1.026004    1.748055
     31          1           0        1.747707    0.860442    0.141343
     32          1           0        2.312857    3.262198   -0.357505
     33          1           0        3.015877    3.428700    1.258335
     34          1           0        1.277292    3.140563    1.075017
 ---------------------------------------------------------------------

 SCF Done:  E(RHF) =  -669.536831640     A.U. after   15 cycles
 E2 =    -0.2091537629D+01 EUMP2 =    -0.67162836926823D+03

 The electronic state is 1-A.
 Alpha  occ. eigenvalues --  -20.61098 -20.61083 -15.86086 -11.31371 -11.27922
 Alpha  occ. eigenvalues --  -11.27918 -11.27652 -11.26918 -11.26908 -11.20633
 Alpha  occ. eigenvalues --  -11.20273 -11.20130 -11.19991 -11.19726 -11.19577
 Alpha  occ. eigenvalues --   -1.60127  -1.39684  -1.19529  -1.08943  -1.07116
 Alpha  occ. eigenvalues --   -1.04917  -1.02230  -0.95790  -0.94739  -0.86320
 Alpha  occ. eigenvalues --   -0.85766  -0.82625  -0.78319  -0.77686  -0.76863
 Alpha  occ. eigenvalues --   -0.72293  -0.71431  -0.70637  -0.65183  -0.64921
 Alpha  occ. eigenvalues --   -0.63747  -0.62263  -0.59623  -0.58136  -0.56326
 Alpha  occ. eigenvalues --   -0.55423  -0.54039  -0.53251  -0.53007  -0.51466
 Alpha  occ. eigenvalues --   -0.51162  -0.49167  -0.49059  -0.48675  -0.46620
 Alpha  occ. eigenvalues --   -0.45332  -0.45099  -0.44444  -0.44173  -0.42492
 Alpha  occ. eigenvalues --   -0.37505  -0.36515
 Alpha virt. eigenvalues --    0.04833   0.11141   0.16342   0.21282   0.24117
 Alpha virt. eigenvalues --    0.25571   0.27205   0.27939   0.28181   0.28882
 Alpha virt. eigenvalues --    0.29197   0.30854   0.32397   0.32624   0.33027

 Mulliken charges:
               1
     1  C   -0.170396
     2  C   -0.218600
     3  C   -0.170634
     4  C    0.159014
     5  C   -0.170718
     6  C   -0.218625
     7  H    0.226281
     8  H    0.224124
     9  H    0.276130
    10  H    0.276068
    11  H    0.224106
    12  N    0.488484
    13  O   -0.459113
    14  O   -0.458659
    15  C   -0.298535
    16  C   -0.298692
    17  C   -0.474880
    18  H    0.146190
    19  H    0.157402
    20  H    0.148846
    21  H    0.150695
    22  H    0.155249
    23  H    0.153192
    24  H    0.156712
    25  C   -0.297194
    26  C   -0.312162
    27  C   -0.471729
    28  H    0.142600
    29  H    0.147950
    30  H    0.143354
    31  H    0.184972
    32  H    0.155131
    33  H    0.145920
    34  H    0.157517
 Sum of Mulliken charges =  -0.00000

 Dipole moment (field-independent basis, Debye):
    X=             -5.4697    Y=             -1.1324    Z=              0.9695  Tot=              5.6692
 Quadrupole moment (field-independent basis, Debye-Ang):
   XX=            -67.2615   YY=            -92.8606   ZZ=            -94.1294
   XY=              2.6618   XZ=             -1.5572   YZ=             -2.5627

 Normal termination of Gaussian 16 at Thu May  6 06:14:22 2021.
