 Gaussian 16, Revision A.03,
 Gaussian 16:  EM64L-G16RevA.03 25-Dec-2016

 -------------
 #p 6-31g* mp2
 -------------

 ------------------------------------------------------
 Input file generated by CHIRIPA (05-May-2021 14:55:25)
 ------------------------------------------------------
 Symbolic Z-matrix:
 Charge =  0 Multiplicity = 1

                         Standard orientation:
 ---------------------------------------------------------------------
 Center     Atomic      Atomic             Coordinates (Angstroms)
 Number     Number       Type             X           Y           Z
 ---------------------------------------------------------------------
      1          6           0        4.411571    1.235362   -1.291576
      2          6           0        4.772086    0.804106   -0.010730
      3          6           0        3.857964    0.111409    0.788708
      4          6           0        2.586162   -0.133998    0.273359
      5          6           0        2.197047    0.282758   -0.998723
      6          6           0        3.127466    0.973773   -1.780623
      7          1           0        5.128013    1.772812   -1.905787
      8          1           0        5.768637    1.005852    0.371669
      9          1           0        4.110658   -0.233851    1.783876
     10          1           0        1.196245    0.066814   -1.352533
     11          1           0        2.844718    1.307498   -2.774970
     12          7           0        1.609795   -0.866434    1.110405
     13          8           0        0.495575   -1.070115    0.633262
     14          8           0        1.977227   -1.222969    2.227774
     15          6           0       -3.988032    0.616153   -0.216706
     16          6           0       -3.548764    1.797728    0.648689
     17          6           0       -4.502643    2.988700    0.551260
     18          1           0       -4.062352    0.943614   -1.262741
     19          1           0       -4.997370    0.304403    0.085692
     20          1           0       -2.540001    2.106269    0.345676
     21          1           0       -3.475296    1.467367    1.692758
     22          1           0       -5.509374    2.703291    0.873187
     23          1           0       -4.568765    3.345822   -0.481548
     24          1           0       -4.169635    3.822069    1.177727
     25          6           0       -3.044489   -0.582148   -0.129929
     26          6           0       -3.483758   -1.763723   -0.995323
     27          6           0       -2.529877   -2.954695   -0.897895
     28          1           0       -2.035151   -0.270398   -0.432326
     29          1           0       -2.970169   -0.909609    0.916107
     30          1           0       -3.557225   -1.433362   -2.039393
     31          1           0       -4.492520   -2.072264   -0.692312
     32          1           0       -2.463757   -3.311818    0.134913
     33          1           0       -1.523148   -2.669286   -1.219821
     34          1           0       -2.862886   -3.788064   -1.524362
 ---------------------------------------------------------------------

 SCF Done:  E(RHF) =  -669.535698266     A.U. after   15 cycles
 E2 =    -0.2091693259D+01 EUMP2 =    -0.67162739152482D+03

 The electronic state is 1-A.
 Alpha  occ. eigenvalues --  -20.60915 -20.60910 -15.85947 -11.31295 -11.27871
 Alpha  occ. eigenvalues --  -11.27854 -11.27598 -11.26874 -11.26863 -11.20959
 Alpha  occ. eigenvalues --  -11.20644 -11.20606 -11.20600 -11.20175 -11.19912
 Alpha  occ. eigenvalues --   -1.59977  -1.39533  -1.19466  -1.08864  -1.07543
 Alpha  occ. eigenvalues --   -1.04867  -1.02695  -0.95703  -0.95125  -0.86266
 Alpha  occ. eigenvalues --   -0.86138  -0.82543  -0.78780  -0.77644  -0.77227
 Alpha  occ. eigenvalues --   -0.72165  -0.71290  -0.70575  -0.65124  -0.64870
 Alpha  occ. eigenvalues --   -0.64191  -0.62217  -0.60110  -0.58513  -0.56721
 Alpha  occ. eigenvalues --   -0.55367  -0.54417  -0.53195  -0.52960  -0.51871
 Alpha  occ. eigenvalues --   -0.51519  -0.49071  -0.48938  -0.48928  -0.47070
 Alpha  occ. eigenvalues --   -0.45833  -0.45015  -0.44792  -0.44660  -0.42927
 Alpha  occ. eigenvalues --   -0.37443  -0.36469
 Alpha virt. eigenvalues --    0.04925   0.11184   0.16408   0.20906   0.23380
 Alpha virt. eigenvalues --    0.24747   0.26265   0.27503   0.27929   0.28837
 Alpha virt. eigenvalues --    0.29087   0.30891   0.31758   0.32394   0.32638

 Mulliken charges:
               1
     1  C   -0.170611
     2  C   -0.218501
     3  C   -0.170794
     4  C    0.158010
     5  C   -0.170870
     6  C   -0.218628
     7  H    0.226021
     8  H    0.223860
     9  H    0.275907
    10  H    0.275203
    11  H    0.223844
    12  N    0.493526
    13  O   -0.464451
    14  O   -0.459343
    15  C   -0.298378
    16  C   -0.297666
    17  C   -0.475067
    18  H    0.143746
    19  H    0.147061
    20  H    0.148955
    21  H    0.154844
    22  H    0.154674
    23  H    0.152204
    24  H    0.158064
    25  C   -0.298658
    26  C   -0.300479
    27  C   -0.473201
    28  H    0.158717
    29  H    0.156773
    30  H    0.144242
    31  H    0.147985
    32  H    0.161060
    33  H    0.160057
    34  H    0.151897
 Sum of Mulliken charges =  -0.00000

 Dipole moment (field-independent basis, Debye):
    X=              3.7231    Y=              2.5102    Z=             -2.7896  Tot=              5.2862
 Quadrupole moment (field-independent basis, Debye-Ang):
   XX=            -76.0023   YY=            -97.4762   ZZ=            -93.5523
   XY=              7.0540   XZ=             -4.8936   YZ=              0.0917

 Normal termination of Gaussian 16 at Wed May  5 20:51:02 2021.
