 Gaussian 16, Revision A.03,
 Gaussian 16:  EM64L-G16RevA.03 25-Dec-2016

 -------------
 #p 6-31g* mp2
 -------------

 ------------------------------------------------------
 Input file generated by CHIRIPA (05-May-2021 14:51:08)
 ------------------------------------------------------
 Symbolic Z-matrix:
 Charge =  0 Multiplicity = 1

                         Standard orientation:
 ---------------------------------------------------------------------
 Center     Atomic      Atomic             Coordinates (Angstroms)
 Number     Number       Type             X           Y           Z
 ---------------------------------------------------------------------
      1          6           0        3.367714    0.397719   -0.638372
      2          6           0        2.812364    1.695198   -0.050053
      3          6           0        1.627982    2.245456   -0.845194
      4          1           0        3.673441    0.575562   -1.678491
      5          1           0        2.566728   -0.353730   -0.672149
      6          1           0        3.614512    2.443544   -0.016113
      7          1           0        2.508100    1.514293    0.988847
      8          1           0        0.808915    1.519377   -0.868414
      9          1           0        1.921613    2.453908   -1.879084
     10          1           0        1.246663    3.173151   -0.407201
     11          6           0        4.552136   -0.164715    0.145555
     12          6           0        5.107486   -1.462194   -0.442764
     13          6           0        6.291868   -2.012453    0.352377
     14          1           0        5.353122    0.586733    0.179332
     15          1           0        4.246408   -0.342558    1.185674
     16          1           0        5.411749   -1.281290   -1.481664
     17          1           0        4.305338   -2.210541   -0.476704
     18          1           0        5.998237   -2.220905    1.386267
     19          1           0        7.110935   -1.286374    0.375596
     20          1           0        6.673187   -2.940148   -0.085616
     21          6           0       -4.549903   -0.089382   -0.237970
     22          6           0       -5.623506   -1.138026    0.054787
     23          6           0       -6.797302   -1.071159   -0.922722
     24          1           0       -5.003329    0.910604   -0.200842
     25          1           0       -4.182089   -0.227901   -1.264090
     26          1           0       -5.988202   -0.998445    1.080520
     27          1           0       -5.167431   -2.135621    0.017146
     28          1           0       -6.453243   -1.232422   -1.949474
     29          1           0       -7.278678   -0.088784   -0.880056
     30          1           0       -7.552997   -1.829432   -0.695109
     31          6           0       -3.369947   -0.143621    0.730787
     32          6           0       -2.296344    0.905023    0.438030
     33          6           0       -1.122547    0.838155    1.415540
     34          1           0       -3.737761   -0.005103    1.756906
     35          1           0       -2.916521   -1.143608    0.693659
     36          1           0       -2.752419    1.902617    0.475672
     37          1           0       -1.931648    0.765441   -0.587704
     38          1           0       -0.641172   -0.144219    1.372874
     39          1           0       -1.466607    0.999418    2.442291
     40          1           0       -0.366853    1.596428    1.187926
 ---------------------------------------------------------------------

 SCF Done:  E(RHF) =  -470.732640253     A.U. after   11 cycles
 E2 =    -0.1583121072D+01 EUMP2 =    -0.47231576132539D+03

 The electronic state is 1-A.
 Alpha  occ. eigenvalues --  -11.21607 -11.21602 -11.21597 -11.21586 -11.21406
 Alpha  occ. eigenvalues --  -11.21395 -11.21347 -11.21336 -11.21070 -11.21066
 Alpha  occ. eigenvalues --  -11.21031 -11.21004  -1.08443  -1.08409  -1.03584
 Alpha  occ. eigenvalues --   -1.03471  -0.96071  -0.95885  -0.87076  -0.86912
 Alpha  occ. eigenvalues --   -0.79591  -0.79585  -0.78251  -0.78224  -0.65119
 Alpha  occ. eigenvalues --   -0.65015  -0.61140  -0.60839  -0.59434  -0.59223
 Alpha  occ. eigenvalues --   -0.57616  -0.57585  -0.55392  -0.55111  -0.52756
 Alpha  occ. eigenvalues --   -0.52570  -0.52414  -0.52332  -0.49935  -0.49844
 Alpha  occ. eigenvalues --   -0.47900  -0.47893  -0.46661  -0.46575  -0.45801
 Alpha  occ. eigenvalues --   -0.45760  -0.45724  -0.45676  -0.43793  -0.43749
 Alpha virt. eigenvalues --    0.21217   0.23087   0.23547   0.25159   0.26234
 Alpha virt. eigenvalues --    0.26688   0.27030   0.27297   0.27885   0.29055
 Alpha virt. eigenvalues --    0.30072   0.31194   0.31584   0.31758   0.32250

 Mulliken charges:
               1
     1  C   -0.298241
     2  C   -0.301308
     3  C   -0.482442
     4  H    0.149561
     5  H    0.149489
     6  H    0.151999
     7  H    0.153751
     8  H    0.162030
     9  H    0.155747
    10  H    0.159193
    11  C   -0.298396
    12  C   -0.299629
    13  C   -0.475708
    14  H    0.149515
    15  H    0.149928
    16  H    0.151883
    17  H    0.151783
    18  H    0.155238
    19  H    0.155193
    20  H    0.160194
    21  C   -0.298284
    22  C   -0.299645
    23  C   -0.475707
    24  H    0.149735
    25  H    0.149555
    26  H    0.151921
    27  H    0.151872
    28  H    0.155208
    29  H    0.155210
    30  H    0.160237
    31  C   -0.298168
    32  C   -0.301123
    33  C   -0.483676
    34  H    0.149674
    35  H    0.149384
    36  H    0.152334
    37  H    0.152593
    38  H    0.153438
    39  H    0.155014
    40  H    0.170649
 Sum of Mulliken charges =  -0.00000

 Dipole moment (field-independent basis, Debye):
    X=              0.0004    Y=              0.0147    Z=             -0.0019  Tot=              0.0148
 Quadrupole moment (field-independent basis, Debye-Ang):
   XX=            -85.7784   YY=            -84.3513   ZZ=            -84.7180
   XY=              0.3687   XZ=             -1.6184   YZ=              0.3285

 Normal termination of Gaussian 16 at Thu May  6 02:07:00 2021.
