 Gaussian 16, Revision A.03,
 Gaussian 16:  EM64L-G16RevA.03 25-Dec-2016

 -------------
 #p 6-31g* mp2
 -------------

 ------------------------------------------------------
 Input file generated by CHIRIPA (05-May-2021 14:51:07)
 ------------------------------------------------------
 Symbolic Z-matrix:
 Charge =  0 Multiplicity = 1

                         Standard orientation:
 ---------------------------------------------------------------------
 Center     Atomic      Atomic             Coordinates (Angstroms)
 Number     Number       Type             X           Y           Z
 ---------------------------------------------------------------------
      1          6           0        3.653177    0.007337   -0.039050
      2          6           0        4.449866   -1.167558   -0.607286
      3          6           0        5.570700   -0.722322   -1.547123
      4          1           0        3.228640    0.589509   -0.868380
      5          1           0        4.337009    0.679898    0.497076
      6          1           0        3.764515   -1.838421   -1.141002
      7          1           0        4.872397   -1.747111    0.223497
      8          1           0        6.277063   -0.070657   -1.022733
      9          1           0        5.162885   -0.162485   -2.394985
     10          1           0        6.127330   -1.578036   -1.941807
     11          6           0        2.529135   -0.421732    0.902310
     12          6           0        1.732446    0.753163    1.470546
     13          6           0        0.611613    0.307927    2.410382
     14          1           0        1.845303   -1.094293    0.366184
     15          1           0        2.953673   -1.003904    1.731640
     16          1           0        1.309915    1.332716    0.639762
     17          1           0        2.417798    1.424026    2.004262
     18          1           0        1.019427   -0.251910    3.258245
     19          1           0       -0.094750   -0.343738    1.885993
     20          1           0        0.054982    1.163641    2.805067
     21          6           0       -3.063848    0.970296   -0.450790
     22          6           0       -1.664447    1.520181   -0.728796
     23          6           0       -1.625988    3.048276   -0.764057
     24          1           0       -3.755195    1.338221   -1.221254
     25          1           0       -3.423218    1.369266    0.507892
     26          1           0       -1.307264    1.119198   -1.686005
     27          1           0       -0.976313    1.150749    0.042311
     28          1           0       -1.957190    3.464155    0.192997
     29          1           0       -2.290021    3.432425   -1.545138
     30          1           0       -0.616204    3.419942   -0.964203
     31          6           0       -3.118465   -0.555901   -0.412470
     32          6           0       -4.517866   -1.105786   -0.134464
     33          6           0       -4.556324   -2.633880   -0.099203
     34          1           0       -2.759095   -0.954871   -1.371152
     35          1           0       -2.427117   -0.923827    0.357995
     36          1           0       -5.206000   -0.736354   -0.905571
     37          1           0       -4.875049   -0.704803    0.822745
     38          1           0       -3.892291   -3.018031    0.681879
     39          1           0       -4.225123   -3.049760   -1.056257
     40          1           0       -5.566110   -3.005547    0.100942
 ---------------------------------------------------------------------

 SCF Done:  E(RHF) =  -470.732717313     A.U. after   11 cycles
 E2 =    -0.1583952050D+01 EUMP2 =    -0.47231666936387D+03

 The electronic state is 1-A.
 Alpha  occ. eigenvalues --  -11.21612 -11.21608 -11.21603 -11.21537 -11.21414
 Alpha  occ. eigenvalues --  -11.21412 -11.21353 -11.21347 -11.21146 -11.21078
 Alpha  occ. eigenvalues --  -11.21076 -11.21073  -1.08473  -1.08406  -1.03607
 Alpha  occ. eigenvalues --   -1.03485  -0.96021  -0.95977  -0.87034  -0.86991
 Alpha  occ. eigenvalues --   -0.79652  -0.79569  -0.78286  -0.78227  -0.65283
 Alpha  occ. eigenvalues --   -0.64906  -0.61249  -0.60684  -0.59411  -0.59294
 Alpha  occ. eigenvalues --   -0.57682  -0.57527  -0.55330  -0.55253  -0.52707
 Alpha  occ. eigenvalues --   -0.52672  -0.52443  -0.52396  -0.49969  -0.49915
 Alpha  occ. eigenvalues --   -0.48008  -0.47867  -0.46754  -0.46513  -0.45933
 Alpha  occ. eigenvalues --   -0.45747  -0.45708  -0.45512  -0.43806  -0.43781
 Alpha virt. eigenvalues --    0.20517   0.22994   0.23642   0.24306   0.25893
 Alpha virt. eigenvalues --    0.26223   0.26877   0.27687   0.28519   0.29132
 Alpha virt. eigenvalues --    0.30801   0.31534   0.31603   0.31959   0.32326

 Mulliken charges:
               1
     1  C   -0.298420
     2  C   -0.299703
     3  C   -0.475722
     4  H    0.149916
     5  H    0.149482
     6  H    0.152079
     7  H    0.151916
     8  H    0.155167
     9  H    0.155190
    10  H    0.160271
    11  C   -0.298125
    12  C   -0.305268
    13  C   -0.481430
    14  H    0.149932
    15  H    0.149660
    16  H    0.156968
    17  H    0.152593
    18  H    0.156854
    19  H    0.157219
    20  H    0.160504
    21  C   -0.296952
    22  C   -0.311378
    23  C   -0.475948
    24  H    0.149493
    25  H    0.149593
    26  H    0.150603
    27  H    0.166026
    28  H    0.155156
    29  H    0.155323
    30  H    0.159999
    31  C   -0.301537
    32  C   -0.299552
    33  C   -0.475793
    34  H    0.149311
    35  H    0.151582
    36  H    0.152090
    37  H    0.152224
    38  H    0.155256
    39  H    0.155062
    40  H    0.160357
 Sum of Mulliken charges =  -0.00000

 Dipole moment (field-independent basis, Debye):
    X=              0.0139    Y=             -0.0024    Z=              0.0172  Tot=              0.0222
 Quadrupole moment (field-independent basis, Debye-Ang):
   XX=            -85.1036   YY=            -86.0554   ZZ=            -83.6502
   XY=             -0.2954   XZ=              1.2869   YZ=              0.2617

 Normal termination of Gaussian 16 at Thu May  6 08:24:32 2021.
