 Gaussian 16, Revision A.03,
 Gaussian 16:  EM64L-G16RevA.03 25-Dec-2016

 -------------
 #p 6-31g* mp2
 -------------

 ------------------------------------------------------
 Input file generated by CHIRIPA (05-May-2021 14:57:21)
 ------------------------------------------------------
 Symbolic Z-matrix:
 Charge =  0 Multiplicity = 1

                         Standard orientation:
 ---------------------------------------------------------------------
 Center     Atomic      Atomic             Coordinates (Angstroms)
 Number     Number       Type             X           Y           Z
 ---------------------------------------------------------------------
      1          6           0       -3.880905   -1.976846   -0.771570
      2          6           0       -2.612205   -1.501176   -1.118929
      3          6           0       -2.200496   -0.224289   -0.725733
      4          6           0       -3.086970    0.553667    0.017393
      5          6           0       -4.357357    0.107977    0.379012
      6          6           0       -4.747904   -1.172170   -0.025023
      7          1           0       -4.192511   -2.970029   -1.081224
      8          1           0       -1.936787   -2.123900   -1.698644
      9          1           0       -1.223913    0.168870   -0.980940
     10          1           0       -5.008561    0.751899    0.957559
     11          1           0       -5.733780   -1.538970    0.246178
     12          7           0       -2.662314    1.907175    0.439390
     13          8           0       -3.461946    2.573003    1.093530
     14          8           0       -1.537877    2.276599    0.108021
     15          6           0        1.631029   -2.147217    0.910838
     16          6           0        1.363597   -1.530070   -0.315592
     17          6           0        2.202247   -0.522384   -0.801166
     18          6           0        3.304480   -0.154968   -0.030858
     19          6           0        3.597506   -0.750915    1.194815
     20          6           0        2.745165   -1.756359    1.660805
     21          1           0        0.974228   -2.929141    1.280438
     22          1           0        0.499065   -1.831580   -0.900161
     23          1           0        2.018660   -0.027905   -1.747319
     24          1           0        4.466923   -0.428911    1.755032
     25          1           0        2.955315   -2.233893    2.613614
     26          7           0        4.199568    0.910637   -0.534547
     27          8           0        5.164212    1.216226    0.163101
     28          8           0        3.919545    1.420092   -1.617450
 ---------------------------------------------------------------------

 SCF Done:  E(RHF) =  -868.335698224     A.U. after   16 cycles
 E2 =    -0.2601363341D+01 EUMP2 =    -0.87093706156468D+03

 The electronic state is 1-A.
 Alpha  occ. eigenvalues --  -20.61147 -20.61133 -20.60707 -20.60698 -15.86206
 Alpha  occ. eigenvalues --  -15.85769 -11.31774 -11.31296 -11.28435 -11.28357
 Alpha  occ. eigenvalues --  -11.28186 -11.27976 -11.27887 -11.27731 -11.27548
 Alpha  occ. eigenvalues --  -11.27382 -11.27095 -11.26919  -1.60216  -1.59775
 Alpha  occ. eigenvalues --   -1.39763  -1.39325  -1.19991  -1.19512  -1.09339
 Alpha  occ. eigenvalues --   -1.08878  -1.05460  -1.04964  -0.96136  -0.95679
 Alpha  occ. eigenvalues --   -0.86822  -0.86367  -0.83001  -0.82527  -0.78030
 Alpha  occ. eigenvalues --   -0.77516  -0.72418  -0.71991  -0.71546  -0.71101
 Alpha  occ. eigenvalues --   -0.71084  -0.70627  -0.65679  -0.65490  -0.65179
 Alpha  occ. eigenvalues --   -0.65029  -0.62910  -0.62174  -0.55919  -0.55461
 Alpha  occ. eigenvalues --   -0.53767  -0.53600  -0.53188  -0.53055  -0.49195
 Alpha  occ. eigenvalues --   -0.49161  -0.48762  -0.48730  -0.45124  -0.44696
 Alpha  occ. eigenvalues --   -0.37971  -0.37527  -0.37059  -0.36494
 Alpha virt. eigenvalues --    0.04546   0.05012   0.10503   0.11161   0.15876
 Alpha virt. eigenvalues --    0.16355   0.18824   0.22114   0.24897   0.26812
 Alpha virt. eigenvalues --    0.27934   0.29150   0.29705   0.31513   0.32391

 Mulliken charges:
               1
     1  C   -0.170439
     2  C   -0.225395
     3  C   -0.168876
     4  C    0.157649
     5  C   -0.169356
     6  C   -0.218903
     7  H    0.226768
     8  H    0.217045
     9  H    0.274847
    10  H    0.278096
    11  H    0.225674
    12  N    0.487824
    13  O   -0.458800
    14  O   -0.457009
    15  C   -0.170791
    16  C   -0.220476
    17  C   -0.168922
    18  C    0.160676
    19  C   -0.168449
    20  C   -0.218032
    21  H    0.224719
    22  H    0.213694
    23  H    0.275920
    24  H    0.277464
    25  H    0.224504
    26  N    0.488593
    27  O   -0.459489
    28  O   -0.458535
 Sum of Mulliken charges =  -0.00000

 Dipole moment (field-independent basis, Debye):
    X=             -4.6237    Y=             -8.3279    Z=              0.4641  Tot=              9.5367
 Quadrupole moment (field-independent basis, Debye-Ang):
   XX=           -110.1385   YY=           -110.2712   ZZ=           -101.5475
   XY=              1.0793   XZ=             11.0045   YZ=             -1.3939

 Normal termination of Gaussian 16 at Thu May  6 11:09:40 2021.
