 Gaussian 16, Revision A.03,
 Gaussian 16:  EM64L-G16RevA.03 25-Dec-2016

 -------------
 #p 6-31g* mp2
 -------------

 ------------------------------------------------------
 Input file generated by CHIRIPA (05-May-2021 14:57:25)
 ------------------------------------------------------
 Symbolic Z-matrix:
 Charge =  0 Multiplicity = 1

                         Standard orientation:
 ---------------------------------------------------------------------
 Center     Atomic      Atomic             Coordinates (Angstroms)
 Number     Number       Type             X           Y           Z
 ---------------------------------------------------------------------
      1          6           0       -4.116760    1.141686   -0.935008
      2          6           0       -3.301303    1.782371    0.003647
      3          6           0       -2.348295    1.059372    0.727246
      4          6           0       -2.237180   -0.309079    0.485819
      5          6           0       -3.034947   -0.976003   -0.442658
      6          6           0       -3.981218   -0.233032   -1.154778
      7          1           0       -4.854462    1.711087   -1.492659
      8          1           0       -3.404353    2.849883    0.176401
      9          1           0       -1.704032    1.530138    1.459859
     10          1           0       -2.908902   -2.041336   -0.592974
     11          1           0       -4.613154   -0.733241   -1.883128
     12          7           0       -1.231839   -1.085057    1.245784
     13          8           0       -1.153635   -2.289663    1.014602
     14          8           0       -0.541093   -0.473970    2.058237
     15          6           0        2.524291    2.655068    0.120160
     16          6           0        3.595525    1.822460    0.460374
     17          6           0        3.539196    0.450270    0.198704
     18          6           0        2.391134   -0.057977   -0.407042
     19          6           0        1.307461    0.745685   -0.757856
     20          6           0        1.385686    2.114975   -0.486799
     21          1           0        2.576554    3.719891    0.327078
     22          1           0        4.481041    2.239141    0.931840
     23          1           0        4.354057   -0.217149    0.451629
     24          1           0        0.438028    0.301215   -1.226845
     25          1           0        0.552239    2.759196   -0.752110
     26          7           0        2.319911   -1.509118   -0.689029
     27          8           0        1.297242   -1.932317   -1.223528
     28          8           0        3.288103   -2.195847   -0.370213
 ---------------------------------------------------------------------

 SCF Done:  E(RHF) =  -868.336503246     A.U. after   16 cycles
 E2 =    -0.2603967587D+01 EUMP2 =    -0.87094047083348D+03

 The electronic state is 1-A.
 Alpha  occ. eigenvalues --  -20.60651 -20.60537 -20.60022 -20.59988 -15.85624
 Alpha  occ. eigenvalues --  -15.85056 -11.31309 -11.30577 -11.27968 -11.27837
 Alpha  occ. eigenvalues --  -11.27699 -11.27247 -11.27160 -11.27037 -11.27019
 Alpha  occ. eigenvalues --  -11.26914 -11.26334 -11.26240  -1.59658  -1.59051
 Alpha  occ. eigenvalues --   -1.39196  -1.38615  -1.19523  -1.18779  -1.08850
 Alpha  occ. eigenvalues --   -1.08157  -1.04953  -1.04242  -0.95628  -0.94970
 Alpha  occ. eigenvalues --   -0.86322  -0.85652  -0.82450  -0.81821  -0.77451
 Alpha  occ. eigenvalues --   -0.76842  -0.71852  -0.71383  -0.71064  -0.70583
 Alpha  occ. eigenvalues --   -0.70212  -0.69934  -0.65146  -0.64935  -0.64466
 Alpha  occ. eigenvalues --   -0.64292  -0.62273  -0.61624  -0.55423  -0.54786
 Alpha  occ. eigenvalues --   -0.53291  -0.53025  -0.52508  -0.52368  -0.48655
 Alpha  occ. eigenvalues --   -0.48591  -0.48063  -0.48037  -0.44647  -0.43830
 Alpha  occ. eigenvalues --   -0.37533  -0.36755  -0.36608  -0.35745
 Alpha virt. eigenvalues --    0.05054   0.05750   0.11054   0.11773   0.16473
 Alpha virt. eigenvalues --    0.17207   0.21151   0.21776   0.26846   0.27648
 Alpha virt. eigenvalues --    0.28200   0.28639   0.30662   0.31279   0.32435

 Mulliken charges:
               1
     1  C   -0.171600
     2  C   -0.221903
     3  C   -0.177374
     4  C    0.153294
     5  C   -0.168511
     6  C   -0.219026
     7  H    0.225702
     8  H    0.220895
     9  H    0.274958
    10  H    0.282899
    11  H    0.225739
    12  N    0.487550
    13  O   -0.444556
    14  O   -0.465280
    15  C   -0.170480
    16  C   -0.217367
    17  C   -0.167876
    18  C    0.168750
    19  C   -0.171690
    20  C   -0.219813
    21  H    0.221605
    22  H    0.221757
    23  H    0.275762
    24  H    0.270879
    25  H    0.215529
    26  N    0.490716
    27  O   -0.460567
    28  O   -0.459992
 Sum of Mulliken charges =  -0.00000

 Dipole moment (field-independent basis, Debye):
    X=             -3.2931    Y=              7.3679    Z=             -1.6241  Tot=              8.2321
 Quadrupole moment (field-independent basis, Debye-Ang):
   XX=            -83.5956   YY=           -104.3963   ZZ=           -107.8469
   XY=              8.1953   XZ=              9.8543   YZ=              2.0783

 Normal termination of Gaussian 16 at Fri May  7 05:03:00 2021.
