 Gaussian 16, Revision A.03,
 Gaussian 16:  EM64L-G16RevA.03 25-Dec-2016

 -------------
 #p 6-31g* mp2
 -------------

 ------------------------------------------------------
 Input file generated by CHIRIPA (05-May-2021 14:55:21)
 ------------------------------------------------------
 Symbolic Z-matrix:
 Charge =  0 Multiplicity = 1

                         Standard orientation:
 ---------------------------------------------------------------------
 Center     Atomic      Atomic             Coordinates (Angstroms)
 Number     Number       Type             X           Y           Z
 ---------------------------------------------------------------------
      1          6           0        4.290391    0.262463   -1.545964
      2          6           0        3.649781    1.250413   -0.790919
      3          6           0        2.700680    0.902221    0.174751
      4          6           0        2.415137   -0.449608    0.359991
      5          6           0        3.036385   -1.457111   -0.376405
      6          6           0        3.982192   -1.085769   -1.336667
      7          1           0        5.026396    0.541938   -2.294019
      8          1           0        3.887142    2.298258   -0.951308
      9          1           0        2.189734    1.646603    0.773289
     10          1           0        2.778796   -2.493320   -0.193825
     11          1           0        4.478125   -1.855169   -1.921577
     12          7           0        1.412110   -0.830477    1.379440
     13          8           0        1.178256   -2.028476    1.523476
     14          8           0        0.878784    0.076210    2.015145
     15          6           0       -2.870378    0.907934    0.229566
     16          6           0       -2.210695    2.112530   -0.442559
     17          6           0       -1.348521    2.928456    0.521139
     18          1           0       -3.486580    1.256700    1.069568
     19          1           0       -2.090598    0.264436    0.659970
     20          1           0       -2.991415    2.752853   -0.872768
     21          1           0       -1.596145    1.760872   -1.281177
     22          1           0       -0.549262    2.309441    0.941386
     23          1           0       -1.952459    3.307059    1.352114
     24          1           0       -0.886519    3.784675    0.019838
     25          6           0       -3.735570    0.082367   -0.721019
     26          6           0       -4.395252   -1.122230   -0.048895
     27          6           0       -5.257426   -1.938156   -1.012592
     28          1           0       -4.515349    0.725864   -1.151424
     29          1           0       -3.119368   -0.266399   -1.561021
     30          1           0       -5.009802   -0.770572    0.789724
     31          1           0       -3.614533   -1.762552    0.381315
     32          1           0       -4.653489   -2.316758   -1.843567
     33          1           0       -6.056685   -1.319140   -1.432838
     34          1           0       -5.719428   -2.794374   -0.511291
 ---------------------------------------------------------------------

 SCF Done:  E(RHF) =  -669.536472920     A.U. after   15 cycles
 E2 =    -0.2091863437D+01 EUMP2 =    -0.67162833635728D+03

 The electronic state is 1-A.
 Alpha  occ. eigenvalues --  -20.61048 -20.61038 -15.86057 -11.31328 -11.27887
 Alpha  occ. eigenvalues --  -11.27876 -11.27616 -11.26885 -11.26871 -11.21030
 Alpha  occ. eigenvalues --  -11.20921 -11.20739 -11.20543 -11.20527 -11.20416
 Alpha  occ. eigenvalues --   -1.60096  -1.39654  -1.19493  -1.08908  -1.07747
 Alpha  occ. eigenvalues --   -1.04881  -1.02905  -0.95758  -0.95352  -0.86378
 Alpha  occ. eigenvalues --   -0.86281  -0.82592  -0.78971  -0.77666  -0.77519
 Alpha  occ. eigenvalues --   -0.72281  -0.71403  -0.70602  -0.65151  -0.64886
 Alpha  occ. eigenvalues --   -0.64376  -0.62235  -0.60302  -0.58727  -0.56958
 Alpha  occ. eigenvalues --   -0.55390  -0.54637  -0.53215  -0.52971  -0.52090
 Alpha  occ. eigenvalues --   -0.51767  -0.49373  -0.49034  -0.48949  -0.47283
 Alpha  occ. eigenvalues --   -0.46029  -0.45268  -0.45092  -0.44699  -0.43150
 Alpha  occ. eigenvalues --   -0.37471  -0.36477
 Alpha virt. eigenvalues --    0.04825   0.11146   0.16313   0.21059   0.23478
 Alpha virt. eigenvalues --    0.24632   0.26553   0.27373   0.27691   0.28357
 Alpha virt. eigenvalues --    0.29123   0.30522   0.31585   0.32203   0.32428

 Mulliken charges:
               1
     1  C   -0.170343
     2  C   -0.219163
     3  C   -0.171239
     4  C    0.157356
     5  C   -0.170775
     6  C   -0.218643
     7  H    0.226202
     8  H    0.224471
     9  H    0.278780
    10  H    0.275744
    11  H    0.223935
    12  N    0.488972
    13  O   -0.458351
    14  O   -0.461282
    15  C   -0.302812
    16  C   -0.297709
    17  C   -0.487502
    18  H    0.149429
    19  H    0.164100
    20  H    0.148656
    21  H    0.146073
    22  H    0.172567
    23  H    0.156282
    24  H    0.150205
    25  C   -0.297569
    26  C   -0.300516
    27  C   -0.475217
    28  H    0.146232
    29  H    0.146208
    30  H    0.151729
    31  H    0.158173
    32  H    0.153319
    33  H    0.153016
    34  H    0.159671
 Sum of Mulliken charges =  -0.00000

 Dipole moment (field-independent basis, Debye):
    X=              3.7338    Y=              1.1901    Z=             -3.4397  Tot=              5.2143
 Quadrupole moment (field-independent basis, Debye-Ang):
   XX=            -78.3773   YY=            -92.0216   ZZ=            -98.1234
   XY=              0.1958   XZ=             -8.8944   YZ=              3.1872

 Normal termination of Gaussian 16 at Thu May  6 07:47:55 2021.
