 Gaussian 16, Revision A.03,
 Gaussian 16:  EM64L-G16RevA.03 25-Dec-2016

 -------------
 #p 6-31g* mp2
 -------------

 ------------------------------------------------------
 Input file generated by CHIRIPA (05-May-2021 14:57:27)
 ------------------------------------------------------
 Symbolic Z-matrix:
 Charge =  0 Multiplicity = 1

                         Standard orientation:
 ---------------------------------------------------------------------
 Center     Atomic      Atomic             Coordinates (Angstroms)
 Number     Number       Type             X           Y           Z
 ---------------------------------------------------------------------
      1          6           0        1.444583    1.320217   -0.861844
      2          6           0        2.355035    1.828443    0.070520
      3          6           0        3.465046    1.074420    0.462785
      4          6           0        3.634589   -0.189647   -0.099958
      5          6           0        2.745141   -0.723610   -1.031116
      6          6           0        1.642193    0.048056   -1.408723
      7          1           0        0.585043    1.912813   -1.160872
      8          1           0        2.204097    2.816105    0.496886
      9          1           0        4.185469    1.443514    1.182632
     10          1           0        2.922249   -1.711492   -1.438719
     11          1           0        0.936757   -0.349193   -2.133015
     12          7           0        4.805970   -0.997236    0.307556
     13          8           0        4.932841   -2.108067   -0.202928
     14          8           0        5.575046   -0.504101    1.129734
     15          6           0       -1.909175    2.056950    0.294361
     16          6           0       -2.476135    1.686198   -0.929411
     17          6           0       -3.326596    0.579629   -1.011690
     18          6           0       -3.589674   -0.136845    0.154820
     19          6           0       -3.040136    0.207504    1.388806
     20          6           0       -2.192486    1.317724    1.447531
     21          1           0       -1.249607    2.917978    0.349129
     22          1           0       -2.257887    2.258436   -1.826603
     23          1           0       -3.779052    0.270508   -1.946112
     24          1           0       -3.276399   -0.382459    2.266042
     25          1           0       -1.753595    1.603339    2.399289
     26          7           0       -4.488532   -1.310253    0.080183
     27          8           0       -4.704513   -1.924981    1.122343
     28          8           0       -4.960055   -1.593021   -1.019064
 ---------------------------------------------------------------------

 SCF Done:  E(RHF) =  -868.335643210     A.U. after   16 cycles
 E2 =    -0.2601654349D+01 EUMP2 =    -0.87093729755855D+03

 The electronic state is 1-A.
 Alpha  occ. eigenvalues --  -20.61431 -20.61419 -20.61099 -20.61089 -15.86489
 Alpha  occ. eigenvalues --  -15.86156 -11.32048 -11.31617 -11.28687 -11.28605
 Alpha  occ. eigenvalues --  -11.28533 -11.28248 -11.28180 -11.28015 -11.27800
 Alpha  occ. eigenvalues --  -11.27663 -11.27331 -11.27209  -1.60499  -1.60171
 Alpha  occ. eigenvalues --   -1.40047  -1.39721  -1.20266  -1.19820  -1.09664
 Alpha  occ. eigenvalues --   -1.09202  -1.05688  -1.05239  -0.96466  -0.96009
 Alpha  occ. eigenvalues --   -0.87098  -0.86644  -0.83269  -0.82847  -0.78247
 Alpha  occ. eigenvalues --   -0.77867  -0.72706  -0.72373  -0.71827  -0.71628
 Alpha  occ. eigenvalues --   -0.71496  -0.70824  -0.65927  -0.65708  -0.65480
 Alpha  occ. eigenvalues --   -0.65256  -0.63017  -0.62584  -0.56381  -0.55783
 Alpha  occ. eigenvalues --   -0.54001  -0.53784  -0.53485  -0.53342  -0.49479
 Alpha  occ. eigenvalues --   -0.49445  -0.49140  -0.49119  -0.45409  -0.45105
 Alpha  occ. eigenvalues --   -0.38523  -0.37540  -0.37290  -0.36839
 Alpha virt. eigenvalues --    0.04128   0.04807   0.10171   0.10812   0.15491
 Alpha virt. eigenvalues --    0.16330   0.18747   0.21993   0.25567   0.25655
 Alpha virt. eigenvalues --    0.27480   0.29390   0.30018   0.30557   0.32498

 Mulliken charges:
               1
     1  C   -0.164766
     2  C   -0.222191
     3  C   -0.170055
     4  C    0.158479
     5  C   -0.169838
     6  C   -0.219183
     7  H    0.217141
     8  H    0.217683
     9  H    0.276173
    10  H    0.278122
    11  H    0.225108
    12  N    0.488000
    13  O   -0.458376
    14  O   -0.460127
    15  C   -0.171970
    16  C   -0.224860
    17  C   -0.171086
    18  C    0.159305
    19  C   -0.168989
    20  C   -0.215948
    21  H    0.220156
    22  H    0.221274
    23  H    0.277644
    24  H    0.279607
    25  H    0.226846
    26  N    0.487911
    27  O   -0.456984
    28  O   -0.459077
 Sum of Mulliken charges =  -0.00000

 Dipole moment (field-independent basis, Debye):
    X=             -1.1089    Y=              6.7116    Z=             -1.0519  Tot=              6.8834
 Quadrupole moment (field-independent basis, Debye-Ang):
   XX=           -157.6031   YY=           -105.6207   ZZ=            -98.0807
   XY=             -3.0252   XZ=             -3.9058   YZ=              2.5380

 Normal termination of Gaussian 16 at Fri May  7 08:12:21 2021.
