 Gaussian 16, Revision A.03,
 Gaussian 16:  EM64L-G16RevA.03 25-Dec-2016

 -------------
 #p 6-31g* mp2
 -------------

 ------------------------------------------------------
 Input file generated by CHIRIPA (05-May-2021 14:55:20)
 ------------------------------------------------------
 Symbolic Z-matrix:
 Charge =  0 Multiplicity = 1

                         Standard orientation:
 ---------------------------------------------------------------------
 Center     Atomic      Atomic             Coordinates (Angstroms)
 Number     Number       Type             X           Y           Z
 ---------------------------------------------------------------------
      1          6           0       -2.315774    2.653476   -0.841563
      2          6           0       -3.031445    1.619110   -1.453463
      3          6           0       -3.086425    0.350711   -0.868067
      4          6           0       -2.411029    0.150859    0.334925
      5          6           0       -1.689572    1.161163    0.969019
      6          6           0       -1.648298    2.421610    0.365598
      7          1           0       -2.278388    3.635710   -1.303314
      8          1           0       -3.550775    1.796298   -2.390985
      9          1           0       -3.633048   -0.467938   -1.320213
     10          1           0       -1.181988    0.954164    1.903325
     11          1           0       -1.091720    3.223039    0.843068
     12          7           0       -2.461979   -1.187729    0.964200
     13          8           0       -1.858420   -1.338159    2.024258
     14          8           0       -3.104508   -2.061138    0.385451
     15          6           0        2.343475   -0.640605   -0.439129
     16          6           0        2.131731   -2.067592   -0.945939
     17          6           0        0.662411   -2.382856   -1.227901
     18          1           0        1.753006   -0.491641    0.475255
     19          1           0        1.951832    0.067107   -1.182873
     20          1           0        2.524908   -2.772367   -0.202082
     21          1           0        2.722924   -2.213237   -1.859117
     22          1           0        0.261204   -1.702936   -1.986414
     23          1           0        0.062063   -2.265242   -0.319965
     24          1           0        0.533921   -3.407964   -1.589156
     25          6           0        3.807263   -0.310370   -0.152776
     26          6           0        4.019007    1.116618    0.354032
     27          6           0        5.488327    1.431881    0.635995
     28          1           0        4.198906   -1.018083    0.590968
     29          1           0        4.397733   -0.459334   -1.067161
     30          1           0        3.427814    1.262262    1.267211
     31          1           0        3.625830    1.821392   -0.389823
     32          1           0        6.088675    1.314268   -0.271941
     33          1           0        5.889534    0.751961    1.394508
     34          1           0        5.616818    2.456989    0.997250
 ---------------------------------------------------------------------

 SCF Done:  E(RHF) =  -669.536026340     A.U. after   15 cycles
 E2 =    -0.2091950140D+01 EUMP2 =    -0.67162797648012D+03

 The electronic state is 1-A.
 Alpha  occ. eigenvalues --  -20.60828 -20.60815 -15.85858 -11.31196 -11.27767
 Alpha  occ. eigenvalues --  -11.27759 -11.27506 -11.26779 -11.26769 -11.21696
 Alpha  occ. eigenvalues --  -11.21329 -11.21296 -11.21210 -11.21153 -11.20621
 Alpha  occ. eigenvalues --   -1.59897  -1.39449  -1.19367  -1.08772  -1.08320
 Alpha  occ. eigenvalues --   -1.04767  -1.03391  -0.95829  -0.95612  -0.86846
 Alpha  occ. eigenvalues --   -0.86167  -0.82445  -0.79476  -0.78134  -0.77495
 Alpha  occ. eigenvalues --   -0.72083  -0.71230  -0.70481  -0.65024  -0.64945
 Alpha  occ. eigenvalues --   -0.64773  -0.62117  -0.60778  -0.59216  -0.57445
 Alpha  occ. eigenvalues --   -0.55276  -0.55105  -0.53094  -0.52862  -0.52512
 Alpha  occ. eigenvalues --   -0.52261  -0.49771  -0.48844  -0.48838  -0.47785
 Alpha  occ. eigenvalues --   -0.46510  -0.45670  -0.45588  -0.44851  -0.43643
 Alpha  occ. eigenvalues --   -0.37340  -0.36360
 Alpha virt. eigenvalues --    0.05022   0.11247   0.16517   0.21329   0.22941
 Alpha virt. eigenvalues --    0.24369   0.26352   0.27185   0.27539   0.28075
 Alpha virt. eigenvalues --    0.28537   0.30805   0.31502   0.31912   0.32218

 Mulliken charges:
               1
     1  C   -0.170842
     2  C   -0.218805
     3  C   -0.170709
     4  C    0.158428
     5  C   -0.170372
     6  C   -0.218167
     7  H    0.225578
     8  H    0.223422
     9  H    0.275885
    10  H    0.275202
    11  H    0.223706
    12  N    0.488481
    13  O   -0.461378
    14  O   -0.458317
    15  C   -0.299126
    16  C   -0.299273
    17  C   -0.479172
    18  H    0.150671
    19  H    0.146446
    20  H    0.154859
    21  H    0.149645
    22  H    0.149554
    23  H    0.163280
    24  H    0.163412
    25  C   -0.298119
    26  C   -0.298925
    27  C   -0.475488
    28  H    0.151561
    29  H    0.149271
    30  H    0.149703
    31  H    0.148909
    32  H    0.155455
    33  H    0.156668
    34  H    0.158554
 Sum of Mulliken charges =  -0.00000

 Dipole moment (field-independent basis, Debye):
    X=              0.1126    Y=              4.6367    Z=             -2.1967  Tot=              5.1320
 Quadrupole moment (field-independent basis, Debye-Ang):
   XX=            -95.6641   YY=            -93.1755   ZZ=            -93.0302
   XY=            -10.8550   XZ=              7.7490   YZ=              2.1775

 Normal termination of Gaussian 16 at Wed May  5 22:10:17 2021.
