 Gaussian 16, Revision A.03,
 Gaussian 16:  EM64L-G16RevA.03 25-Dec-2016

 -------------
 #p 6-31g* mp2
 -------------

 ------------------------------------------------------
 Input file generated by CHIRIPA (05-May-2021 14:51:11)
 ------------------------------------------------------
 Symbolic Z-matrix:
 Charge =  0 Multiplicity = 1

                         Standard orientation:
 ---------------------------------------------------------------------
 Center     Atomic      Atomic             Coordinates (Angstroms)
 Number     Number       Type             X           Y           Z
 ---------------------------------------------------------------------
      1          6           0       -3.195081    0.528456   -0.139737
      2          6           0       -4.645265    0.917945   -0.428266
      3          6           0       -4.760884    2.059894   -1.438403
      4          1           0       -2.653587    1.407759    0.235172
      5          1           0       -2.706646    0.238143   -1.080239
      6          1           0       -5.131216    1.206112    0.512706
      7          1           0       -5.183419    0.037565   -0.802350
      8          1           0       -4.301282    1.779090   -2.391564
      9          1           0       -4.248782    2.954277   -1.069036
     10          1           0       -5.806056    2.322159   -1.629960
     11          6           0       -3.063132   -0.611825    0.868269
     12          6           0       -1.612947   -1.001313    1.156798
     13          6           0       -1.497328   -2.143263    2.166936
     14          1           0       -3.551567   -0.321511    1.808771
     15          1           0       -3.604626   -1.491127    0.493361
     16          1           0       -1.074794   -0.120934    1.530883
     17          1           0       -1.126997   -1.289481    0.215827
     18          1           0       -2.009430   -3.037646    1.797569
     19          1           0       -1.956931   -1.862459    3.120096
     20          1           0       -0.452157   -2.405528    2.358493
     21          6           0        3.042838    0.759984   -0.119248
     22          6           0        4.314624    1.349040    0.491947
     23          6           0        4.126186    2.786587    0.977483
     24          1           0        2.719634    1.392253   -0.957531
     25          1           0        2.236500    0.793390    0.626472
     26          1           0        5.118693    1.313264   -0.254250
     27          1           0        4.634946    0.715189    1.328753
     28          1           0        3.342768    2.835871    1.740653
     29          1           0        3.829265    3.437344    0.148656
     30          1           0        5.047596    3.188039    1.410727
     31          6           0        3.215375   -0.676616   -0.609285
     32          6           0        1.943589   -1.265671   -1.220480
     33          6           0        2.132026   -2.703219   -1.706015
     34          1           0        4.021713   -0.710022   -1.355005
     35          1           0        3.538579   -1.308885    0.228999
     36          1           0        1.623267   -0.631821   -2.057285
     37          1           0        1.139520   -1.229895   -0.474283
     38          1           0        2.428948   -3.353975   -0.877189
     39          1           0        2.915445   -2.752503   -2.469185
     40          1           0        1.210617   -3.104670   -2.139260
 ---------------------------------------------------------------------

 SCF Done:  E(RHF) =  -470.733264155     A.U. after   11 cycles
 E2 =    -0.1582870872D+01 EUMP2 =    -0.47231613502714D+03

 The electronic state is 1-A.
 Alpha  occ. eigenvalues --  -11.21627 -11.21605 -11.21589 -11.21536 -11.21418
 Alpha  occ. eigenvalues --  -11.21381 -11.21356 -11.21322 -11.21119 -11.21073
 Alpha  occ. eigenvalues --  -11.21066 -11.21064  -1.08454  -1.08402  -1.03567
 Alpha  occ. eigenvalues --   -1.03500  -0.96001  -0.95963  -0.87017  -0.86978
 Alpha  occ. eigenvalues --   -0.79698  -0.79512  -0.78327  -0.78149  -0.65117
 Alpha  occ. eigenvalues --   -0.65009  -0.61047  -0.60835  -0.59416  -0.59285
 Alpha  occ. eigenvalues --   -0.57637  -0.57550  -0.55300  -0.55236  -0.52699
 Alpha  occ. eigenvalues --   -0.52657  -0.52426  -0.52388  -0.49978  -0.49879
 Alpha  occ. eigenvalues --   -0.48120  -0.47793  -0.46826  -0.46458  -0.45981
 Alpha  occ. eigenvalues --   -0.45749  -0.45724  -0.45363  -0.43803  -0.43761
 Alpha virt. eigenvalues --    0.21418   0.23103   0.23651   0.24662   0.25926
 Alpha virt. eigenvalues --    0.26324   0.27005   0.27803   0.28024   0.28998
 Alpha virt. eigenvalues --    0.30511   0.31178   0.31677   0.31725   0.32315

 Mulliken charges:
               1
     1  C   -0.298433
     2  C   -0.299680
     3  C   -0.475710
     4  H    0.149818
     5  H    0.149868
     6  H    0.151912
     7  H    0.151908
     8  H    0.155205
     9  H    0.155251
    10  H    0.160249
    11  C   -0.297575
    12  C   -0.305838
    13  C   -0.476097
    14  H    0.149509
    15  H    0.149670
    16  H    0.151573
    17  H    0.157909
    18  H    0.155550
    19  H    0.155514
    20  H    0.159852
    21  C   -0.298677
    22  C   -0.299645
    23  C   -0.475652
    24  H    0.149690
    25  H    0.149927
    26  H    0.151932
    27  H    0.151851
    28  H    0.154977
    29  H    0.155192
    30  H    0.160210
    31  C   -0.297527
    32  C   -0.308882
    33  C   -0.475350
    34  H    0.149328
    35  H    0.149244
    36  H    0.151352
    37  H    0.161835
    38  H    0.155045
    39  H    0.155229
    40  H    0.159468
 Sum of Mulliken charges =  -0.00000

 Dipole moment (field-independent basis, Debye):
    X=             -0.0251    Y=              0.0020    Z=              0.0032  Tot=              0.0254
 Quadrupole moment (field-independent basis, Debye-Ang):
   XX=            -84.8397   YY=            -85.9787   ZZ=            -84.0506
   XY=              0.3293   XZ=             -0.3999   YZ=              0.3468

 Normal termination of Gaussian 16 at Thu May  6 07:02:14 2021.
