 Gaussian 16, Revision A.03,
 Gaussian 16:  EM64L-G16RevA.03 25-Dec-2016

 -------------
 #p 6-31g* mp2
 -------------

 ------------------------------------------------------
 Input file generated by CHIRIPA (05-May-2021 14:53:13)
 ------------------------------------------------------
 Symbolic Z-matrix:
 Charge =  0 Multiplicity = 1

                         Standard orientation:
 ---------------------------------------------------------------------
 Center     Atomic      Atomic             Coordinates (Angstroms)
 Number     Number       Type             X           Y           Z
 ---------------------------------------------------------------------
      1          6           0       -3.455754   -0.421639    0.414508
      2          6           0       -2.420450    0.328225    1.253456
      3          6           0       -1.137873   -0.476219    1.467135
      4          1           0       -3.696317   -1.374228    0.906085
      5          1           0       -3.014315   -0.675152   -0.559277
      6          1           0       -2.864168    0.581462    2.224848
      7          1           0       -2.182466    1.279226    0.759922
      8          1           0       -0.669574   -0.716764    0.507221
      9          1           0       -1.355150   -1.418493    1.980470
     10          1           0       -0.411638    0.078570    2.069342
     11          6           0       -4.743449    0.369651    0.192181
     12          6           0       -5.778753   -0.380213   -0.646767
     13          6           0       -7.061330    0.424231   -0.860446
     14          1           0       -5.184888    0.623164    1.165967
     15          1           0       -4.502886    1.322240   -0.299396
     16          1           0       -6.016737   -1.331214   -0.153233
     17          1           0       -5.335035   -0.633450   -1.618159
     18          1           0       -6.844053    1.366505   -1.373781
     19          1           0       -7.529629    0.664776    0.099468
     20          1           0       -7.787565   -0.130558   -1.462653
     21          6           0        3.392494    2.534920   -0.155339
     22          6           0        2.184712    1.935766   -0.527895
     23          6           0        2.068167    0.543432   -0.576603
     24          6           0        3.184476   -0.222795   -0.244881
     25          6           0        4.401373    0.344488    0.130138
     26          6           0        4.495026    1.738773    0.171912
     27          1           0        3.474137    3.617277   -0.120195
     28          1           0        1.326823    2.551568   -0.782567
     29          1           0        1.145104    0.053406   -0.861641
     30          1           0        5.239185   -0.295682    0.378480
     31          1           0        5.434259    2.201340    0.461599
     32          7           0        3.073213   -1.697831   -0.292775
     33          8           0        4.071352   -2.350667    0.004140
     34          8           0        1.989971   -2.173195   -0.626323
 ---------------------------------------------------------------------

 SCF Done:  E(RHF) =  -669.535348000     A.U. after   15 cycles
 E2 =    -0.2091527205D+01 EUMP2 =    -0.67162687520495D+03

 The electronic state is 1-A.
 Alpha  occ. eigenvalues --  -20.60776 -20.60768 -15.85819 -11.31172 -11.27751
 Alpha  occ. eigenvalues --  -11.27737 -11.27498 -11.26765 -11.26755 -11.21729
 Alpha  occ. eigenvalues --  -11.21625 -11.21464 -11.21396 -11.21111 -11.21026
 Alpha  occ. eigenvalues --   -1.59842  -1.39397  -1.19352  -1.08749  -1.08491
 Alpha  occ. eigenvalues --   -1.04758  -1.03582  -0.96019  -0.95582  -0.87032
 Alpha  occ. eigenvalues --   -0.86153  -0.82418  -0.79642  -0.78298  -0.77465
 Alpha  occ. eigenvalues --   -0.72041  -0.71158  -0.70475  -0.65146  -0.65007
 Alpha  occ. eigenvalues --   -0.64763  -0.62157  -0.60959  -0.59387  -0.57621
 Alpha  occ. eigenvalues --   -0.55411  -0.55169  -0.53103  -0.52888  -0.52672
 Alpha  occ. eigenvalues --   -0.52394  -0.49937  -0.48800  -0.48796  -0.47938
 Alpha  occ. eigenvalues --   -0.46683  -0.45835  -0.45771  -0.44787  -0.43834
 Alpha  occ. eigenvalues --   -0.37334  -0.36343
 Alpha virt. eigenvalues --    0.05050   0.11268   0.16543   0.20648   0.22881
 Alpha virt. eigenvalues --    0.24050   0.26111   0.26939   0.27423   0.27907
 Alpha virt. eigenvalues --    0.28997   0.30160   0.31498   0.31691   0.31959

 Mulliken charges:
               1
     1  C   -0.298123
     2  C   -0.299942
     3  C   -0.480983
     4  H    0.153008
     5  H    0.149822
     6  H    0.152707
     7  H    0.143527
     8  H    0.159628
     9  H    0.161877
    10  H    0.158168
    11  C   -0.297957
    12  C   -0.299814
    13  C   -0.475678
    14  H    0.149617
    15  H    0.146886
    16  H    0.153421
    17  H    0.152453
    18  H    0.154093
    19  H    0.155150
    20  H    0.160907
    21  C   -0.170648
    22  C   -0.220546
    23  C   -0.168548
    24  C    0.156952
    25  C   -0.170729
    26  C   -0.218757
    27  H    0.225534
    28  H    0.223447
    29  H    0.278857
    30  H    0.275560
    31  H    0.223352
    32  N    0.488459
    33  O   -0.460125
    34  O   -0.461574
 Sum of Mulliken charges =  -0.00000

 Dipole moment (field-independent basis, Debye):
    X=              0.3894    Y=              5.0951    Z=              0.1993  Tot=              5.1138
 Quadrupole moment (field-independent basis, Debye-Ang):
   XX=            -88.4835   YY=            -97.6973   ZZ=            -94.5588
   XY=             17.1075   XZ=              1.4443   YZ=             -1.8132

 Normal termination of Gaussian 16 at Thu May  6 02:33:51 2021.
