 Gaussian 16, Revision A.03,
 Gaussian 16:  EM64L-G16RevA.03 25-Dec-2016

 -------------
 #p 6-31g* mp2
 -------------

 ------------------------------------------------------
 Input file generated by CHIRIPA (05-May-2021 14:53:14)
 ------------------------------------------------------
 Symbolic Z-matrix:
 Charge =  0 Multiplicity = 1

                         Standard orientation:
 ---------------------------------------------------------------------
 Center     Atomic      Atomic             Coordinates (Angstroms)
 Number     Number       Type             X           Y           Z
 ---------------------------------------------------------------------
      1          6           0       -3.748984    0.246186   -0.034358
      2          6           0       -2.675701   -0.841421   -0.090562
      3          6           0       -1.261596   -0.271160   -0.204154
      4          1           0       -3.675561    0.871737   -0.934492
      5          1           0       -3.548616    0.905409    0.821604
      6          1           0       -2.878822   -1.499216   -0.945351
      7          1           0       -2.751811   -1.464573    0.809719
      8          1           0       -1.034362    0.369241    0.654247
      9          1           0       -1.162095    0.334401   -1.110794
     10          1           0       -0.510123   -1.065925   -0.242849
     11          6           0       -5.167934   -0.308247    0.079272
     12          6           0       -6.241217    0.779360    0.135476
     13          6           0       -7.655322    0.209099    0.249068
     14          1           0       -5.368302   -0.967471   -0.776691
     15          1           0       -5.241357   -0.933798    0.979405
     16          1           0       -6.165107    1.402512   -0.764805
     17          1           0       -6.038096    1.437155    0.990264
     18          1           0       -7.754823   -0.396463    1.155708
     19          1           0       -7.882556   -0.431302   -0.609333
     20          1           0       -8.406795    1.003863    0.287763
     21          6           0        3.855467    2.519598    0.005371
     22          6           0        2.649417    1.996142   -0.472079
     23          6           0        2.432206    0.615177   -0.489445
     24          6           0        3.447179   -0.216998   -0.019760
     25          6           0        4.659583    0.274124    0.462077
     26          6           0        4.854938    1.658436    0.470106
     27          1           0        4.015713    3.593664    0.015234
     28          1           0        1.871440    2.662543   -0.833614
     29          1           0        1.508039    0.183103   -0.853652
     30          1           0        5.416421   -0.415342    0.815985
     31          1           0        5.792570    2.062145    0.841469
     32          7           0        3.228796   -1.680737   -0.033202
     33          8           0        4.138766   -2.392639    0.386069
     34          8           0        2.151793   -2.088397   -0.462754
 ---------------------------------------------------------------------

 SCF Done:  E(RHF) =  -669.535837035     A.U. after   15 cycles
 E2 =    -0.2091893536D+01 EUMP2 =    -0.67162773057124D+03

 The electronic state is 1-A.
 Alpha  occ. eigenvalues --  -20.60836 -20.60824 -15.85867 -11.31131 -11.27722
 Alpha  occ. eigenvalues --  -11.27626 -11.27458 -11.26721 -11.26688 -11.21596
 Alpha  occ. eigenvalues --  -11.21503 -11.21374 -11.21311 -11.21050 -11.21030
 Alpha  occ. eigenvalues --   -1.59896  -1.39454  -1.19311  -1.08730  -1.08393
 Alpha  occ. eigenvalues --   -1.04701  -1.03495  -0.95982  -0.95565  -0.87021
 Alpha  occ. eigenvalues --   -0.86095  -0.82412  -0.79595  -0.78215  -0.77451
 Alpha  occ. eigenvalues --   -0.72097  -0.71208  -0.70427  -0.65025  -0.64970
 Alpha  occ. eigenvalues --   -0.64715  -0.62075  -0.60897  -0.59275  -0.57547
 Alpha  occ. eigenvalues --   -0.55291  -0.55211  -0.53066  -0.52992  -0.52415
 Alpha  occ. eigenvalues --   -0.52357  -0.49930  -0.48856  -0.48837  -0.47862
 Alpha  occ. eigenvalues --   -0.46600  -0.45755  -0.45675  -0.44884  -0.43694
 Alpha  occ. eigenvalues --   -0.37302  -0.36294
 Alpha virt. eigenvalues --    0.05035   0.11333   0.16523   0.21180   0.22924
 Alpha virt. eigenvalues --    0.24349   0.26152   0.26751   0.27613   0.27944
 Alpha virt. eigenvalues --    0.29278   0.30592   0.31369   0.31737   0.32102

 Mulliken charges:
               1
     1  C   -0.298338
     2  C   -0.298048
     3  C   -0.497877
     4  H    0.147275
     5  H    0.147831
     6  H    0.155053
     7  H    0.155474
     8  H    0.152081
     9  H    0.144255
    10  H    0.188753
    11  C   -0.298444
    12  C   -0.299426
    13  C   -0.475703
    14  H    0.150430
    15  H    0.150689
    16  H    0.151015
    17  H    0.151175
    18  H    0.155665
    19  H    0.155611
    20  H    0.159765
    21  C   -0.170360
    22  C   -0.222842
    23  C   -0.175232
    24  C    0.155661
    25  C   -0.170265
    26  C   -0.219221
    27  H    0.225356
    28  H    0.223794
    29  H    0.291320
    30  H    0.275204
    31  H    0.223132
    32  N    0.489918
    33  O   -0.459588
    34  O   -0.464110
 Sum of Mulliken charges =  -0.00000

 Dipole moment (field-independent basis, Debye):
    X=              0.7808    Y=              5.0196    Z=              0.0714  Tot=              5.0805
 Quadrupole moment (field-independent basis, Debye-Ang):
   XX=            -86.6811   YY=            -97.5032   ZZ=            -93.7920
   XY=             17.0573   XZ=              2.3562   YZ=             -0.3778

 Normal termination of Gaussian 16 at Wed May  5 21:50:04 2021.
