 Gaussian 16, Revision A.03,
 Gaussian 16:  EM64L-G16RevA.03 25-Dec-2016

 -------------
 #p 6-31g* mp2
 -------------

 ------------------------------------------------------
 Input file generated by CHIRIPA (05-May-2021 14:57:27)
 ------------------------------------------------------
 Symbolic Z-matrix:
 Charge =  0 Multiplicity = 1

                         Standard orientation:
 ---------------------------------------------------------------------
 Center     Atomic      Atomic             Coordinates (Angstroms)
 Number     Number       Type             X           Y           Z
 ---------------------------------------------------------------------
      1          6           0        5.672788    1.683030    0.261349
      2          6           0        4.614493    1.687271    1.175961
      3          6           0        3.569740    0.765894    1.057203
      4          6           0        3.615502   -0.149787    0.007096
      5          6           0        4.656077   -0.179198   -0.920065
      6          6           0        5.690172    0.751452   -0.781906
      7          1           0        6.480238    2.402379    0.361139
      8          1           0        4.598362    2.409593    1.987155
      9          1           0        2.738241    0.746954    1.751226
     10          1           0        4.644438   -0.911401   -1.718289
     11          1           0        6.510778    0.745829   -1.493677
     12          7           0        2.515110   -1.130115   -0.128898
     13          8           0        2.578828   -1.926568   -1.062836
     14          8           0        1.609741   -1.083481    0.701023
     15          6           0       -2.001597   -1.740464    0.363706
     16          6           0       -2.026081   -1.016377   -0.832797
     17          6           0       -3.016117   -0.056118   -1.061448
     18          6           0       -3.970419    0.155339   -0.067524
     19          6           0       -3.972686   -0.549931    1.134923
     20          6           0       -2.973264   -1.505345    1.342023
     21          1           0       -1.228868   -2.484535    0.532957
     22          1           0       -1.272748   -1.196865   -1.594346
     23          1           0       -3.058596    0.518701   -1.978615
     24          1           0       -4.737089   -0.347793    1.875359
     25          1           0       -2.956715   -2.066187    2.272199
     26          7           0       -5.023493    1.169358   -0.298178
     27          8           0       -5.852886    1.336894    0.593269
     28          8           0       -4.999560    1.777409   -1.366044
 ---------------------------------------------------------------------

 SCF Done:  E(RHF) =  -868.340670106     A.U. after   15 cycles
 E2 =    -0.2598369684D+01 EUMP2 =    -0.87093903978992D+03

 The electronic state is 1-A.
 Alpha  occ. eigenvalues --  -20.61826 -20.61808 -20.59993 -20.59988 -15.86826
 Alpha  occ. eigenvalues --  -15.85040 -11.31864 -11.30124 -11.28395 -11.28385
 Alpha  occ. eigenvalues --  -11.28071 -11.27332 -11.27319 -11.26721 -11.26672
 Alpha  occ. eigenvalues --  -11.26144 -11.25587 -11.25471  -1.60886  -1.59077
 Alpha  occ. eigenvalues --   -1.40442  -1.38639  -1.20006  -1.18259  -1.09465
 Alpha  occ. eigenvalues --   -1.07648  -1.05357  -1.03638  -0.96355  -0.94538
 Alpha  occ. eigenvalues --   -0.86770  -0.85012  -0.83195  -0.81405  -0.78278
 Alpha  occ. eigenvalues --   -0.76534  -0.73071  -0.72179  -0.71262  -0.71106
 Alpha  occ. eigenvalues --   -0.70401  -0.69231  -0.65660  -0.65355  -0.63885
 Alpha  occ. eigenvalues --   -0.63605  -0.62706  -0.61006  -0.55870  -0.53961
 Alpha  occ. eigenvalues --   -0.53705  -0.53441  -0.51969  -0.51705  -0.49832
 Alpha  occ. eigenvalues --   -0.49802  -0.48034  -0.47990  -0.45912  -0.44109
 Alpha  occ. eigenvalues --   -0.37966  -0.36944  -0.36112  -0.35270
 Alpha virt. eigenvalues --    0.04222   0.06018   0.10716   0.12415   0.15795
 Alpha virt. eigenvalues --    0.17614   0.20898   0.22729   0.26830   0.27765
 Alpha virt. eigenvalues --    0.28439   0.29716   0.30520   0.31942   0.32443

 Mulliken charges:
               1
     1  C   -0.169514
     2  C   -0.218479
     3  C   -0.170207
     4  C    0.157279
     5  C   -0.170573
     6  C   -0.218557
     7  H    0.228240
     8  H    0.226045
     9  H    0.276368
    10  H    0.275770
    11  H    0.225522
    12  N    0.488999
    13  O   -0.462602
    14  O   -0.466001
    15  C   -0.162349
    16  C   -0.220367
    17  C   -0.173868
    18  C    0.156284
    19  C   -0.172658
    20  C   -0.222047
    21  H    0.241209
    22  H    0.228723
    23  H    0.271165
    24  H    0.271160
    25  H    0.220089
    26  N    0.488332
    27  O   -0.464041
    28  O   -0.463920
 Sum of Mulliken charges =  -0.00000

 Dipole moment (field-independent basis, Debye):
    X=              8.2080    Y=             -0.2105    Z=              1.3137  Tot=              8.3151
 Quadrupole moment (field-independent basis, Debye-Ang):
   XX=           -106.4191   YY=           -107.0822   ZZ=            -98.1661
   XY=             27.2484   XZ=             -5.7699   YZ=              1.2326

 Normal termination of Gaussian 16 at Thu May  6 18:10:12 2021.
