 Gaussian 16, Revision A.03,
 Gaussian 16:  EM64L-G16RevA.03 25-Dec-2016

 -------------
 #p 6-31g* mp2
 -------------

 ------------------------------------------------------
 Input file generated by CHIRIPA (05-May-2021 14:51:10)
 ------------------------------------------------------
 Symbolic Z-matrix:
 Charge =  0 Multiplicity = 1

                         Standard orientation:
 ---------------------------------------------------------------------
 Center     Atomic      Atomic             Coordinates (Angstroms)
 Number     Number       Type             X           Y           Z
 ---------------------------------------------------------------------
      1          6           0       -2.821721   -0.198192    0.661026
      2          6           0       -1.944165    1.017991    0.958989
      3          6           0       -0.665585    0.653625    1.714149
      4          1           0       -3.081181   -0.695437    1.605681
      5          1           0       -2.242569   -0.924586    0.074230
      6          1           0       -2.525239    1.742480    1.543868
      7          1           0       -1.686921    1.512509    0.013529
      8          1           0       -0.062307   -0.051060    1.132706
      9          1           0       -0.905389    0.180218    2.671740
     10          1           0       -0.053185    1.537807    1.916751
     11          6           0       -4.103595    0.149964   -0.093502
     12          6           0       -4.981150   -1.066218   -0.391465
     13          6           0       -6.259730   -0.701852   -1.146624
     14          1           0       -4.682747    0.876359    0.493294
     15          1           0       -3.844134    0.647209   -1.038157
     16          1           0       -5.238394   -1.560736    0.553995
     17          1           0       -4.400076   -1.790707   -0.976344
     18          1           0       -6.019927   -0.228445   -2.104216
     19          1           0       -6.863008    0.002833   -0.565182
     20          1           0       -6.872130   -1.586034   -1.349226
     21          6           0        3.494855   -0.615623    0.132330
     22          6           0        4.200553   -1.768726   -0.582042
     23          6           0        4.257002   -3.041650    0.263104
     24          1           0        4.013028   -0.406728    1.078273
     25          1           0        2.474750   -0.926785    0.396828
     26          1           0        5.218560   -1.455002   -0.846342
     27          1           0        3.680755   -1.974773   -1.526485
     28          1           0        3.247377   -3.381559    0.515527
     29          1           0        4.793919   -2.858835    1.199534
     30          1           0        4.765607   -3.853100   -0.266735
     31          6           0        3.430460    0.663850   -0.699855
     32          6           0        2.724762    1.816953    0.014518
     33          6           0        2.668313    3.089877   -0.830628
     34          1           0        4.450564    0.975012   -0.964352
     35          1           0        2.912288    0.454955   -1.645796
     36          1           0        3.244561    2.023000    0.958961
     37          1           0        1.706755    1.503230    0.278818
     38          1           0        2.131396    2.907062   -1.767058
     39          1           0        3.677939    3.429785   -1.083051
     40          1           0        2.159709    3.901327   -0.300789
 ---------------------------------------------------------------------

 SCF Done:  E(RHF) =  -470.732522077     A.U. after   11 cycles
 E2 =    -0.1583348036D+01 EUMP2 =    -0.47231587011240D+03

 The electronic state is 1-A.
 Alpha  occ. eigenvalues --  -11.21659 -11.21631 -11.21584 -11.21449 -11.21440
 Alpha  occ. eigenvalues --  -11.21388 -11.21366 -11.21302 -11.21108 -11.21094
 Alpha  occ. eigenvalues --  -11.21056 -11.21018  -1.08479  -1.08382  -1.03590
 Alpha  occ. eigenvalues --   -1.03470  -0.96034  -0.95939  -0.87067  -0.86941
 Alpha  occ. eigenvalues --   -0.79695  -0.79504  -0.78299  -0.78180  -0.65177
 Alpha  occ. eigenvalues --   -0.64971  -0.61091  -0.60802  -0.59481  -0.59226
 Alpha  occ. eigenvalues --   -0.57698  -0.57485  -0.55333  -0.55232  -0.52779
 Alpha  occ. eigenvalues --   -0.52609  -0.52457  -0.52344  -0.50042  -0.49852
 Alpha  occ. eigenvalues --   -0.47991  -0.47813  -0.46774  -0.46518  -0.45867
 Alpha  occ. eigenvalues --   -0.45786  -0.45719  -0.45472  -0.43803  -0.43711
 Alpha virt. eigenvalues --    0.21230   0.23103   0.23734   0.24562   0.25674
 Alpha virt. eigenvalues --    0.26834   0.27025   0.27166   0.27921   0.29289
 Alpha virt. eigenvalues --    0.30915   0.31371   0.31638   0.31907   0.32022

 Mulliken charges:
               1
     1  C   -0.298436
     2  C   -0.301295
     3  C   -0.482115
     4  H    0.149991
     5  H    0.149269
     6  H    0.152563
     7  H    0.152460
     8  H    0.157452
     9  H    0.156454
    10  H    0.163891
    11  C   -0.298322
    12  C   -0.299690
    13  C   -0.475734
    14  H    0.149716
    15  H    0.149678
    16  H    0.152034
    17  H    0.151873
    18  H    0.155212
    19  H    0.155263
    20  H    0.160352
    21  C   -0.301391
    22  C   -0.299513
    23  C   -0.475648
    24  H    0.149969
    25  H    0.151769
    26  H    0.152056
    27  H    0.151560
    28  H    0.155047
    29  H    0.155298
    30  H    0.160144
    31  C   -0.297549
    32  C   -0.310088
    33  C   -0.475136
    34  H    0.149168
    35  H    0.148577
    36  H    0.150800
    37  H    0.165645
    38  H    0.154342
    39  H    0.154854
    40  H    0.159482
 Sum of Mulliken charges =  -0.00000

 Dipole moment (field-independent basis, Debye):
    X=             -0.0467    Y=             -0.0051    Z=              0.0377  Tot=              0.0602
 Quadrupole moment (field-independent basis, Debye-Ang):
   XX=            -84.8052   YY=            -85.7863   ZZ=            -84.3516
   XY=              0.3503   XZ=             -0.6082   YZ=              0.8397

 Normal termination of Gaussian 16 at Thu May  6 03:49:16 2021.
