 Gaussian 16, Revision A.03,
 Gaussian 16:  EM64L-G16RevA.03 25-Dec-2016

 -------------
 #p 6-31g* mp2
 -------------

 ------------------------------------------------------
 Input file generated by CHIRIPA (05-May-2021 14:53:14)
 ------------------------------------------------------
 Symbolic Z-matrix:
 Charge =  0 Multiplicity = 1

                         Standard orientation:
 ---------------------------------------------------------------------
 Center     Atomic      Atomic             Coordinates (Angstroms)
 Number     Number       Type             X           Y           Z
 ---------------------------------------------------------------------
      1          6           0       -2.677529    0.901829    0.331800
      2          6           0       -2.552920    2.414520    0.146809
      3          6           0       -1.209240    2.960555    0.630714
      4          1           0       -2.541402    0.656281    1.393930
      5          1           0       -1.861714    0.404632   -0.211006
      6          1           0       -3.369532    2.908641    0.688663
      7          1           0       -2.689549    2.656515   -0.914976
      8          1           0       -0.384067    2.494443    0.082600
      9          1           0       -1.067913    2.748003    1.695350
     10          1           0       -1.141578    4.043713    0.489109
     11          6           0       -4.015342    0.341078   -0.147304
     12          6           0       -4.139951   -1.171614    0.037687
     13          6           0       -5.483631   -1.717649   -0.446218
     14          1           0       -4.831157    0.838274    0.395501
     15          1           0       -4.151469    0.586626   -1.209435
     16          1           0       -4.003322   -1.413608    1.099472
     17          1           0       -3.323339   -1.665735   -0.504167
     18          1           0       -5.624958   -1.505096   -1.510854
     19          1           0       -6.308804   -1.251537    0.101896
     20          1           0       -5.551293   -2.800806   -0.304613
     21          6           0        4.126202    1.514086   -0.358421
     22          6           0        4.654652    0.293153    0.073533
     23          6           0        3.826379   -0.821395    0.235690
     24          6           0        2.468248   -0.678824   -0.044385
     25          6           0        1.911830    0.524142   -0.476315
     26          6           0        2.758889    1.625487   -0.631485
     27          1           0        4.776921    2.374765   -0.481676
     28          1           0        5.716142    0.203717    0.286339
     29          1           0        4.209096   -1.778494    0.568716
     30          1           0        0.849634    0.582521   -0.680639
     31          1           0        2.345721    2.572433   -0.967092
     32          7           0        1.581448   -1.851757    0.123585
     33          8           0        0.388353   -1.700170   -0.129756
     34          8           0        2.096262   -2.900481    0.505401
 ---------------------------------------------------------------------

 SCF Done:  E(RHF) =  -669.535323600     A.U. after   15 cycles
 E2 =    -0.2092643278D+01 EUMP2 =    -0.67162796687797D+03

 The electronic state is 1-A.
 Alpha  occ. eigenvalues --  -20.60845 -20.60836 -15.85886 -11.31210 -11.27780
 Alpha  occ. eigenvalues --  -11.27762 -11.27515 -11.26790 -11.26772 -11.21613
 Alpha  occ. eigenvalues --  -11.21464 -11.20986 -11.20908 -11.20812 -11.20461
 Alpha  occ. eigenvalues --   -1.59909  -1.39465  -1.19384  -1.08784  -1.08074
 Alpha  occ. eigenvalues --   -1.04787  -1.03252  -0.95737  -0.95626  -0.86769
 Alpha  occ. eigenvalues --   -0.86183  -0.82463  -0.79327  -0.77838  -0.77462
 Alpha  occ. eigenvalues --   -0.72108  -0.71225  -0.70508  -0.65043  -0.64855
 Alpha  occ. eigenvalues --   -0.64664  -0.62189  -0.60627  -0.59138  -0.57298
 Alpha  occ. eigenvalues --   -0.55313  -0.55028  -0.53118  -0.52886  -0.52459
 Alpha  occ. eigenvalues --   -0.52146  -0.49731  -0.48861  -0.48853  -0.47615
 Alpha  occ. eigenvalues --   -0.46326  -0.45362  -0.45218  -0.44845  -0.43462
 Alpha  occ. eigenvalues --   -0.37361  -0.36366
 Alpha virt. eigenvalues --    0.04996   0.11265   0.16451   0.19877   0.23186
 Alpha virt. eigenvalues --    0.24249   0.25913   0.26753   0.27535   0.28293
 Alpha virt. eigenvalues --    0.29532   0.30653   0.31603   0.31885   0.32304

 Mulliken charges:
               1
     1  C   -0.306665
     2  C   -0.300221
     3  C   -0.475986
     4  H    0.151870
     5  H    0.163227
     6  H    0.153109
     7  H    0.149793
     8  H    0.141677
     9  H    0.159949
    10  H    0.158883
    11  C   -0.298115
    12  C   -0.301709
    13  C   -0.475861
    14  H    0.146753
    15  H    0.146988
    16  H    0.153008
    17  H    0.165090
    18  H    0.153045
    19  H    0.152044
    20  H    0.161373
    21  C   -0.170517
    22  C   -0.218881
    23  C   -0.170418
    24  C    0.156938
    25  C   -0.173310
    26  C   -0.220553
    27  H    0.225846
    28  H    0.223560
    29  H    0.275566
    30  H    0.282374
    31  H    0.225065
    32  N    0.489971
    33  O   -0.464126
    34  O   -0.459768
 Sum of Mulliken charges =  -0.00000

 Dipole moment (field-independent basis, Debye):
    X=              3.1697    Y=              3.9757    Z=             -0.5418  Tot=              5.1134
 Quadrupole moment (field-independent basis, Debye-Ang):
   XX=            -77.4328   YY=            -99.8268   ZZ=            -94.3083
   XY=              5.4600   XZ=             -1.0605   YZ=             -0.6953

 Normal termination of Gaussian 16 at Wed May  5 17:05:44 2021.
