 Gaussian 16, Revision A.03,
 Gaussian 16:  EM64L-G16RevA.03 25-Dec-2016

 -------------
 #p 6-31g* mp2
 -------------

 ------------------------------------------------------
 Input file generated by CHIRIPA (05-May-2021 14:51:09)
 ------------------------------------------------------
 Symbolic Z-matrix:
 Charge =  0 Multiplicity = 1

                         Standard orientation:
 ---------------------------------------------------------------------
 Center     Atomic      Atomic             Coordinates (Angstroms)
 Number     Number       Type             X           Y           Z
 ---------------------------------------------------------------------
      1          6           0        3.037598    0.181005   -0.189726
      2          6           0        3.958593    0.249292   -1.408369
      3          6           0        4.295869    1.684164   -1.814794
      4          1           0        2.110869    0.729454   -0.407264
      5          1           0        3.516759    0.698708    0.652760
      6          1           0        3.478442   -0.269585   -2.247915
      7          1           0        4.883158   -0.299546   -1.187974
      8          1           0        4.797516    2.208881   -0.995268
      9          1           0        3.384819    2.239012   -2.061232
     10          1           0        4.955264    1.709644   -2.687954
     11          6           0        2.691389   -1.246845    0.228736
     12          6           0        1.770394   -1.315132    1.447379
     13          6           0        1.433118   -2.750004    1.853804
     14          1           0        2.212228   -1.764548   -0.613750
     15          1           0        3.618118   -1.795294    0.446274
     16          1           0        0.845829   -0.766294    1.226984
     17          1           0        2.250545   -0.796255    2.286926
     18          1           0        2.344168   -3.304852    2.100242
     19          1           0        0.931471   -3.274721    1.034278
     20          1           0        0.773723   -2.775484    2.726964
     21          6           0       -2.871325   -0.080885   -0.474070
     22          6           0       -4.270355   -0.458531   -0.962007
     23          6           0       -4.267643   -1.688426   -1.870382
     24          1           0       -2.224612    0.104426   -1.342612
     25          1           0       -2.435435   -0.934166    0.063802
     26          1           0       -4.704021    0.395686   -1.497604
     27          1           0       -4.913866   -0.642777   -0.092201
     28          1           0       -3.859473   -2.556354   -1.342461
     29          1           0       -3.648437   -1.511991   -2.755851
     30          1           0       -5.277843   -1.940681   -2.207608
     31          6           0       -2.857662    1.146725    0.435060
     32          6           0       -1.458631    1.524371    0.922997
     33          6           0       -1.461344    2.754266    1.831371
     34          1           0       -3.293551    2.000006   -0.102813
     35          1           0       -3.504376    0.961414    1.303602
     36          1           0       -0.815122    1.708617    0.053190
     37          1           0       -1.024966    0.670154    1.458593
     38          1           0       -2.080550    2.577831    2.716840
     39          1           0       -1.869514    3.622195    1.303451
     40          1           0       -0.451144    3.006520    2.168598
 ---------------------------------------------------------------------

 SCF Done:  E(RHF) =  -470.733296727     A.U. after   11 cycles
 E2 =    -0.1583165180D+01 EUMP2 =    -0.47231646190750D+03

 The electronic state is 1-A.
 Alpha  occ. eigenvalues --  -11.21643 -11.21641 -11.21585 -11.21529 -11.21456
 Alpha  occ. eigenvalues --  -11.21395 -11.21371 -11.21311 -11.21104 -11.21093
 Alpha  occ. eigenvalues --  -11.21065 -11.21059  -1.08483  -1.08395  -1.03575
 Alpha  occ. eigenvalues --   -1.03502  -0.96014  -0.95959  -0.87034  -0.86973
 Alpha  occ. eigenvalues --   -0.79697  -0.79527  -0.78363  -0.78140  -0.65135
 Alpha  occ. eigenvalues --   -0.65011  -0.61039  -0.60846  -0.59413  -0.59298
 Alpha  occ. eigenvalues --   -0.57627  -0.57569  -0.55304  -0.55245  -0.52712
 Alpha  occ. eigenvalues --   -0.52652  -0.52443  -0.52382  -0.49997  -0.49875
 Alpha  occ. eigenvalues --   -0.48128  -0.47816  -0.46843  -0.46469  -0.46063
 Alpha  occ. eigenvalues --   -0.45756  -0.45708  -0.45305  -0.43822  -0.43755
 Alpha virt. eigenvalues --    0.21154   0.23230   0.23756   0.24023   0.25553
 Alpha virt. eigenvalues --    0.26223   0.27065   0.27870   0.28194   0.29258
 Alpha virt. eigenvalues --    0.30297   0.31579   0.31765   0.31881   0.32022

 Mulliken charges:
               1
     1  C   -0.300148
     2  C   -0.299639
     3  C   -0.475602
     4  H    0.151578
     5  H    0.149260
     6  H    0.151830
     7  H    0.151955
     8  H    0.155185
     9  H    0.154846
    10  H    0.160196
    11  C   -0.297436
    12  C   -0.308779
    13  C   -0.475410
    14  H    0.149461
    15  H    0.149371
    16  H    0.161310
    17  H    0.151255
    18  H    0.155252
    19  H    0.155003
    20  H    0.159395
    21  C   -0.298923
    22  C   -0.299607
    23  C   -0.475783
    24  H    0.149141
    25  H    0.149623
    26  H    0.152121
    27  H    0.152170
    28  H    0.155296
    29  H    0.155068
    30  H    0.160460
    31  C   -0.297705
    32  C   -0.307638
    33  C   -0.475321
    34  H    0.149696
    35  H    0.149845
    36  H    0.152149
    37  H    0.159087
    38  H    0.155182
    39  H    0.155177
    40  H    0.161078
 Sum of Mulliken charges =  -0.00000

 Dipole moment (field-independent basis, Debye):
    X=             -0.0330    Y=              0.0180    Z=              0.0072  Tot=              0.0383
 Quadrupole moment (field-independent basis, Debye-Ang):
   XX=            -84.2471   YY=            -86.1856   ZZ=            -84.3644
   XY=             -0.3900   XZ=              0.4176   YZ=             -0.6356

 Normal termination of Gaussian 16 at Wed May  5 21:21:53 2021.
