 Gaussian 16, Revision A.03,
 Gaussian 16:  EM64L-G16RevA.03 25-Dec-2016

 -------------
 #p 6-31g* mp2
 -------------

 ------------------------------------------------------
 Input file generated by CHIRIPA (05-May-2021 14:51:13)
 ------------------------------------------------------
 Symbolic Z-matrix:
 Charge =  0 Multiplicity = 1

                         Standard orientation:
 ---------------------------------------------------------------------
 Center     Atomic      Atomic             Coordinates (Angstroms)
 Number     Number       Type             X           Y           Z
 ---------------------------------------------------------------------
      1          6           0       -4.470542    0.516402   -0.239954
      2          6           0       -5.895433    0.919694    0.140871
      3          6           0       -6.491879    1.954778   -0.813408
      4          1           0       -3.834574    1.412081   -0.255694
      5          1           0       -4.471399    0.115644   -1.263080
      6          1           0       -5.892116    1.318288    1.163479
      7          1           0       -6.528041    0.022923    0.155893
      8          1           0       -6.524330    1.563082   -1.835231
      9          1           0       -5.884792    2.865807   -0.821920
     10          1           0       -7.510803    2.228784   -0.522592
     11          6           0       -3.860683   -0.517758    0.704669
     12          6           0       -2.435792   -0.921050    0.323845
     13          6           0       -1.839346   -1.956134    1.278123
     14          1           0       -3.859826   -0.117000    1.727796
     15          1           0       -4.496651   -1.413437    0.720409
     16          1           0       -1.803184   -0.024279    0.308823
     17          1           0       -2.439109   -1.319644   -0.698763
     18          1           0       -2.446433   -2.867163    1.286635
     19          1           0       -1.806895   -1.564438    2.299946
     20          1           0       -0.820421   -2.230140    0.987308
     21          6           0        3.431809   -0.206225   -0.185927
     22          6           0        3.082146   -1.403205   -1.070775
     23          6           0        1.610609   -1.805204   -0.966999
     24          1           0        3.188669   -0.446691    0.858105
     25          1           0        2.797300    0.645929   -0.466332
     26          1           0        3.718087   -2.252441   -0.789714
     27          1           0        3.326326   -1.159933   -2.112797
     28          1           0        0.962499   -0.975495   -1.267232
     29          1           0        1.356486   -2.074211    0.063370
     30          1           0        1.382572   -2.662797   -1.607618
     31          6           0        4.899416    0.207580   -0.278789
     32          6           0        5.249079    1.404562    0.606059
     33          6           0        6.720616    1.806559    0.502283
     34          1           0        5.533924   -0.644574    0.001616
     35          1           0        5.142556    0.448046   -1.322822
     36          1           0        5.004899    1.161289    1.648082
     37          1           0        4.613139    2.253798    0.324998
     38          1           0        6.974739    2.075568   -0.528084
     39          1           0        7.368726    0.976851    0.802517
     40          1           0        6.948653    2.664152    1.142902
 ---------------------------------------------------------------------

 SCF Done:  E(RHF) =  -470.733176072     A.U. after   11 cycles
 E2 =    -0.1582495421D+01 EUMP2 =    -0.47231567149355D+03

 The electronic state is 1-A.
 Alpha  occ. eigenvalues --  -11.21618 -11.21610 -11.21575 -11.21524 -11.21417
 Alpha  occ. eigenvalues --  -11.21362 -11.21357 -11.21300 -11.21090 -11.21078
 Alpha  occ. eigenvalues --  -11.21053 -11.20938  -1.08444  -1.08380  -1.03554
 Alpha  occ. eigenvalues --   -1.03464  -0.96024  -0.95897  -0.87051  -0.86908
 Alpha  occ. eigenvalues --   -0.79615  -0.79534  -0.78258  -0.78192  -0.65074
 Alpha  occ. eigenvalues --   -0.65011  -0.60953  -0.60869  -0.59377  -0.59315
 Alpha  occ. eigenvalues --   -0.57747  -0.57401  -0.55296  -0.55209  -0.52830
 Alpha  occ. eigenvalues --   -0.52651  -0.52441  -0.52146  -0.49936  -0.49865
 Alpha  occ. eigenvalues --   -0.47964  -0.47795  -0.46633  -0.46571  -0.45794
 Alpha  occ. eigenvalues --   -0.45753  -0.45696  -0.45662  -0.43804  -0.43700
 Alpha virt. eigenvalues --    0.22126   0.22988   0.23446   0.24792   0.26316
 Alpha virt. eigenvalues --    0.26559   0.26728   0.27614   0.27644   0.29068
 Alpha virt. eigenvalues --    0.29944   0.31189   0.31473   0.31924   0.32273

 Mulliken charges:
               1
     1  C   -0.298193
     2  C   -0.299589
     3  C   -0.475672
     4  H    0.149391
     5  H    0.149413
     6  H    0.151876
     7  H    0.151916
     8  H    0.155122
     9  H    0.155074
    10  H    0.160167
    11  C   -0.298436
    12  C   -0.298658
    13  C   -0.482677
    14  H    0.149330
    15  H    0.149533
    16  H    0.151625
    17  H    0.152164
    18  H    0.154463
    19  H    0.154106
    20  H    0.168196
    21  C   -0.298361
    22  C   -0.299831
    23  C   -0.479908
    24  H    0.149741
    25  H    0.149481
    26  H    0.151992
    27  H    0.152016
    28  H    0.157411
    29  H    0.157678
    30  H    0.160487
    31  C   -0.298296
    32  C   -0.299664
    33  C   -0.475714
    34  H    0.149584
    35  H    0.149690
    36  H    0.151977
    37  H    0.151888
    38  H    0.155195
    39  H    0.155218
    40  H    0.160267
 Sum of Mulliken charges =  -0.00000

 Dipole moment (field-independent basis, Debye):
    X=              0.0357    Y=             -0.0078    Z=             -0.0161  Tot=              0.0399
 Quadrupole moment (field-independent basis, Debye-Ang):
   XX=            -86.1220   YY=            -84.5374   ZZ=            -84.2333
   XY=              0.1247   XZ=              0.0633   YZ=              0.4131

 Normal termination of Gaussian 16 at Thu May  6 05:32:44 2021.
