 Gaussian 16, Revision A.03,
 Gaussian 16:  EM64L-G16RevA.03 25-Dec-2016

 -------------
 #p 6-31g* mp2
 -------------

 ------------------------------------------------------
 Input file generated by CHIRIPA (05-May-2021 14:51:12)
 ------------------------------------------------------
 Symbolic Z-matrix:
 Charge =  0 Multiplicity = 1

                         Standard orientation:
 ---------------------------------------------------------------------
 Center     Atomic      Atomic             Coordinates (Angstroms)
 Number     Number       Type             X           Y           Z
 ---------------------------------------------------------------------
      1          6           0       -4.175820   -0.056116   -0.558723
      2          6           0       -5.492626   -0.453651    0.109089
      3          6           0       -6.354511   -1.356290   -0.774195
      4          1           0       -4.392503    0.454983   -1.506759
      5          1           0       -3.613696   -0.964843   -0.814896
      6          1           0       -6.051476    0.455591    0.365176
      7          1           0       -5.272787   -0.963693    1.055738
      8          1           0       -5.819724   -2.279606   -1.019331
      9          1           0       -6.602837   -0.852257   -1.713816
     10          1           0       -7.290987   -1.628339   -0.277343
     11          6           0       -3.303232    0.846253    0.311937
     12          6           0       -1.986426    1.243789   -0.355875
     13          6           0       -1.124541    2.146428    0.527410
     14          1           0       -3.865357    1.754981    0.568110
     15          1           0       -3.086549    0.335154    1.259973
     16          1           0       -2.206265    1.753831   -1.302523
     17          1           0       -1.427577    0.334546   -0.611962
     18          1           0       -0.876216    1.642395    1.467030
     19          1           0       -1.659328    3.069744    0.772545
     20          1           0       -0.188066    2.418477    0.030557
     21          6           0        3.254008   -0.662444    0.648954
     22          6           0        1.784991   -0.460676    0.275774
     23          6           0        0.825907   -1.000731    1.337044
     24          1           0        3.442434   -1.733541    0.804493
     25          1           0        3.452359   -0.167439    1.609694
     26          1           0        1.589804   -0.954738   -0.684654
     27          1           0        1.600084    0.610046    0.120917
     28          1           0        0.991819   -0.500403    2.296600
     29          1           0        0.981481   -2.074079    1.486452
     30          1           0       -0.218856   -0.846078    1.049972
     31          6           0        4.225045   -0.127692   -0.402168
     32          6           0        5.694061   -0.329462   -0.028989
     33          6           0        6.653145    0.210593   -1.090258
     34          1           0        4.026693   -0.622698   -1.362909
     35          1           0        4.036618    0.943403   -0.557707
     36          1           0        5.878968   -1.400184    0.125868
     37          1           0        5.889248    0.164601    0.931440
     38          1           0        6.497572    1.283941   -1.239665
     39          1           0        6.487233   -0.289734   -2.049814
     40          1           0        7.697910    0.055941   -0.803185
 ---------------------------------------------------------------------

 SCF Done:  E(RHF) =  -470.732203235     A.U. after   11 cycles
 E2 =    -0.1584151274D+01 EUMP2 =    -0.47231635450945D+03

 The electronic state is 1-A.
 Alpha  occ. eigenvalues --  -11.21601 -11.21598 -11.21584 -11.21565 -11.21412
 Alpha  occ. eigenvalues --  -11.21399 -11.21353 -11.21339 -11.21070 -11.21069
 Alpha  occ. eigenvalues --  -11.21052 -11.21026  -1.08467  -1.08395  -1.03628
 Alpha  occ. eigenvalues --   -1.03433  -0.96079  -0.95883  -0.87011  -0.86987
 Alpha  occ. eigenvalues --   -0.79608  -0.79578  -0.78266  -0.78220  -0.65168
 Alpha  occ. eigenvalues --   -0.65018  -0.61247  -0.60836  -0.59412  -0.59176
 Alpha  occ. eigenvalues --   -0.57694  -0.57443  -0.55445  -0.55041  -0.52687
 Alpha  occ. eigenvalues --   -0.52660  -0.52439  -0.52347  -0.49995  -0.49834
 Alpha  occ. eigenvalues --   -0.48026  -0.47790  -0.46617  -0.46601  -0.45784
 Alpha  occ. eigenvalues --   -0.45773  -0.45712  -0.45687  -0.43817  -0.43719
 Alpha virt. eigenvalues --    0.20598   0.22993   0.23590   0.25454   0.25805
 Alpha virt. eigenvalues --    0.26529   0.26637   0.27543   0.27809   0.29257
 Alpha virt. eigenvalues --    0.30637   0.30908   0.31325   0.31994   0.32811

 Mulliken charges:
               1
     1  C   -0.298090
     2  C   -0.299687
     3  C   -0.475723
     4  H    0.149767
     5  H    0.149271
     6  H    0.151950
     7  H    0.152098
     8  H    0.155216
     9  H    0.155158
    10  H    0.160285
    11  C   -0.299938
    12  C   -0.304810
    13  C   -0.478852
    14  H    0.149970
    15  H    0.150186
    16  H    0.152871
    17  H    0.155510
    18  H    0.159026
    19  H    0.154976
    20  H    0.160762
    21  C   -0.298166
    22  C   -0.303639
    23  C   -0.480860
    24  H    0.149480
    25  H    0.149587
    26  H    0.151132
    27  H    0.157831
    28  H    0.154749
    29  H    0.154844
    30  H    0.165275
    31  C   -0.298252
    32  C   -0.299645
    33  C   -0.475712
    34  H    0.149499
    35  H    0.149433
    36  H    0.151940
    37  H    0.151968
    38  H    0.155177
    39  H    0.155163
    40  H    0.160253
 Sum of Mulliken charges =  -0.00000

 Dipole moment (field-independent basis, Debye):
    X=             -0.0055    Y=              0.0148    Z=              0.0020  Tot=              0.0159
 Quadrupole moment (field-independent basis, Debye-Ang):
   XX=            -85.8427   YY=            -83.8668   ZZ=            -85.1491
   XY=             -1.0876   XZ=              0.3476   YZ=              0.0141

 Normal termination of Gaussian 16 at Wed May  5 19:53:38 2021.
