 Gaussian 16, Revision A.03,
 Gaussian 16:  EM64L-G16RevA.03 25-Dec-2016

 -------------
 #p 6-31g* mp2
 -------------

 ------------------------------------------------------
 Input file generated by CHIRIPA (05-May-2021 14:55:23)
 ------------------------------------------------------
 Symbolic Z-matrix:
 Charge =  0 Multiplicity = 1

                         Standard orientation:
 ---------------------------------------------------------------------
 Center     Atomic      Atomic             Coordinates (Angstroms)
 Number     Number       Type             X           Y           Z
 ---------------------------------------------------------------------
      1          6           0        1.364566    1.430904    0.248247
      2          6           0        1.361252    0.372486   -0.666225
      3          6           0        2.473381   -0.466257   -0.785505
      4          6           0        3.576796   -0.216598    0.029011
      5          6           0        3.610474    0.829720    0.949539
      6          6           0        2.487188    1.655747    1.051795
      7          1           0        0.496304    2.077521    0.334294
      8          1           0        0.490804    0.195498   -1.291558
      9          1           0        2.497617   -1.292893   -1.485150
     10          1           0        4.492876    0.981160    1.559335
     11          1           0        2.492571    2.476969    1.762857
     12          7           0        4.760063   -1.097807   -0.088254
     13          8           0        5.719765   -0.856759    0.640790
     14          8           0        4.705400   -2.012860   -0.906989
     15          6           0       -4.833855   -0.250904    0.397577
     16          6           0       -5.329784   -1.593714   -0.139921
     17          6           0       -6.339842   -2.266176    0.790332
     18          1           0       -4.378919   -0.404164    1.385752
     19          1           0       -5.694125    0.415615    0.549499
     20          1           0       -4.468696   -2.257029   -0.292093
     21          1           0       -5.783420   -1.437269   -1.127015
     22          1           0       -7.216811   -1.626648    0.933615
     23          1           0       -5.894617   -2.451064    1.773283
     24          1           0       -6.681152   -3.224572    0.386791
     25          6           0       -3.823501    0.433598   -0.521319
     26          6           0       -3.327571    1.776406    0.016177
     27          6           0       -2.317512    2.448869   -0.914075
     28          1           0       -2.963231   -0.232923   -0.673243
     29          1           0       -4.278436    0.586857   -1.509496
     30          1           0       -2.873935    1.619962    1.003273
     31          1           0       -4.188659    2.439721    0.168349
     32          1           0       -2.762738    2.633758   -1.897026
     33          1           0       -1.440544    1.809341   -1.057359
     34          1           0       -1.976202    3.407265   -0.510535
 ---------------------------------------------------------------------

 SCF Done:  E(RHF) =  -669.535038553     A.U. after   15 cycles
 E2 =    -0.2091672373D+01 EUMP2 =    -0.67162671092585D+03

 The electronic state is 1-A.
 Alpha  occ. eigenvalues --  -20.60727 -20.60722 -15.85781 -11.31135 -11.27716
 Alpha  occ. eigenvalues --  -11.27707 -11.27387 -11.26714 -11.26701 -11.22695
 Alpha  occ. eigenvalues --  -11.22483 -11.22301 -11.22160 -11.22059 -11.21512
 Alpha  occ. eigenvalues --   -1.59803  -1.39357  -1.19308  -1.09272  -1.08701
 Alpha  occ. eigenvalues --   -1.04717  -1.04396  -0.96870  -0.95536  -0.87888
 Alpha  occ. eigenvalues --   -0.86115  -0.82375  -0.80474  -0.79028  -0.77428
 Alpha  occ. eigenvalues --   -0.72000  -0.71127  -0.70438  -0.65920  -0.64963
 Alpha  occ. eigenvalues --   -0.64745  -0.62123  -0.61736  -0.60266  -0.58438
 Alpha  occ. eigenvalues --   -0.56247  -0.55119  -0.53544  -0.53290  -0.53039
 Alpha  occ. eigenvalues --   -0.52801  -0.50788  -0.48799  -0.48755  -0.48732
 Alpha  occ. eigenvalues --   -0.47494  -0.46578  -0.46470  -0.44765  -0.44625
 Alpha  occ. eigenvalues --   -0.37279  -0.36324
 Alpha virt. eigenvalues --    0.05114   0.11320   0.16604   0.19182   0.22640
 Alpha virt. eigenvalues --    0.23919   0.24533   0.26132   0.26599   0.27739
 Alpha virt. eigenvalues --    0.29301   0.30140   0.30723   0.31200   0.31451

 Mulliken charges:
               1
     1  C   -0.174893
     2  C   -0.223939
     3  C   -0.170672
     4  C    0.158121
     5  C   -0.170694
     6  C   -0.219630
     7  H    0.233689
     8  H    0.225225
     9  H    0.275474
    10  H    0.275364
    11  H    0.223346
    12  N    0.488044
    13  O   -0.460549
    14  O   -0.460614
    15  C   -0.298994
    16  C   -0.300346
    17  C   -0.476224
    18  H    0.150889
    19  H    0.151308
    20  H    0.152472
    21  H    0.152821
    22  H    0.155892
    23  H    0.156136
    24  H    0.162257
    25  C   -0.298455
    26  C   -0.300944
    27  C   -0.483409
    28  H    0.146118
    29  H    0.152158
    30  H    0.151572
    31  H    0.157216
    32  H    0.163355
    33  H    0.147340
    34  H    0.160563
 Sum of Mulliken charges =  -0.00000

 Dipole moment (field-independent basis, Debye):
    X=             -4.4465    Y=              3.1170    Z=              0.4217  Tot=              5.4466
 Quadrupole moment (field-independent basis, Debye-Ang):
   XX=           -123.0156   YY=            -95.1908   ZZ=            -92.6908
   XY=             12.6190   XZ=              4.1180   YZ=              2.2746

 Normal termination of Gaussian 16 at Wed May  5 16:02:18 2021.
