 Gaussian 16, Revision A.03,
 Gaussian 16:  EM64L-G16RevA.03 25-Dec-2016

 -------------
 #p 6-31g* mp2
 -------------

 ------------------------------------------------------
 Input file generated by CHIRIPA (05-May-2021 14:51:12)
 ------------------------------------------------------
 Symbolic Z-matrix:
 Charge =  0 Multiplicity = 1

                         Standard orientation:
 ---------------------------------------------------------------------
 Center     Atomic      Atomic             Coordinates (Angstroms)
 Number     Number       Type             X           Y           Z
 ---------------------------------------------------------------------
      1          6           0        2.916696   -0.833085   -0.034891
      2          6           0        1.794493   -0.951847    0.996876
      3          6           0        0.759251   -2.013723    0.624736
      4          1           0        2.481293   -0.595105   -1.015061
      5          1           0        3.412132   -1.808074   -0.141353
      6          1           0        1.302218    0.023423    1.102375
      7          1           0        2.232634   -1.189383    1.974743
      8          1           0        1.230791   -2.998039    0.538864
      9          1           0        0.295088   -1.778342   -0.338462
     10          1           0       -0.033834   -2.081842    1.375891
     11          6           0        3.959419    0.224392    0.323155
     12          6           0        5.081622    0.343154   -0.708612
     13          6           0        6.116863    1.405030   -0.336472
     14          1           0        3.463983    1.199381    0.429617
     15          1           0        4.394822   -0.013588    1.303326
     16          1           0        4.643481    0.580690   -1.686479
     17          1           0        5.573897   -0.632116   -0.814110
     18          1           0        6.581026    1.169649    0.626726
     19          1           0        5.645324    2.389346   -0.250600
     20          1           0        6.909949    1.473149   -1.087627
     21          6           0       -3.224933    1.000241   -0.375953
     22          6           0       -3.773411    2.126042    0.501387
     23          6           0       -3.338377    3.512218    0.024887
     24          1           0       -2.127883    1.056864   -0.390768
     25          1           0       -3.559912    1.155049   -1.410951
     26          1           0       -3.438641    1.968397    1.534679
     27          1           0       -4.869276    2.066616    0.514269
     28          1           0       -3.685549    3.694738   -0.997249
     29          1           0       -2.246785    3.595960    0.028960
     30          1           0       -3.741623    4.302076    0.666273
     31          6           0       -3.651183   -0.391548    0.087690
     32          6           0       -3.102703   -1.517349   -0.789651
     33          6           0       -3.537738   -2.903526   -0.313151
     34          1           0       -3.316202   -0.546356    1.122686
     35          1           0       -4.748233   -0.448170    0.102503
     36          1           0       -2.006839   -1.457923   -0.802533
     37          1           0       -3.437473   -1.359704   -1.822944
     38          1           0       -4.629330   -2.987268   -0.317225
     39          1           0       -3.190566   -3.086046    0.708984
     40          1           0       -3.134491   -3.693384   -0.954537
 ---------------------------------------------------------------------

 SCF Done:  E(RHF) =  -470.733167469     A.U. after   11 cycles
 E2 =    -0.1582837354D+01 EUMP2 =    -0.47231600482326D+03

 The electronic state is 1-A.
 Alpha  occ. eigenvalues --  -11.21673 -11.21630 -11.21597 -11.21492 -11.21452
 Alpha  occ. eigenvalues --  -11.21391 -11.21383 -11.21316 -11.21144 -11.21092
 Alpha  occ. eigenvalues --  -11.21077 -11.21004  -1.08481  -1.08395  -1.03590
 Alpha  occ. eigenvalues --   -1.03484  -0.96037  -0.95941  -0.87056  -0.86957
 Alpha  occ. eigenvalues --   -0.79678  -0.79528  -0.78295  -0.78207  -0.65162
 Alpha  occ. eigenvalues --   -0.64990  -0.61095  -0.60798  -0.59390  -0.59316
 Alpha  occ. eigenvalues --   -0.57651  -0.57548  -0.55360  -0.55204  -0.52724
 Alpha  occ. eigenvalues --   -0.52637  -0.52462  -0.52367  -0.50085  -0.49814
 Alpha  occ. eigenvalues --   -0.48005  -0.47846  -0.46823  -0.46442  -0.45879
 Alpha  occ. eigenvalues --   -0.45770  -0.45724  -0.45547  -0.43831  -0.43746
 Alpha virt. eigenvalues --    0.20885   0.23109   0.23820   0.24680   0.25933
 Alpha virt. eigenvalues --    0.26644   0.26999   0.27558   0.27972   0.29102
 Alpha virt. eigenvalues --    0.30348   0.30935   0.31746   0.31827   0.32447

 Mulliken charges:
               1
     1  C   -0.298641
     2  C   -0.299708
     3  C   -0.480329
     4  H    0.149925
     5  H    0.149802
     6  H    0.151425
     7  H    0.152310
     8  H    0.156087
     9  H    0.159234
    10  H    0.160562
    11  C   -0.298320
    12  C   -0.299719
    13  C   -0.475744
    14  H    0.149499
    15  H    0.149761
    16  H    0.152063
    17  H    0.152011
    18  H    0.155213
    19  H    0.155244
    20  H    0.160384
    21  C   -0.298278
    22  C   -0.299638
    23  C   -0.475624
    24  H    0.148905
    25  H    0.149452
    26  H    0.151919
    27  H    0.152046
    28  H    0.155170
    29  H    0.154794
    30  H    0.160281
    31  C   -0.297740
    32  C   -0.306920
    33  C   -0.475189
    34  H    0.149170
    35  H    0.149449
    36  H    0.160126
    37  H    0.150994
    38  H    0.154690
    39  H    0.155153
    40  H    0.160182
 Sum of Mulliken charges =  -0.00000

 Dipole moment (field-independent basis, Debye):
    X=              0.0438    Y=             -0.0172    Z=              0.0010  Tot=              0.0471
 Quadrupole moment (field-independent basis, Debye-Ang):
   XX=            -84.5976   YY=            -85.9556   ZZ=            -84.2587
   XY=             -1.3326   XZ=              0.6992   YZ=             -0.2699

 Normal termination of Gaussian 16 at Thu May  6 05:31:02 2021.
