 Gaussian 16, Revision A.03,
 Gaussian 16:  EM64L-G16RevA.03 25-Dec-2016

 -------------
 #p 6-31g* mp2
 -------------

 ------------------------------------------------------
 Input file generated by CHIRIPA (05-May-2021 14:51:10)
 ------------------------------------------------------
 Symbolic Z-matrix:
 Charge =  0 Multiplicity = 1

                         Standard orientation:
 ---------------------------------------------------------------------
 Center     Atomic      Atomic             Coordinates (Angstroms)
 Number     Number       Type             X           Y           Z
 ---------------------------------------------------------------------
      1          6           0       -2.739006    1.525515    0.106612
      2          6           0       -1.268275    1.880979   -0.113797
      3          6           0       -0.967242    3.353252    0.168308
      4          1           0       -3.363368    2.159003   -0.538222
      5          1           0       -3.015691    1.765325    1.142629
      6          1           0       -0.994076    1.639281   -1.148695
      7          1           0       -0.647331    1.246438    0.531497
      8          1           0       -1.213282    3.604996    1.204981
      9          1           0       -1.561997    4.000071   -0.484756
     10          1           0        0.089686    3.585465    0.004480
     11          6           0       -3.055598    0.057108   -0.171378
     12          6           0       -4.526330   -0.298355    0.049030
     13          6           0       -4.827362   -1.770629   -0.233075
     14          1           0       -2.778913   -0.182701   -1.207395
     15          1           0       -2.431237   -0.576379    0.473456
     16          1           0       -5.147274    0.336185   -0.596263
     17          1           0       -4.800528   -0.056658    1.083928
     18          1           0       -4.232607   -2.417447    0.419990
     19          1           0       -4.581323   -2.022372   -1.269747
     20          1           0       -5.884291   -2.002842   -0.069247
     21          6           0        3.463186   -0.492474   -0.384634
     22          6           0        4.544202    0.185730    0.457643
     23          6           0        5.669459    0.778705   -0.390868
     24          1           0        3.923145   -1.284443   -0.991403
     25          1           0        3.045230    0.238920   -1.090163
     26          1           0        4.959030   -0.546367    1.162318
     27          1           0        4.081584    0.976049    1.062618
     28          1           0        5.275079    1.529148   -1.083616
     29          1           0        6.157511   -0.001917   -0.983350
     30          1           0        6.431312    1.258549    0.231378
     31          6           0        2.331419   -1.090149    0.449400
     32          6           0        1.250402   -1.768353   -0.392876
     33          6           0        0.125145   -2.361328    0.455634
     34          1           0        2.749374   -1.821543    1.154929
     35          1           0        1.871460   -0.298181    1.056169
     36          1           0        1.713020   -2.558673   -0.997853
     37          1           0        0.835575   -1.036257   -1.097552
     38          1           0       -0.362906   -1.580706    1.048117
     39          1           0        0.519525   -3.111772    1.148383
     40          1           0       -0.636707   -2.841173   -0.166613
 ---------------------------------------------------------------------

 SCF Done:  E(RHF) =  -470.732949913     A.U. after   11 cycles
 E2 =    -0.1583895096D+01 EUMP2 =    -0.47231684500934D+03

 The electronic state is 1-A.
 Alpha  occ. eigenvalues --  -11.21677 -11.21596 -11.21579 -11.21563 -11.21406
 Alpha  occ. eigenvalues --  -11.21394 -11.21335 -11.21301 -11.21133 -11.21067
 Alpha  occ. eigenvalues --  -11.21052 -11.21039  -1.08461  -1.08397  -1.03550
 Alpha  occ. eigenvalues --   -1.03514  -0.96017  -0.95946  -0.87039  -0.86961
 Alpha  occ. eigenvalues --   -0.79643  -0.79557  -0.78279  -0.78206  -0.65193
 Alpha  occ. eigenvalues --   -0.64946  -0.60959  -0.60911  -0.59394  -0.59299
 Alpha  occ. eigenvalues --   -0.57620  -0.57572  -0.55417  -0.55143  -0.52702
 Alpha  occ. eigenvalues --   -0.52668  -0.52425  -0.52378  -0.50062  -0.49815
 Alpha  occ. eigenvalues --   -0.47986  -0.47856  -0.46707  -0.46653  -0.45927
 Alpha  occ. eigenvalues --   -0.45808  -0.45653  -0.45359  -0.43795  -0.43761
 Alpha virt. eigenvalues --    0.20080   0.22994   0.23992   0.24147   0.25357
 Alpha virt. eigenvalues --    0.26214   0.27118   0.27771   0.28080   0.29735
 Alpha virt. eigenvalues --    0.30540   0.31314   0.31699   0.31935   0.32250

 Mulliken charges:
               1
     1  C   -0.298111
     2  C   -0.303829
     3  C   -0.475630
     4  H    0.149727
     5  H    0.149263
     6  H    0.152147
     7  H    0.154476
     8  H    0.155405
     9  H    0.155673
    10  H    0.159884
    11  C   -0.305147
    12  C   -0.299119
    13  C   -0.476102
    14  H    0.148864
    15  H    0.158625
    16  H    0.151615
    17  H    0.151635
    18  H    0.155871
    19  H    0.154888
    20  H    0.160183
    21  C   -0.298263
    22  C   -0.299682
    23  C   -0.475690
    24  H    0.149614
    25  H    0.149754
    26  H    0.151878
    27  H    0.151870
    28  H    0.155141
    29  H    0.155176
    30  H    0.160232
    31  C   -0.299968
    32  C   -0.300814
    33  C   -0.479100
    34  H    0.149390
    35  H    0.150540
    36  H    0.151784
    37  H    0.154385
    38  H    0.157372
    39  H    0.154647
    40  H    0.161416
 Sum of Mulliken charges =  -0.00000

 Dipole moment (field-independent basis, Debye):
    X=             -0.0083    Y=             -0.0064    Z=             -0.0020  Tot=              0.0106
 Quadrupole moment (field-independent basis, Debye-Ang):
   XX=            -85.5057   YY=            -85.2665   ZZ=            -84.0788
   XY=             -1.2929   XZ=              0.5465   YZ=             -0.2103

 Normal termination of Gaussian 16 at Thu May  6 02:13:47 2021.
