 Gaussian 16, Revision A.03,
 Gaussian 16:  EM64L-G16RevA.03 25-Dec-2016

 -------------
 #p 6-31g* mp2
 -------------

 ------------------------------------------------------
 Input file generated by CHIRIPA (05-May-2021 14:53:16)
 ------------------------------------------------------
 Symbolic Z-matrix:
 Charge =  0 Multiplicity = 1

                         Standard orientation:
 ---------------------------------------------------------------------
 Center     Atomic      Atomic             Coordinates (Angstroms)
 Number     Number       Type             X           Y           Z
 ---------------------------------------------------------------------
      1          6           0        4.790016   -0.457995    0.279393
      2          6           0        6.225416   -0.246404   -0.203143
      3          6           0        7.239898   -1.086915    0.572847
      4          1           0        4.729578   -0.213313    1.348702
      5          1           0        4.532736   -1.522284    0.187251
      6          1           0        6.479442    0.817397   -0.111414
      7          1           0        6.282402   -0.491434   -1.271473
      8          1           0        7.014199   -2.153427    0.471779
      9          1           0        7.212359   -0.837159    1.638429
     10          1           0        8.259469   -0.920182    0.211553
     11          6           0        3.764276    0.375462   -0.486725
     12          6           0        2.328876    0.163870   -0.004189
     13          6           0        1.314395    1.004382   -0.780179
     14          1           0        4.021557    1.439751   -0.394583
     15          1           0        3.824714    0.130780   -1.556034
     16          1           0        2.271891    0.408901    1.064141
     17          1           0        2.074850   -0.899931   -0.095918
     18          1           0        1.341933    0.754626   -1.845761
     19          1           0        1.540094    2.070893   -0.679111
     20          1           0        0.294823    0.837649   -0.418885
     21          6           0       -4.446689   -2.217679   -0.206054
     22          6           0       -4.268251   -1.683701    1.074394
     23          6           0       -3.657163   -0.437949    1.245339
     24          6           0       -3.234677    0.249753    0.108740
     25          6           0       -3.398266   -0.255686   -1.180081
     26          6           0       -4.011894   -1.503227   -1.327229
     27          1           0       -4.922383   -3.186103   -0.329606
     28          1           0       -4.604928   -2.236322    1.946921
     29          1           0       -3.506499   -0.001112    2.225080
     30          1           0       -3.052212    0.318705   -2.030810
     31          1           0       -4.149159   -1.915462   -2.322852
     32          7           0       -2.586401    1.569522    0.277115
     33          8           0       -2.223002    2.155540   -0.740314
     34          8           0       -2.453957    1.992949    1.423328
 ---------------------------------------------------------------------

 SCF Done:  E(RHF) =  -669.535525256     A.U. after   15 cycles
 E2 =    -0.2091267157D+01 EUMP2 =    -0.67162679241289D+03

 The electronic state is 1-A.
 Alpha  occ. eigenvalues --  -20.60856 -20.60843 -15.85875 -11.31236 -11.27804
 Alpha  occ. eigenvalues --  -11.27799 -11.27547 -11.26816 -11.26806 -11.21310
 Alpha  occ. eigenvalues --  -11.21031 -11.21000 -11.20892 -11.20843 -11.20193
 Alpha  occ. eigenvalues --   -1.59920  -1.39472  -1.19409  -1.08809  -1.07998
 Alpha  occ. eigenvalues --   -1.04807  -1.03052  -0.95646  -0.95481  -0.86492
 Alpha  occ. eigenvalues --   -0.86207  -0.82475  -0.79122  -0.77809  -0.77524
 Alpha  occ. eigenvalues --   -0.72103  -0.71264  -0.70516  -0.65062  -0.64810
 Alpha  occ. eigenvalues --   -0.64633  -0.62154  -0.60450  -0.58872  -0.57102
 Alpha  occ. eigenvalues --   -0.55312  -0.54770  -0.53140  -0.52899  -0.52162
 Alpha  occ. eigenvalues --   -0.51910  -0.49428  -0.48865  -0.48860  -0.47440
 Alpha  occ. eigenvalues --   -0.46170  -0.45344  -0.45276  -0.44891  -0.43244
 Alpha  occ. eigenvalues --   -0.37391  -0.36408
 Alpha virt. eigenvalues --    0.04994   0.11234   0.16467   0.21374   0.23263
 Alpha virt. eigenvalues --    0.24712   0.27060   0.27285   0.27890   0.28048
 Alpha virt. eigenvalues --    0.28559   0.30756   0.31884   0.32074   0.32239

 Mulliken charges:
               1
     1  C   -0.297714
     2  C   -0.299327
     3  C   -0.475429
     4  H    0.149699
     5  H    0.147411
     6  H    0.152445
     7  H    0.151072
     8  H    0.154023
     9  H    0.155095
    10  H    0.159465
    11  C   -0.297982
    12  C   -0.301221
    13  C   -0.470221
    14  H    0.150862
    15  H    0.147792
    16  H    0.153074
    17  H    0.146368
    18  H    0.149489
    19  H    0.161867
    20  H    0.160027
    21  C   -0.170617
    22  C   -0.218588
    23  C   -0.170836
    24  C    0.156431
    25  C   -0.170958
    26  C   -0.218610
    27  H    0.225787
    28  H    0.223640
    29  H    0.275770
    30  H    0.276327
    31  H    0.223670
    32  N    0.486870
    33  O   -0.456530
    34  O   -0.459152
 Sum of Mulliken charges =  -0.00000

 Dipole moment (field-independent basis, Debye):
    X=             -2.4385    Y=             -4.5508    Z=             -0.5886  Tot=              5.1964
 Quadrupole moment (field-independent basis, Debye-Ang):
   XX=            -81.8935   YY=            -97.2952   ZZ=            -89.7451
   XY=             15.6172   XZ=              0.8224   YZ=             -0.3197

 Normal termination of Gaussian 16 at Thu May  6 18:52:47 2021.
