 Gaussian 16, Revision A.03,
 Gaussian 16:  EM64L-G16RevA.03 25-Dec-2016

 -------------
 #p 6-31g* mp2
 -------------

 ------------------------------------------------------
 Input file generated by CHIRIPA (05-May-2021 14:53:16)
 ------------------------------------------------------
 Symbolic Z-matrix:
 Charge =  0 Multiplicity = 1

                         Standard orientation:
 ---------------------------------------------------------------------
 Center     Atomic      Atomic             Coordinates (Angstroms)
 Number     Number       Type             X           Y           Z
 ---------------------------------------------------------------------
      1          6           0        4.787954   -0.355345   -0.244346
      2          6           0        5.385056    1.017000   -0.557594
      3          6           0        6.750431    0.925891   -1.239682
      4          1           0        5.483614   -0.912976    0.397565
      5          1           0        4.695367   -0.928765   -1.177090
      6          1           0        5.475204    1.588176    0.375276
      7          1           0        4.687807    1.571502   -1.198677
      8          1           0        6.673160    0.378802   -2.184840
      9          1           0        7.465031    0.395571   -0.601944
     10          1           0        7.158892    1.918292   -1.454534
     11          6           0        3.423037   -0.280783    0.437688
     12          6           0        2.825935   -1.653127    0.750937
     13          6           0        1.460559   -1.562018    1.433024
     14          1           0        3.515624    0.292637    1.370432
     15          1           0        2.727377    0.276849   -0.204223
     16          1           0        3.523184   -2.207629    1.392019
     17          1           0        2.735787   -2.224303   -0.181934
     18          1           0        0.745960   -1.031698    0.795286
     19          1           0        1.537831   -1.014930    2.378182
     20          1           0        1.052099   -2.554419    1.647877
     21          6           0       -2.507351    2.525295    0.756326
     22          6           0       -3.611845    2.399366   -0.092647
     23          6           0       -4.008761    1.142833   -0.559689
     24          6           0       -3.275099    0.028374   -0.155945
     25          6           0       -2.170185    0.121317    0.688934
     26          6           0       -1.791308    1.387874    1.143724
     27          1           0       -2.206023    3.505294    1.114377
     28          1           0       -4.169805    3.280966   -0.395149
     29          1           0       -4.859873    1.016646   -1.217796
     30          1           0       -1.633720   -0.775810    0.973165
     31          1           0       -0.933130    1.482663    1.802958
     32          7           0       -3.685748   -1.307168   -0.643896
     33          8           0       -3.022725   -2.273553   -0.273576
     34          8           0       -4.662861   -1.362291   -1.387433
 ---------------------------------------------------------------------

 SCF Done:  E(RHF) =  -669.535599358     A.U. after   15 cycles
 E2 =    -0.2091238131D+01 EUMP2 =    -0.67162683748885D+03

 The electronic state is 1-A.
 Alpha  occ. eigenvalues --  -20.60730 -20.60725 -15.85783 -11.31137 -11.27721
 Alpha  occ. eigenvalues --  -11.27660 -11.27460 -11.26740 -11.26709 -11.21942
 Alpha  occ. eigenvalues --  -11.21863 -11.21747 -11.21630 -11.21611 -11.21273
 Alpha  occ. eigenvalues --   -1.59806  -1.39359  -1.19317  -1.08745  -1.08714
 Alpha  occ. eigenvalues --   -1.04719  -1.03857  -0.96330  -0.95548  -0.87357
 Alpha  occ. eigenvalues --   -0.86113  -0.82380  -0.79935  -0.78560  -0.77421
 Alpha  occ. eigenvalues --   -0.72002  -0.71130  -0.70432  -0.65375  -0.64968
 Alpha  occ. eigenvalues --   -0.64719  -0.62113  -0.61222  -0.59674  -0.57923
 Alpha  occ. eigenvalues --   -0.55650  -0.55206  -0.53075  -0.53031  -0.52840
 Alpha  occ. eigenvalues --   -0.52668  -0.50260  -0.48760  -0.48757  -0.48242
 Alpha  occ. eigenvalues --   -0.46943  -0.46105  -0.46013  -0.44766  -0.44101
 Alpha  occ. eigenvalues --   -0.37303  -0.36313
 Alpha virt. eigenvalues --    0.05071   0.11308   0.16540   0.20772   0.22648
 Alpha virt. eigenvalues --    0.23970   0.25734   0.26365   0.27277   0.28000
 Alpha virt. eigenvalues --    0.29279   0.30535   0.31265   0.31624   0.31971

 Mulliken charges:
               1
     1  C   -0.298644
     2  C   -0.299777
     3  C   -0.475894
     4  H    0.150605
     5  H    0.151748
     6  H    0.150818
     7  H    0.151588
     8  H    0.156348
     9  H    0.155737
    10  H    0.160358
    11  C   -0.299142
    12  C   -0.299499
    13  C   -0.483125
    14  H    0.146813
    15  H    0.149110
    16  H    0.154067
    17  H    0.157336
    18  H    0.151362
    19  H    0.150867
    20  H    0.169280
    21  C   -0.170855
    22  C   -0.218665
    23  C   -0.170857
    24  C    0.158927
    25  C   -0.177214
    26  C   -0.220524
    27  H    0.225454
    28  H    0.223264
    29  H    0.275400
    30  H    0.283331
    31  H    0.224963
    32  N    0.487738
    33  O   -0.460215
    34  O   -0.460702
 Sum of Mulliken charges =  -0.00000

 Dipole moment (field-independent basis, Debye):
    X=              1.5596    Y=              4.6262    Z=              1.6887  Tot=              5.1658
 Quadrupole moment (field-independent basis, Debye-Ang):
   XX=           -102.2551   YY=            -93.8940   ZZ=            -94.0981
   XY=            -17.6748   XZ=             -2.8776   YZ=             -1.8651

 Normal termination of Gaussian 16 at Thu May  6 15:33:03 2021.
