 Gaussian 16, Revision A.03,
 Gaussian 16:  EM64L-G16RevA.03 25-Dec-2016

 -------------
 #p 6-31g* mp2
 -------------

 ------------------------------------------------------
 Input file generated by CHIRIPA (05-May-2021 14:51:11)
 ------------------------------------------------------
 Symbolic Z-matrix:
 Charge =  0 Multiplicity = 1

                         Standard orientation:
 ---------------------------------------------------------------------
 Center     Atomic      Atomic             Coordinates (Angstroms)
 Number     Number       Type             X           Y           Z
 ---------------------------------------------------------------------
      1          6           0        3.906033   -0.437617    0.168098
      2          6           0        4.504679   -1.617023   -0.599109
      3          6           0        5.106701   -2.677699    0.323024
      4          1           0        4.685573    0.018198    0.793793
      5          1           0        3.132674   -0.810046    0.854106
      6          1           0        5.275716   -1.242317   -1.284466
      7          1           0        3.723670   -2.069965   -1.223197
      8          1           0        4.343890   -3.079238    0.997923
      9          1           0        5.904754   -2.246887    0.936305
     10          1           0        5.528952   -3.511666   -0.246241
     11          6           0        3.300291    0.631072   -0.740037
     12          6           0        2.701644    1.810479    0.027170
     13          6           0        2.099622    2.871155   -0.894964
     14          1           0        4.073649    1.003502   -1.426046
     15          1           0        2.520750    0.175257   -1.365733
     16          1           0        3.482653    2.263420    0.651257
     17          1           0        1.930608    1.435772    0.712527
     18          1           0        1.301569    2.440343   -1.508244
     19          1           0        2.862433    3.272693   -1.569862
     20          1           0        1.677372    3.705122   -0.325698
     21          6           0       -3.071142    0.444118    0.374705
     22          6           0       -1.940507    0.033428    1.318623
     23          6           0       -0.883933    1.125876    1.485965
     24          1           0       -2.646960    0.699275   -0.606065
     25          1           0       -3.545220    1.358443    0.757661
     26          1           0       -1.469603   -0.880627    0.934737
     27          1           0       -2.367452   -0.220966    2.297203
     28          1           0       -1.333790    2.038078    1.891077
     29          1           0       -0.430839    1.374669    0.520869
     30          1           0       -0.085113    0.811202    2.164733
     31          6           0       -4.135181   -0.637573    0.197235
     32          6           0       -5.265817   -0.226883   -0.746683
     33          6           0       -6.322390   -1.319331   -0.914026
     34          1           0       -3.661103   -1.551898   -0.185721
     35          1           0       -4.559364   -0.892730    1.178004
     36          1           0       -4.838872    0.027511   -1.725263
     37          1           0       -5.736721    0.687172   -0.362798
     38          1           0       -6.775484   -1.568124    0.051069
     39          1           0       -5.872533   -2.231534   -1.319137
     40          1           0       -7.121210   -1.004657   -1.592794
 ---------------------------------------------------------------------

 SCF Done:  E(RHF) =  -470.732566520     A.U. after   11 cycles
 E2 =    -0.1583221259D+01 EUMP2 =    -0.47231578777913D+03

 The electronic state is 1-A.
 Alpha  occ. eigenvalues --  -11.21657 -11.21628 -11.21582 -11.21447 -11.21427
 Alpha  occ. eigenvalues --  -11.21386 -11.21361 -11.21296 -11.21113 -11.21093
 Alpha  occ. eigenvalues --  -11.21059 -11.21026  -1.08476  -1.08377  -1.03596
 Alpha  occ. eigenvalues --   -1.03462  -0.96051  -0.95921  -0.87057  -0.86952
 Alpha  occ. eigenvalues --   -0.79697  -0.79495  -0.78293  -0.78180  -0.65173
 Alpha  occ. eigenvalues --   -0.64971  -0.61180  -0.60720  -0.59428  -0.59275
 Alpha  occ. eigenvalues --   -0.57642  -0.57544  -0.55455  -0.55096  -0.52759
 Alpha  occ. eigenvalues --   -0.52618  -0.52438  -0.52357  -0.49999  -0.49865
 Alpha  occ. eigenvalues --   -0.47957  -0.47847  -0.46776  -0.46465  -0.45852
 Alpha  occ. eigenvalues --   -0.45769  -0.45716  -0.45569  -0.43800  -0.43717
 Alpha virt. eigenvalues --    0.21316   0.23127   0.23744   0.24722   0.26277
 Alpha virt. eigenvalues --    0.26465   0.26990   0.27497   0.27955   0.29176
 Alpha virt. eigenvalues --    0.30750   0.31081   0.31733   0.31913   0.32512

 Mulliken charges:
               1
     1  C   -0.298230
     2  C   -0.299544
     3  C   -0.475679
     4  H    0.149660
     5  H    0.149141
     6  H    0.151946
     7  H    0.151646
     8  H    0.155061
     9  H    0.155182
    10  H    0.160147
    11  C   -0.297537
    12  C   -0.308905
    13  C   -0.475962
    14  H    0.149187
    15  H    0.148357
    16  H    0.151179
    17  H    0.163001
    18  H    0.153383
    19  H    0.155120
    20  H    0.160909
    21  C   -0.298646
    22  C   -0.299646
    23  C   -0.481691
    24  H    0.149655
    25  H    0.149834
    26  H    0.151524
    27  H    0.152184
    28  H    0.155882
    29  H    0.161746
    30  H    0.160785
    31  C   -0.298337
    32  C   -0.299687
    33  C   -0.475731
    34  H    0.149460
    35  H    0.149788
    36  H    0.151984
    37  H    0.152043
    38  H    0.155227
    39  H    0.155187
    40  H    0.160375
 Sum of Mulliken charges =  -0.00000

 Dipole moment (field-independent basis, Debye):
    X=             -0.0473    Y=              0.0128    Z=              0.0300  Tot=              0.0575
 Quadrupole moment (field-independent basis, Debye-Ang):
   XX=            -84.7428   YY=            -85.6437   ZZ=            -84.5086
   XY=              0.0259   XZ=             -0.8525   YZ=              0.6520

 Normal termination of Gaussian 16 at Wed May  5 23:07:12 2021.
