 Gaussian 16, Revision A.03,
 Gaussian 16:  EM64L-G16RevA.03 25-Dec-2016

 -------------
 #p 6-31g* mp2
 -------------

 ------------------------------------------------------
 Input file generated by CHIRIPA (05-May-2021 14:57:22)
 ------------------------------------------------------
 Symbolic Z-matrix:
 Charge =  0 Multiplicity = 1

                         Standard orientation:
 ---------------------------------------------------------------------
 Center     Atomic      Atomic             Coordinates (Angstroms)
 Number     Number       Type             X           Y           Z
 ---------------------------------------------------------------------
      1          6           0       -3.514573    2.475359    0.361987
      2          6           0       -4.672222    1.875545    0.868535
      3          6           0       -4.896586    0.506532    0.695291
      4          6           0       -3.938043   -0.235955    0.007398
      5          6           0       -2.774728    0.332630   -0.509032
      6          6           0       -2.571184    1.703349   -0.323971
      7          1           0       -3.348368    3.539504    0.501157
      8          1           0       -5.406592    2.472630    1.401671
      9          1           0       -5.784046    0.016565    1.077083
     10          1           0       -2.060819   -0.288582   -1.036145
     11          1           0       -1.671221    2.166488   -0.718450
     12          7           0       -4.164547   -1.686171   -0.182263
     13          8           0       -3.304748   -2.318347   -0.791965
     14          8           0       -5.197591   -2.163214    0.282374
     15          6           0        1.536982    0.579654   -0.701339
     16          6           0        2.550168    1.538169   -0.807281
     17          6           0        3.863417    1.226397   -0.442970
     18          6           0        4.129229   -0.059392    0.025410
     19          6           0        3.141544   -1.036167    0.142366
     20          6           0        1.835377   -0.702195   -0.227689
     21          1           0        0.519569    0.830469   -0.986575
     22          1           0        2.321343    2.534470   -1.174798
     23          1           0        4.667007    1.949228   -0.514926
     24          1           0        3.400334   -2.020897    0.512164
     25          1           0        1.050538   -1.448604   -0.144358
     26          7           0        5.515758   -0.401202    0.414130
     27          8           0        5.724031   -1.541103    0.823869
     28          8           0        6.367992    0.477260    0.301708
 ---------------------------------------------------------------------

 SCF Done:  E(RHF) =  -868.336451141     A.U. after   16 cycles
 E2 =    -0.2600190496D+01 EUMP2 =    -0.87093664163722D+03

 The electronic state is 1-A.
 Alpha  occ. eigenvalues --  -20.61584 -20.61558 -20.60983 -20.60973 -15.86633
 Alpha  occ. eigenvalues --  -15.86036 -11.32101 -11.31506 -11.28800 -11.28614
 Alpha  occ. eigenvalues --  -11.28408 -11.28093 -11.28029 -11.27989 -11.27828
 Alpha  occ. eigenvalues --  -11.27624 -11.27214 -11.27096  -1.60645  -1.60053
 Alpha  occ. eigenvalues --   -1.40198  -1.39603  -1.20280  -1.19696  -1.09642
 Alpha  occ. eigenvalues --   -1.09106  -1.05725  -1.05099  -0.96466  -0.95921
 Alpha  occ. eigenvalues --   -0.87105  -0.86512  -0.83328  -0.82730  -0.78366
 Alpha  occ. eigenvalues --   -0.77732  -0.72848  -0.72255  -0.71969  -0.71406
 Alpha  occ. eigenvalues --   -0.71376  -0.70893  -0.65941  -0.65746  -0.65359
 Alpha  occ. eigenvalues --   -0.65116  -0.63090  -0.62430  -0.56203  -0.55700
 Alpha  occ. eigenvalues --   -0.54003  -0.53825  -0.53433  -0.53197  -0.49615
 Alpha  occ. eigenvalues --   -0.49595  -0.49022  -0.49001  -0.45583  -0.44984
 Alpha  occ. eigenvalues --   -0.38226  -0.37738  -0.37306  -0.36684
 Alpha virt. eigenvalues --    0.04197   0.04783   0.10335   0.10956   0.15602
 Alpha virt. eigenvalues --    0.16239   0.17531   0.22159   0.24854   0.25359
 Alpha virt. eigenvalues --    0.27617   0.29257   0.30151   0.31026   0.33308

 Mulliken charges:
               1
     1  C   -0.169617
     2  C   -0.217887
     3  C   -0.169280
     4  C    0.159888
     5  C   -0.173160
     6  C   -0.218160
     7  H    0.228430
     8  H    0.227224
     9  H    0.278734
    10  H    0.268763
    11  H    0.216101
    12  N    0.488534
    13  O   -0.462699
    14  O   -0.456264
    15  C   -0.172679
    16  C   -0.219293
    17  C   -0.170503
    18  C    0.159235
    19  C   -0.170108
    20  C   -0.220298
    21  H    0.217186
    22  H    0.220356
    23  H    0.276325
    24  H    0.278794
    25  H    0.230833
    26  N    0.487842
    27  O   -0.458255
    28  O   -0.460043
 Sum of Mulliken charges =  -0.00000

 Dipole moment (field-independent basis, Debye):
    X=             -4.2371    Y=              6.2309    Z=             -0.5328  Tot=              7.5539
 Quadrupole moment (field-independent basis, Debye-Ang):
   XX=           -145.9299   YY=           -103.4888   ZZ=           -104.9162
   XY=            -14.4057   XZ=            -11.6482   YZ=             -0.9510

 Normal termination of Gaussian 16 at Thu May  6 00:12:28 2021.
