 Gaussian 16, Revision A.03,
 Gaussian 16:  EM64L-G16RevA.03 25-Dec-2016

 -------------
 #p 6-31g* mp2
 -------------

 ------------------------------------------------------
 Input file generated by CHIRIPA (05-May-2021 14:53:15)
 ------------------------------------------------------
 Symbolic Z-matrix:
 Charge =  0 Multiplicity = 1

                         Standard orientation:
 ---------------------------------------------------------------------
 Center     Atomic      Atomic             Coordinates (Angstroms)
 Number     Number       Type             X           Y           Z
 ---------------------------------------------------------------------
      1          6           0       -4.266939    0.907969   -0.221680
      2          6           0       -2.966841    1.701882   -0.353710
      3          6           0       -3.206347    3.188546   -0.618777
      4          1           0       -4.857108    1.027627   -1.140553
      5          1           0       -4.867735    1.334570    0.593459
      6          1           0       -2.368057    1.273046   -1.167450
      7          1           0       -2.379612    1.580165    0.565508
      8          1           0       -3.782803    3.637271    0.196665
      9          1           0       -3.771182    3.328407   -1.546140
     10          1           0       -2.263647    3.737099   -0.709708
     11          6           0       -4.043944   -0.579878    0.043487
     12          6           0       -5.344042   -1.373791    0.175518
     13          6           0       -5.104536   -2.860455    0.440585
     14          1           0       -3.443147   -1.006479   -0.771651
     15          1           0       -3.453775   -0.699536    0.962360
     16          1           0       -5.931271   -1.252074   -0.743701
     17          1           0       -5.942826   -0.944955    0.989258
     18          1           0       -4.539701   -3.000316    1.367948
     19          1           0       -4.528080   -3.309180   -0.374857
     20          1           0       -6.047235   -3.409008    0.531515
     21          6           0        0.775855    0.243909    0.421319
     22          6           0        1.706846    1.034117    1.103483
     23          6           0        3.078192    0.836812    0.916331
     24          6           0        3.485285   -0.164131    0.035604
     25          6           0        2.582216   -0.967764   -0.658608
     26          6           0        1.215736   -0.752752   -0.456003
     27          1           0       -0.287551    0.404058    0.572705
     28          1           0        1.368112    1.808871    1.785435
     29          1           0        3.820553    1.434156    1.431597
     30          1           0        2.950262   -1.732334   -1.331951
     31          1           0        0.494981   -1.367947   -0.987126
     32          7           0        4.934493   -0.382381   -0.170706
     33          8           0        5.267495   -1.270749   -0.952081
     34          8           0        5.709940    0.339055    0.452872
 ---------------------------------------------------------------------

 SCF Done:  E(RHF) =  -669.535562645     A.U. after   15 cycles
 E2 =    -0.2091351440D+01 EUMP2 =    -0.67162691408491D+03

 The electronic state is 1-A.
 Alpha  occ. eigenvalues --  -20.60695 -20.60690 -15.85749 -11.31091 -11.27668
 Alpha  occ. eigenvalues --  -11.27664 -11.27321 -11.26661 -11.26650 -11.22880
 Alpha  occ. eigenvalues --  -11.22467 -11.22406 -11.22375 -11.22039 -11.21779
 Alpha  occ. eigenvalues --   -1.59772  -1.39326  -1.19261  -1.09459  -1.08650
 Alpha  occ. eigenvalues --   -1.04666  -1.04494  -0.96903  -0.95492  -0.87922
 Alpha  occ. eigenvalues --   -0.86059  -0.82338  -0.80600  -0.79296  -0.77387
 Alpha  occ. eigenvalues --   -0.71967  -0.71096  -0.70355  -0.66080  -0.64909
 Alpha  occ. eigenvalues --   -0.64672  -0.62019  -0.61884  -0.60297  -0.58533
 Alpha  occ. eigenvalues --   -0.56174  -0.55176  -0.53580  -0.53318  -0.52992
 Alpha  occ. eigenvalues --   -0.52755  -0.50844  -0.48882  -0.48724  -0.48709
 Alpha  occ. eigenvalues --   -0.47629  -0.46792  -0.46731  -0.44752  -0.44737
 Alpha  occ. eigenvalues --   -0.37223  -0.36279
 Alpha virt. eigenvalues --    0.05148   0.11371   0.16624   0.19789   0.22442
 Alpha virt. eigenvalues --    0.23530   0.24721   0.25455   0.26990   0.27694
 Alpha virt. eigenvalues --    0.29634   0.30403   0.30647   0.31129   0.31973

 Mulliken charges:
               1
     1  C   -0.297761
     2  C   -0.305741
     3  C   -0.475578
     4  H    0.154009
     5  H    0.152843
     6  H    0.152065
     7  H    0.144325
     8  H    0.157856
     9  H    0.159644
    10  H    0.161938
    11  C   -0.299930
    12  C   -0.300097
    13  C   -0.476426
    14  H    0.146333
    15  H    0.146450
    16  H    0.154490
    17  H    0.154261
    18  H    0.155619
    19  H    0.154890
    20  H    0.163531
    21  C   -0.176434
    22  C   -0.221587
    23  C   -0.170761
    24  C    0.157995
    25  C   -0.170716
    26  C   -0.221783
    27  H    0.237694
    28  H    0.222653
    29  H    0.275166
    30  H    0.275117
    31  H    0.223418
    32  N    0.488061
    33  O   -0.460765
    34  O   -0.460780
 Sum of Mulliken charges =  -0.00000

 Dipole moment (field-independent basis, Debye):
    X=             -5.4267    Y=              0.8197    Z=              0.6824  Tot=              5.5305
 Quadrupole moment (field-independent basis, Debye-Ang):
   XX=           -129.6889   YY=            -93.4284   ZZ=            -92.1382
   XY=              4.2829   XZ=              3.2424   YZ=              2.9633

 Normal termination of Gaussian 16 at Thu May  6 09:02:03 2021.
