 Gaussian 16, Revision A.03,
 Gaussian 16:  EM64L-G16RevA.03 25-Dec-2016

 -------------
 #p 6-31g* mp2
 -------------

 ------------------------------------------------------
 Input file generated by CHIRIPA (05-May-2021 14:53:14)
 ------------------------------------------------------
 Symbolic Z-matrix:
 Charge =  0 Multiplicity = 1

                         Standard orientation:
 ---------------------------------------------------------------------
 Center     Atomic      Atomic             Coordinates (Angstroms)
 Number     Number       Type             X           Y           Z
 ---------------------------------------------------------------------
      1          6           0       -4.049439   -0.471916    0.002611
      2          6           0       -3.319318   -1.593444    0.742262
      3          6           0       -3.996274   -2.953563    0.570217
      4          1           0       -5.085127   -0.416038    0.364790
      5          1           0       -4.105030   -0.722324   -1.065846
      6          1           0       -3.263904   -1.340342    1.808791
      7          1           0       -2.285193   -1.646533    0.378416
      8          1           0       -4.038131   -3.231968   -0.487772
      9          1           0       -5.022402   -2.924038    0.950730
     10          1           0       -3.457857   -3.740768    1.107131
     11          6           0       -3.384712    0.893907    0.165067
     12          6           0       -4.114833    2.015435   -0.574584
     13          6           0       -3.437876    3.375555   -0.402539
     14          1           0       -3.329121    1.144316    1.233524
     15          1           0       -2.349024    0.838029   -0.197112
     16          1           0       -5.148957    2.068524   -0.210738
     17          1           0       -4.170247    1.762334   -1.641113
     18          1           0       -2.411748    3.346029   -0.783052
     19          1           0       -3.396020    3.653959    0.655450
     20          1           0       -3.976293    4.162759   -0.939453
     21          6           0        1.387980   -2.080706   -0.695712
     22          6           0        2.773799   -2.267137   -0.660093
     23          6           0        3.623348   -1.212698   -0.312281
     24          6           0        3.050525    0.020378   -0.004572
     25          6           0        1.673767    0.237463   -0.031069
     26          6           0        0.843346   -0.831204   -0.381640
     27          1           0        0.735458   -2.905345   -0.966972
     28          1           0        3.199560   -3.236422   -0.903524
     29          1           0        4.699705   -1.329374   -0.276771
     30          1           0        1.278772    1.215227    0.216672
     31          1           0       -0.232532   -0.683521   -0.408470
     32          7           0        3.939780    1.144197    0.365100
     33          8           0        3.410280    2.220803    0.631906
     34          8           0        5.149440    0.927160    0.381046
 ---------------------------------------------------------------------

 SCF Done:  E(RHF) =  -669.535263770     A.U. after   15 cycles
 E2 =    -0.2091763973D+01 EUMP2 =    -0.67162702774369D+03

 The electronic state is 1-A.
 Alpha  occ. eigenvalues --  -20.60732 -20.60727 -15.85785 -11.31149 -11.27721
 Alpha  occ. eigenvalues --  -11.27709 -11.27462 -11.26737 -11.26696 -11.22618
 Alpha  occ. eigenvalues --  -11.22299 -11.22230 -11.22196 -11.21929 -11.21521
 Alpha  occ. eigenvalues --   -1.59808  -1.39361  -1.19321  -1.09274  -1.08717
 Alpha  occ. eigenvalues --   -1.04725  -1.04291  -0.96722  -0.95552  -0.87735
 Alpha  occ. eigenvalues --   -0.86129  -0.82387  -0.80371  -0.79098  -0.77429
 Alpha  occ. eigenvalues --   -0.72004  -0.71131  -0.70432  -0.65985  -0.64974
 Alpha  occ. eigenvalues --   -0.64697  -0.62095  -0.61669  -0.60099  -0.58335
 Alpha  occ. eigenvalues --   -0.56008  -0.55229  -0.53404  -0.53140  -0.53051
 Alpha  occ. eigenvalues --   -0.52836  -0.50671  -0.48784  -0.48758  -0.48654
 Alpha  occ. eigenvalues --   -0.47413  -0.46599  -0.46518  -0.44767  -0.44563
 Alpha  occ. eigenvalues --   -0.37303  -0.36324
 Alpha virt. eigenvalues --    0.05103   0.11281   0.16592   0.18757   0.22860
 Alpha virt. eigenvalues --    0.23320   0.24570   0.26332   0.27051   0.27559
 Alpha virt. eigenvalues --    0.29667   0.30577   0.31099   0.31267   0.31688

 Mulliken charges:
               1
     1  C   -0.299147
     2  C   -0.302852
     3  C   -0.476253
     4  H    0.154345
     5  H    0.149722
     6  H    0.157110
     7  H    0.141962
     8  H    0.154741
     9  H    0.159580
    10  H    0.161173
    11  C   -0.301193
    12  C   -0.300172
    13  C   -0.476332
    14  H    0.153761
    15  H    0.141261
    16  H    0.154689
    17  H    0.152765
    18  H    0.154938
    19  H    0.157479
    20  H    0.163392
    21  C   -0.173262
    22  C   -0.218456
    23  C   -0.171241
    24  C    0.158941
    25  C   -0.173243
    26  C   -0.227810
    27  H    0.225602
    28  H    0.223245
    29  H    0.275493
    30  H    0.275697
    31  H    0.237071
    32  N    0.487976
    33  O   -0.460336
    34  O   -0.460647
 Sum of Mulliken charges =  -0.00000

 Dipole moment (field-independent basis, Debye):
    X=             -3.3741    Y=             -3.9027    Z=             -1.2501  Tot=              5.3083
 Quadrupole moment (field-independent basis, Debye-Ang):
   XX=           -109.6501   YY=            -94.2717   ZZ=            -94.7895
   XY=            -15.6099   XZ=             -5.2086   YZ=              0.4791

 Normal termination of Gaussian 16 at Thu May  6 01:01:33 2021.
