 Gaussian 16, Revision A.03,
 Gaussian 16:  EM64L-G16RevA.03 25-Dec-2016

 -------------
 #p 6-31g* mp2
 -------------

 ------------------------------------------------------
 Input file generated by CHIRIPA (05-May-2021 14:55:22)
 ------------------------------------------------------
 Symbolic Z-matrix:
 Charge =  0 Multiplicity = 1

                         Standard orientation:
 ---------------------------------------------------------------------
 Center     Atomic      Atomic             Coordinates (Angstroms)
 Number     Number       Type             X           Y           Z
 ---------------------------------------------------------------------
      1          6           0       -1.750703    1.034425    1.339136
      2          6           0       -1.881104    1.162691   -0.047610
      3          6           0       -2.946270    0.555882   -0.719734
      4          6           0       -3.866883   -0.175121    0.029530
      5          6           0       -3.764203   -0.321241    1.412063
      6          6           0       -2.691011    0.294174    2.063270
      7          1           0       -0.920138    1.509151    1.853134
      8          1           0       -1.152350    1.736976   -0.612552
      9          1           0       -3.071260    0.639011   -1.792527
     10          1           0       -4.506488   -0.900078    1.948140
     11          1           0       -2.592259    0.192866    3.140317
     12          7           0       -4.998775   -0.822078   -0.670946
     13          8           0       -5.796474   -1.460722    0.012024
     14          8           0       -5.066822   -0.678268   -1.889685
     15          6           0        5.008451   -0.605363   -0.064934
     16          6           0        6.536861   -0.609645   -0.021021
     17          6           0        7.117399   -2.003262    0.221057
     18          1           0        4.619671   -1.006864    0.880894
     19          1           0        4.669420   -1.287455   -0.856896
     20          1           0        6.872935    0.073306    0.769704
     21          1           0        6.922045   -0.207909   -0.966990
     22          1           0        6.810582   -2.691664   -0.573026
     23          1           0        6.761193   -2.408853    1.173536
     24          1           0        8.211333   -1.983215    0.248744
     25          6           0        4.413202    0.780709   -0.306207
     26          6           0        2.884792    0.784993   -0.350120
     27          6           0        2.304255    2.178610   -0.592199
     28          1           0        4.752232    1.462802    0.485754
     29          1           0        4.801981    1.182211   -1.252035
     30          1           0        2.499607    0.383256    0.595848
     31          1           0        2.548717    0.102041   -1.140845
     32          1           0        2.660460    2.584199   -1.544678
     33          1           0        2.611071    2.867011    0.201885
     34          1           0        1.210320    2.158563   -0.619886
 ---------------------------------------------------------------------

 SCF Done:  E(RHF) =  -669.535449807     A.U. after   15 cycles
 E2 =    -0.2090908345D+01 EUMP2 =    -0.67162635815210D+03

 The electronic state is 1-A.
 Alpha  occ. eigenvalues --  -20.60745 -20.60740 -15.85799 -11.31164 -11.27736
 Alpha  occ. eigenvalues --  -11.27730 -11.27474 -11.26750 -11.26732 -11.22451
 Alpha  occ. eigenvalues --  -11.22184 -11.22048 -11.22028 -11.21889 -11.21420
 Alpha  occ. eigenvalues --   -1.59821  -1.39374  -1.19337  -1.09059  -1.08732
 Alpha  occ. eigenvalues --   -1.04743  -1.04196  -0.96659  -0.95566  -0.87679
 Alpha  occ. eigenvalues --   -0.86141  -0.82399  -0.80259  -0.78831  -0.77450
 Alpha  occ. eigenvalues --   -0.72018  -0.71144  -0.70443  -0.65684  -0.64991
 Alpha  occ. eigenvalues --   -0.64789  -0.62133  -0.61584  -0.60046  -0.58249
 Alpha  occ. eigenvalues --   -0.55929  -0.55239  -0.53461  -0.53131  -0.53058
 Alpha  occ. eigenvalues --   -0.52705  -0.50581  -0.48782  -0.48772  -0.48565
 Alpha  occ. eigenvalues --   -0.47279  -0.46382  -0.46282  -0.44780  -0.44444
 Alpha  occ. eigenvalues --   -0.37315  -0.36343
 Alpha virt. eigenvalues --    0.05089   0.11272   0.16576   0.19491   0.22523
 Alpha virt. eigenvalues --    0.23880   0.25703   0.26029   0.26898   0.27701
 Alpha virt. eigenvalues --    0.28796   0.29779   0.30797   0.31506   0.31813

 Mulliken charges:
               1
     1  C   -0.172528
     2  C   -0.223401
     3  C   -0.171685
     4  C    0.158867
     5  C   -0.171102
     6  C   -0.218622
     7  H    0.226169
     8  H    0.230459
     9  H    0.275978
    10  H    0.275529
    11  H    0.223277
    12  N    0.487954
    13  O   -0.460514
    14  O   -0.460432
    15  C   -0.298719
    16  C   -0.300128
    17  C   -0.476041
    18  H    0.149605
    19  H    0.151237
    20  H    0.152040
    21  H    0.152862
    22  H    0.156226
    23  H    0.155372
    24  H    0.161512
    25  C   -0.299100
    26  C   -0.299085
    27  C   -0.480072
    28  H    0.149831
    29  H    0.151584
    30  H    0.149853
    31  H    0.155212
    32  H    0.160814
    33  H    0.157073
    34  H    0.149975
 Sum of Mulliken charges =  -0.00000

 Dipole moment (field-independent basis, Debye):
    X=              4.1889    Y=              2.2415    Z=              2.4499  Tot=              5.3454
 Quadrupole moment (field-independent basis, Debye-Ang):
   XX=           -125.3012   YY=            -96.5392   ZZ=            -89.8816
   XY=             -8.3440   XZ=            -11.4290   YZ=             -1.8623

 Normal termination of Gaussian 16 at Thu May  6 06:14:45 2021.
