 Gaussian 16, Revision A.03,
 Gaussian 16:  EM64L-G16RevA.03 25-Dec-2016

 -------------
 #p 6-31g* mp2
 -------------

 ------------------------------------------------------
 Input file generated by CHIRIPA (05-May-2021 14:51:13)
 ------------------------------------------------------
 Symbolic Z-matrix:
 Charge =  0 Multiplicity = 1

                         Standard orientation:
 ---------------------------------------------------------------------
 Center     Atomic      Atomic             Coordinates (Angstroms)
 Number     Number       Type             X           Y           Z
 ---------------------------------------------------------------------
      1          6           0       -4.030144   -0.691567   -0.383459
      2          6           0       -5.091389   -1.198733    0.593541
      3          6           0       -5.618089   -2.586357    0.226279
      4          1           0       -4.454827   -0.667866   -1.396389
      5          1           0       -3.195764   -1.406023   -0.410991
      6          1           0       -5.922892   -0.482839    0.620261
      7          1           0       -4.664190   -1.221047    1.604292
      8          1           0       -4.803634   -3.317933    0.218543
      9          1           0       -6.069488   -2.575530   -0.771079
     10          1           0       -6.375605   -2.929510    0.937809
     11          6           0       -3.493903    0.694425   -0.029625
     12          6           0       -2.432658    1.201591   -1.006624
     13          6           0       -1.905957    2.589215   -0.639363
     14          1           0       -4.328282    1.408881   -0.002092
     15          1           0       -3.069220    0.670724    0.983305
     16          1           0       -2.859857    1.223905   -2.017376
     17          1           0       -1.601154    0.485697   -1.033345
     18          1           0       -1.454559    2.578388    0.357995
     19          1           0       -2.720413    3.320791   -0.631627
     20          1           0       -1.148442    2.932368   -1.350893
     21          6           0        4.129650   -0.663165    0.308465
     22          6           0        5.334648   -0.836152   -0.616759
     23          6           0        6.059759   -2.164841   -0.400914
     24          1           0        4.463827   -0.734756    1.352566
     25          1           0        3.429591   -1.494503    0.146639
     26          1           0        6.031573   -0.003990   -0.454222
     27          1           0        4.997592   -0.763949   -1.658775
     28          1           0        5.383731   -3.006604   -0.582637
     29          1           0        6.423587   -2.242327    0.628760
     30          1           0        6.917776   -2.267683   -1.072547
     31          6           0        3.394397    0.660307    0.104618
     32          6           0        2.189400    0.833293    1.029843
     33          6           0        1.464287    2.161983    0.813997
     34          1           0        4.094456    1.491646    0.266445
     35          1           0        3.060220    0.731898   -0.939483
     36          1           0        2.526454    0.761091    2.071859
     37          1           0        1.492473    0.001132    0.867306
     38          1           0        1.100460    2.239469   -0.215676
     39          1           0        2.140315    3.003745    0.995722
     40          1           0        0.606270    2.264825    1.485631
 ---------------------------------------------------------------------

 SCF Done:  E(RHF) =  -470.732074803     A.U. after   11 cycles
 E2 =    -0.1583096456D+01 EUMP2 =    -0.47231517125858D+03

 The electronic state is 1-A.
 Alpha  occ. eigenvalues --  -11.21610 -11.21604 -11.21599 -11.21574 -11.21416
 Alpha  occ. eigenvalues --  -11.21397 -11.21356 -11.21337 -11.21079 -11.21071
 Alpha  occ. eigenvalues --  -11.21006 -11.20926  -1.08445  -1.08409  -1.03573
 Alpha  occ. eigenvalues --   -1.03467  -0.96071  -0.95867  -0.87128  -0.86846
 Alpha  occ. eigenvalues --   -0.79686  -0.79484  -0.78258  -0.78223  -0.65128
 Alpha  occ. eigenvalues --   -0.65000  -0.61138  -0.60754  -0.59377  -0.59319
 Alpha  occ. eigenvalues --   -0.57695  -0.57472  -0.55534  -0.54995  -0.52803
 Alpha  occ. eigenvalues --   -0.52669  -0.52383  -0.52252  -0.50109  -0.49626
 Alpha  occ. eigenvalues --   -0.47974  -0.47818  -0.46726  -0.46480  -0.45795
 Alpha  occ. eigenvalues --   -0.45764  -0.45732  -0.45677  -0.43775  -0.43723
 Alpha virt. eigenvalues --    0.21247   0.23179   0.23567   0.25346   0.26248
 Alpha virt. eigenvalues --    0.26432   0.26980   0.27387   0.27675   0.29026
 Alpha virt. eigenvalues --    0.29531   0.31006   0.31325   0.32197   0.32442

 Mulliken charges:
               1
     1  C   -0.298205
     2  C   -0.299656
     3  C   -0.475690
     4  H    0.149647
     5  H    0.149217
     6  H    0.151966
     7  H    0.151921
     8  H    0.155108
     9  H    0.155167
    10  H    0.160258
    11  C   -0.298235
    12  C   -0.300689
    13  C   -0.477894
    14  H    0.149707
    15  H    0.149321
    16  H    0.151690
    17  H    0.151341
    18  H    0.161305
    19  H    0.153929
    20  H    0.158949
    21  C   -0.298239
    22  C   -0.299663
    23  C   -0.475705
    24  H    0.149675
    25  H    0.149344
    26  H    0.151976
    27  H    0.151957
    28  H    0.155154
    29  H    0.155182
    30  H    0.160298
    31  C   -0.298579
    32  C   -0.299959
    33  C   -0.478320
    34  H    0.149697
    35  H    0.149618
    36  H    0.151691
    37  H    0.151094
    38  H    0.160762
    39  H    0.154744
    40  H    0.160117
 Sum of Mulliken charges =  -0.00000

 Dipole moment (field-independent basis, Debye):
    X=              0.0166    Y=              0.0229    Z=              0.0064  Tot=              0.0290
 Quadrupole moment (field-independent basis, Debye-Ang):
   XX=            -84.6158   YY=            -86.2324   ZZ=            -84.0186
   XY=              0.0955   XZ=              0.7101   YZ=             -0.0064

 Normal termination of Gaussian 16 at Thu May  6 00:46:48 2021.
