 Gaussian 16, Revision A.03,
 Gaussian 16:  EM64L-G16RevA.03 25-Dec-2016

 -------------
 #p 6-31g* mp2
 -------------

 ------------------------------------------------------
 Input file generated by CHIRIPA (05-May-2021 14:51:10)
 ------------------------------------------------------
 Symbolic Z-matrix:
 Charge =  0 Multiplicity = 1

                         Standard orientation:
 ---------------------------------------------------------------------
 Center     Atomic      Atomic             Coordinates (Angstroms)
 Number     Number       Type             X           Y           Z
 ---------------------------------------------------------------------
      1          6           0       -2.848012   -0.642661    0.680903
      2          6           0       -1.400298   -0.261580    0.369639
      3          6           0       -0.407439   -0.835493    1.380901
      4          1           0       -3.104545   -0.290212    1.689325
      5          1           0       -2.935363   -1.737816    0.700921
      6          1           0       -1.315998    0.832530    0.348848
      7          1           0       -1.147242   -0.614809   -0.638234
      8          1           0       -0.462224   -1.928814    1.396666
      9          1           0       -0.631939   -0.473251    2.389356
     10          1           0        0.621383   -0.550807    1.139365
     11          6           0       -3.852391   -0.076333   -0.321207
     12          6           0       -5.300105   -0.457414   -0.009943
     13          6           0       -6.292964    0.116499   -1.021205
     14          1           0       -3.765040    1.018822   -0.341225
     15          1           0       -3.595858   -0.428782   -1.329629
     16          1           0       -5.553161   -0.104185    0.997930
     17          1           0       -5.384405   -1.551524    0.010849
     18          1           0       -6.068464   -0.245743   -2.029660
     19          1           0       -6.238179    1.209820   -1.036970
     20          1           0       -7.321786   -0.168187   -0.779668
     21          6           0        3.360026   -0.393612   -0.052714
     22          6           0        4.583413   -1.092856   -0.646320
     23          6           0        4.588783   -2.599104   -0.383677
     24          1           0        3.329164   -0.578616    1.029768
     25          1           0        2.449635   -0.843235   -0.472741
     26          1           0        5.491248   -0.641117   -0.226342
     27          1           0        4.611471   -0.906005   -1.727483
     28          1           0        3.700247   -3.068990   -0.817626
     29          1           0        4.585022   -2.802596    0.692045
     30          1           0        5.472027   -3.078976   -0.816645
     31          6           0        3.340378    1.112605   -0.306983
     32          6           0        2.116990    1.811849    0.286623
     33          6           0        2.111621    3.318098    0.023981
     34          1           0        4.250768    1.562230    0.113044
     35          1           0        3.371240    1.297611   -1.389463
     36          1           0        2.088931    1.624999    1.367787
     37          1           0        1.209154    1.360111   -0.133355
     38          1           0        2.115381    3.521590   -1.051741
     39          1           0        3.000157    3.787983    0.457930
     40          1           0        1.228376    3.797970    0.456949
 ---------------------------------------------------------------------

 SCF Done:  E(RHF) =  -470.731592407     A.U. after   11 cycles
 E2 =    -0.1584623046D+01 EUMP2 =    -0.47231621545275D+03

 The electronic state is 1-A.
 Alpha  occ. eigenvalues --  -11.21624 -11.21587 -11.21565 -11.21561 -11.21433
 Alpha  occ. eigenvalues --  -11.21380 -11.21373 -11.21320 -11.21080 -11.21075
 Alpha  occ. eigenvalues --  -11.21062 -11.20822  -1.08491  -1.08380  -1.03578
 Alpha  occ. eigenvalues --   -1.03454  -0.96006  -0.95922  -0.87020  -0.86942
 Alpha  occ. eigenvalues --   -0.79642  -0.79550  -0.78333  -0.78203  -0.65103
 Alpha  occ. eigenvalues --   -0.65031  -0.60987  -0.60858  -0.59571  -0.59143
 Alpha  occ. eigenvalues --   -0.57641  -0.57529  -0.55298  -0.55191  -0.52883
 Alpha  occ. eigenvalues --   -0.52514  -0.52422  -0.52306  -0.49942  -0.49863
 Alpha  occ. eigenvalues --   -0.47922  -0.47893  -0.46726  -0.46527  -0.45815
 Alpha  occ. eigenvalues --   -0.45755  -0.45718  -0.45561  -0.43824  -0.43623
 Alpha virt. eigenvalues --    0.21847   0.23125   0.23729   0.24415   0.26023
 Alpha virt. eigenvalues --    0.26407   0.26619   0.27387   0.27967   0.29665
 Alpha virt. eigenvalues --    0.30679   0.31287   0.31583   0.31707   0.31982

 Mulliken charges:
               1
     1  C   -0.298099
     2  C   -0.301249
     3  C   -0.486432
     4  H    0.149770
     5  H    0.149554
     6  H    0.152476
     7  H    0.150128
     8  H    0.153488
     9  H    0.153432
    10  H    0.175905
    11  C   -0.298245
    12  C   -0.299615
    13  C   -0.475671
    14  H    0.149365
    15  H    0.149327
    16  H    0.151941
    17  H    0.151916
    18  H    0.155086
    19  H    0.155144
    20  H    0.160216
    21  C   -0.303630
    22  C   -0.298912
    23  C   -0.475727
    24  H    0.150611
    25  H    0.152098
    26  H    0.152061
    27  H    0.151965
    28  H    0.155243
    29  H    0.155469
    30  H    0.160279
    31  C   -0.296714
    32  C   -0.309276
    33  C   -0.474881
    34  H    0.149460
    35  H    0.149495
    36  H    0.152747
    37  H    0.161260
    38  H    0.155104
    39  H    0.155062
    40  H    0.159849
 Sum of Mulliken charges =  -0.00000

 Dipole moment (field-independent basis, Debye):
    X=              0.0542    Y=              0.0116    Z=             -0.0084  Tot=              0.0561
 Quadrupole moment (field-independent basis, Debye-Ang):
   XX=            -85.2857   YY=            -85.4442   ZZ=            -84.1521
   XY=              0.3758   XZ=             -0.1386   YZ=              1.0053

 Normal termination of Gaussian 16 at Wed May  5 16:41:51 2021.
