 Gaussian 16, Revision A.03,
 Gaussian 16:  EM64L-G16RevA.03 25-Dec-2016

 -------------
 #p 6-31g* mp2
 -------------

 ------------------------------------------------------
 Input file generated by CHIRIPA (05-May-2021 14:55:25)
 ------------------------------------------------------
 Symbolic Z-matrix:
 Charge =  0 Multiplicity = 1

                         Standard orientation:
 ---------------------------------------------------------------------
 Center     Atomic      Atomic             Coordinates (Angstroms)
 Number     Number       Type             X           Y           Z
 ---------------------------------------------------------------------
      1          6           0        2.563201    2.037223    1.295738
      2          6           0        1.685142    1.569822    0.312340
      3          6           0        1.943626    0.370745   -0.358442
      4          6           0        3.094664   -0.338678   -0.019149
      5          6           0        3.988710    0.100781    0.955965
      6          6           0        3.710160    1.302506    1.613850
      7          1           0        2.354610    2.969724    1.811808
      8          1           0        0.793631    2.138323    0.063223
      9          1           0        1.280817   -0.014242   -1.123874
     10          1           0        4.869329   -0.487949    1.182517
     11          1           0        4.393849    1.663071    2.377138
     12          7           0        3.378931   -1.609489   -0.722449
     13          8           0        4.399822   -2.215902   -0.405144
     14          8           0        2.575466   -1.975076   -1.577685
     15          6           0       -4.522345   -0.278748   -0.105713
     16          6           0       -4.569559   -1.205846    1.109295
     17          6           0       -5.818097   -2.088145    1.131495
     18          1           0       -5.420388    0.354050   -0.111222
     19          1           0       -4.560957   -0.884177   -1.021878
     20          1           0       -4.529473   -0.598926    2.022890
     21          1           0       -3.671205   -1.836377    1.112018
     22          1           0       -5.860684   -2.717984    0.237017
     23          1           0       -6.723829   -1.473502    1.153065
     24          1           0       -5.831456   -2.742898    2.008410
     25          6           0       -3.280059    0.609585   -0.142001
     26          6           0       -3.232845    1.536684   -1.357009
     27          6           0       -1.984305    2.418982   -1.379209
     28          1           0       -3.241446    1.215015    0.774165
     29          1           0       -2.382015   -0.023213   -0.136492
     30          1           0       -4.131198    2.167215   -1.359732
     31          1           0       -3.272930    0.929763   -2.270604
     32          1           0       -1.078574    1.804339   -1.400779
     33          1           0       -1.941718    3.048821   -0.484732
     34          1           0       -1.970946    3.073734   -2.256125
 ---------------------------------------------------------------------

 SCF Done:  E(RHF) =  -669.535474751     A.U. after   15 cycles
 E2 =    -0.2091321836D+01 EUMP2 =    -0.67162679658694D+03

 The electronic state is 1-A.
 Alpha  occ. eigenvalues --  -20.60732 -20.60727 -15.85783 -11.31132 -11.27690
 Alpha  occ. eigenvalues --  -11.27684 -11.27413 -11.26709 -11.26626 -11.22268
 Alpha  occ. eigenvalues --  -11.22121 -11.21919 -11.21834 -11.21708 -11.21224
 Alpha  occ. eigenvalues --   -1.59807  -1.39362  -1.19291  -1.08899  -1.08689
 Alpha  occ. eigenvalues --   -1.04693  -1.04033  -0.96513  -0.95532  -0.87542
 Alpha  occ. eigenvalues --   -0.86087  -0.82368  -0.80116  -0.78674  -0.77414
 Alpha  occ. eigenvalues --   -0.72002  -0.71130  -0.70407  -0.65528  -0.64943
 Alpha  occ. eigenvalues --   -0.64702  -0.62106  -0.61397  -0.59881  -0.58094
 Alpha  occ. eigenvalues --   -0.55819  -0.55191  -0.53224  -0.53091  -0.53021
 Alpha  occ. eigenvalues --   -0.52600  -0.50461  -0.48766  -0.48760  -0.48400
 Alpha  occ. eigenvalues --   -0.47126  -0.46223  -0.46113  -0.44772  -0.44260
 Alpha  occ. eigenvalues --   -0.37271  -0.36291
 Alpha virt. eigenvalues --    0.05110   0.11360   0.16606   0.19821   0.22613
 Alpha virt. eigenvalues --    0.23786   0.25295   0.25999   0.27194   0.28003
 Alpha virt. eigenvalues --    0.29060   0.30587   0.30955   0.31329   0.32409

 Mulliken charges:
               1
     1  C   -0.171804
     2  C   -0.223735
     3  C   -0.174479
     4  C    0.159023
     5  C   -0.171408
     6  C   -0.218312
     7  H    0.225606
     8  H    0.232817
     9  H    0.274652
    10  H    0.275292
    11  H    0.223083
    12  N    0.488234
    13  O   -0.460578
    14  O   -0.460955
    15  C   -0.298831
    16  C   -0.300408
    17  C   -0.476108
    18  H    0.150130
    19  H    0.152210
    20  H    0.151074
    21  H    0.154384
    22  H    0.156791
    23  H    0.154928
    24  H    0.161469
    25  C   -0.299212
    26  C   -0.299902
    27  C   -0.480877
    28  H    0.148161
    29  H    0.149401
    30  H    0.155000
    31  H    0.156658
    32  H    0.148620
    33  H    0.152806
    34  H    0.166270
 Sum of Mulliken charges =  -0.00000

 Dipole moment (field-independent basis, Debye):
    X=             -1.2132    Y=              4.4659    Z=              2.4501  Tot=              5.2363
 Quadrupole moment (field-independent basis, Debye-Ang):
   XX=            -97.5536   YY=            -98.3137   ZZ=            -93.6193
   XY=             12.8646   XZ=             10.4811   YZ=             -0.8035

 Normal termination of Gaussian 16 at Thu May  6 17:42:24 2021.
