 Gaussian 16, Revision A.03,
 Gaussian 16:  EM64L-G16RevA.03 25-Dec-2016

 -------------
 #p 6-31g* mp2
 -------------

 ------------------------------------------------------
 Input file generated by CHIRIPA (05-May-2021 14:55:24)
 ------------------------------------------------------
 Symbolic Z-matrix:
 Charge =  0 Multiplicity = 1

                         Standard orientation:
 ---------------------------------------------------------------------
 Center     Atomic      Atomic             Coordinates (Angstroms)
 Number     Number       Type             X           Y           Z
 ---------------------------------------------------------------------
      1          6           0        3.517556    0.811204    1.114700
      2          6           0        3.425684    0.842158   -0.280693
      3          6           0        2.533835    0.000721   -0.952361
      4          6           0        1.745367   -0.863128   -0.193828
      5          6           0        1.813852   -0.917343    1.197452
      6          6           0        2.712766   -0.066899    1.848027
      7          1           0        4.213110    1.468351    1.628275
      8          1           0        4.049459    1.523085   -0.852784
      9          1           0        2.442373    0.004058   -2.031732
     10          1           0        1.179018   -1.606872    1.740549
     11          1           0        2.781983   -0.093100    2.931801
     12          7           0        0.797467   -1.758687   -0.893727
     13          8           0        0.113822   -2.510666   -0.202501
     14          8           0        0.756096   -1.691689   -2.120282
     15          6           0       -2.991531    0.422187   -0.069564
     16          6           0       -3.117988   -0.720377    0.938673
     17          6           0       -4.237595   -1.699732    0.584927
     18          1           0       -3.947483    0.960654   -0.125716
     19          1           0       -2.810327    0.001987   -1.068559
     20          1           0       -3.297521   -0.298094    1.935699
     21          1           0       -2.161565   -1.256069    0.992572
     22          1           0       -4.060762   -2.148294   -0.397989
     23          1           0       -5.203173   -1.184876    0.550498
     24          1           0       -4.310312   -2.508447    1.318789
     25          6           0       -1.876546    1.409568    0.270462
     26          6           0       -1.750089    2.552131   -0.737775
     27          6           0       -0.630481    3.531486   -0.384029
     28          1           0       -2.057749    1.829768    1.269458
     29          1           0       -0.920594    0.871099    0.326614
     30          1           0       -2.706512    3.087823   -0.791674
     31          1           0       -1.570555    2.129849   -1.734800
     32          1           0        0.335096    3.016632   -0.349599
     33          1           0       -0.807315    3.980048    0.598887
     34          1           0       -0.557764    4.340202   -1.117890
 ---------------------------------------------------------------------

 SCF Done:  E(RHF) =  -669.536536869     A.U. after   15 cycles
 E2 =    -0.2093640192D+01 EUMP2 =    -0.67163017706049D+03

 The electronic state is 1-A.
 Alpha  occ. eigenvalues --  -20.61045 -20.61040 -15.86061 -11.31363 -11.27930
 Alpha  occ. eigenvalues --  -11.27916 -11.27647 -11.26931 -11.26902 -11.21338
 Alpha  occ. eigenvalues --  -11.21020 -11.20997 -11.20726 -11.20666 -11.20181
 Alpha  occ. eigenvalues --   -1.60098  -1.39655  -1.19533  -1.08937  -1.07911
 Alpha  occ. eigenvalues --   -1.04919  -1.02986  -0.95781  -0.95473  -0.86492
 Alpha  occ. eigenvalues --   -0.86319  -0.82613  -0.79096  -0.77744  -0.77622
 Alpha  occ. eigenvalues --   -0.72285  -0.71423  -0.70627  -0.65187  -0.64913
 Alpha  occ. eigenvalues --   -0.64523  -0.62263  -0.60369  -0.58876  -0.57073
 Alpha  occ. eigenvalues --   -0.55417  -0.54767  -0.53263  -0.53004  -0.52178
 Alpha  occ. eigenvalues --   -0.51900  -0.49421  -0.49054  -0.49040  -0.47408
 Alpha  occ. eigenvalues --   -0.46148  -0.45483  -0.45194  -0.44648  -0.43256
 Alpha  occ. eigenvalues --   -0.37475  -0.36504
 Alpha virt. eigenvalues --    0.04811   0.11106   0.16275   0.21206   0.23026
 Alpha virt. eigenvalues --    0.24790   0.26458   0.27217   0.27804   0.28307
 Alpha virt. eigenvalues --    0.28368   0.30744   0.31594   0.32023   0.32629

 Mulliken charges:
               1
     1  C   -0.170177
     2  C   -0.218573
     3  C   -0.171872
     4  C    0.158821
     5  C   -0.171274
     6  C   -0.217519
     7  H    0.226716
     8  H    0.224699
     9  H    0.276284
    10  H    0.276615
    11  H    0.224532
    12  N    0.489245
    13  O   -0.459211
    14  O   -0.458751
    15  C   -0.299713
    16  C   -0.307357
    17  C   -0.474775
    18  H    0.146599
    19  H    0.157087
    20  H    0.143685
    21  H    0.167786
    22  H    0.162329
    23  H    0.149794
    24  H    0.158278
    25  C   -0.299654
    26  C   -0.299606
    27  C   -0.476867
    28  H    0.146249
    29  H    0.145579
    30  H    0.151901
    31  H    0.154811
    32  H    0.152838
    33  H    0.153197
    34  H    0.158305
 Sum of Mulliken charges =  -0.00000

 Dipole moment (field-independent basis, Debye):
    X=              3.5288    Y=              2.9620    Z=              2.3797  Tot=              5.1854
 Quadrupole moment (field-independent basis, Debye-Ang):
   XX=            -83.6232   YY=           -100.7506   ZZ=            -91.6711
   XY=              2.6739   XZ=              2.2325   YZ=             -4.3811

 Normal termination of Gaussian 16 at Thu May  6 17:39:06 2021.
