 Gaussian 16, Revision A.03,
 Gaussian 16:  EM64L-G16RevA.03 25-Dec-2016

 -------------
 #p 6-31g* mp2
 -------------

 ------------------------------------------------------
 Input file generated by CHIRIPA (05-May-2021 14:53:13)
 ------------------------------------------------------
 Symbolic Z-matrix:
 Charge =  0 Multiplicity = 1

                         Standard orientation:
 ---------------------------------------------------------------------
 Center     Atomic      Atomic             Coordinates (Angstroms)
 Number     Number       Type             X           Y           Z
 ---------------------------------------------------------------------
      1          6           0       -5.347615    0.004193   -0.288084
      2          6           0       -6.304348    0.590902    0.750387
      3          6           0       -7.503376    1.297306    0.117048
      4          1           0       -4.994601    0.808571   -0.947858
      5          1           0       -5.897167   -0.703362   -0.924287
      6          1           0       -5.752834    1.296102    1.385321
      7          1           0       -6.654976   -0.214935    1.407885
      8          1           0       -8.078422    0.600579   -0.501412
      9          1           0       -7.171155    2.120201   -0.524104
     10          1           0       -8.174266    1.709204    0.877381
     11          6           0       -4.143933   -0.705223    0.329658
     12          6           0       -3.187201   -1.291932   -0.708812
     13          6           0       -1.988172   -1.998337   -0.075474
     14          1           0       -3.594381    0.002332    0.965861
     15          1           0       -4.496947   -1.509601    0.989432
     16          1           0       -2.836572   -0.486096   -1.366310
     17          1           0       -3.738714   -1.997132   -1.343747
     18          1           0       -2.320393   -2.821231    0.565678
     19          1           0       -1.413126   -1.301609    0.542987
     20          1           0       -1.317282   -2.410235   -0.835807
     21          6           0        1.326595    1.020618   -0.388916
     22          6           0        2.354760    1.966691   -0.323024
     23          6           0        3.677702    1.564341   -0.116902
     24          6           0        3.937826    0.201644    0.019789
     25          6           0        2.935273   -0.765033   -0.041152
     26          6           0        1.619616   -0.339826   -0.248019
     27          1           0        0.301731    1.342050   -0.549326
     28          1           0        2.130139    3.023901   -0.432106
     29          1           0        4.492939    2.275511   -0.061736
     30          1           0        3.190198   -1.811843    0.071181
     31          1           0        0.823149   -1.076786   -0.298757
     32          7           0        5.334510   -0.236404    0.238396
     33          8           0        5.537498   -1.442909    0.355784
     34          8           0        6.199795    0.635052    0.288211
 ---------------------------------------------------------------------

 SCF Done:  E(RHF) =  -669.535275146     A.U. after   15 cycles
 E2 =    -0.2091322310D+01 EUMP2 =    -0.67162659745593D+03

 The electronic state is 1-A.
 Alpha  occ. eigenvalues --  -20.60707 -20.60702 -15.85758 -11.31112 -11.27682
 Alpha  occ. eigenvalues --  -11.27653 -11.27416 -11.26705 -11.26589 -11.22674
 Alpha  occ. eigenvalues --  -11.22375 -11.22262 -11.22207 -11.22093 -11.21583
 Alpha  occ. eigenvalues --   -1.59783  -1.39337  -1.19278  -1.09269  -1.08678
 Alpha  occ. eigenvalues --   -1.04679  -1.04393  -0.96864  -0.95516  -0.87897
 Alpha  occ. eigenvalues --   -0.86071  -0.82347  -0.80470  -0.79034  -0.77394
 Alpha  occ. eigenvalues --   -0.71978  -0.71105  -0.70398  -0.65924  -0.64928
 Alpha  occ. eigenvalues --   -0.64708  -0.62147  -0.61685  -0.60242  -0.58439
 Alpha  occ. eigenvalues --   -0.56158  -0.55187  -0.53631  -0.53279  -0.53005
 Alpha  occ. eigenvalues --   -0.52698  -0.50759  -0.48774  -0.48734  -0.48728
 Alpha  occ. eigenvalues --   -0.47480  -0.46583  -0.46487  -0.44745  -0.44632
 Alpha  occ. eigenvalues --   -0.37265  -0.36275
 Alpha virt. eigenvalues --    0.05131   0.11313   0.16626   0.19759   0.22502
 Alpha virt. eigenvalues --    0.23840   0.25630   0.26054   0.26700   0.27840
 Alpha virt. eigenvalues --    0.29053   0.29839   0.31007   0.31086   0.32357

 Mulliken charges:
               1
     1  C   -0.298709
     2  C   -0.300173
     3  C   -0.476085
     4  H    0.148686
     5  H    0.151637
     6  H    0.151837
     7  H    0.153541
     8  H    0.156326
     9  H    0.155141
    10  H    0.162083
    11  C   -0.299243
    12  C   -0.299445
    13  C   -0.485417
    14  H    0.148290
    15  H    0.152932
    16  H    0.148423
    17  H    0.157280
    18  H    0.163771
    19  H    0.152137
    20  H    0.159444
    21  C   -0.174297
    22  C   -0.218302
    23  C   -0.171553
    24  C    0.159024
    25  C   -0.173039
    26  C   -0.226144
    27  H    0.224753
    28  H    0.222858
    29  H    0.275248
    30  H    0.275794
    31  H    0.236433
    32  N    0.488002
    33  O   -0.460491
    34  O   -0.460740
 Sum of Mulliken charges =  -0.00000

 Dipole moment (field-independent basis, Debye):
    X=             -5.2129    Y=              1.4677    Z=             -0.7523  Tot=              5.4676
 Quadrupole moment (field-independent basis, Debye-Ang):
   XX=           -133.2836   YY=            -88.9433   ZZ=            -95.7986
   XY=              7.9622   XZ=             -3.5398   YZ=             -0.1700

 Normal termination of Gaussian 16 at Wed May  5 18:34:56 2021.
