 Gaussian 16, Revision A.03,
 Gaussian 16:  EM64L-G16RevA.03 25-Dec-2016

 -------------
 #p 6-31g* mp2
 -------------

 ------------------------------------------------------
 Input file generated by CHIRIPA (05-May-2021 14:51:14)
 ------------------------------------------------------
 Symbolic Z-matrix:
 Charge =  0 Multiplicity = 1

                         Standard orientation:
 ---------------------------------------------------------------------
 Center     Atomic      Atomic             Coordinates (Angstroms)
 Number     Number       Type             X           Y           Z
 ---------------------------------------------------------------------
      1          6           0        3.433470    0.428063    0.069826
      2          6           0        3.232709    1.943613    0.097900
      3          6           0        4.268455    2.661188    0.963988
      4          1           0        3.387683    0.039443    1.096385
      5          1           0        4.442599    0.205735   -0.303837
      6          1           0        2.223764    2.162973    0.470092
      7          1           0        3.278788    2.328644   -0.928864
      8          1           0        5.280223    2.471638    0.591164
      9          1           0        4.219205    2.305026    1.998069
     10          1           0        4.106300    3.743561    0.969878
     11          6           0        2.405716   -0.303327   -0.791870
     12          6           0        2.606477   -1.818877   -0.819944
     13          6           0        1.570730   -2.536453   -1.686032
     14          1           0        1.396587   -0.080999   -0.418207
     15          1           0        2.451503    0.085292   -1.818429
     16          1           0        2.560398   -2.203908    0.206820
     17          1           0        3.615422   -2.038238   -1.192136
     18          1           0        1.619981   -2.180290   -2.720113
     19          1           0        0.558963   -2.346902   -1.313208
     20          1           0        1.732886   -3.618826   -1.691922
     21          6           0       -2.804673   -0.778886    0.599407
     22          6           0       -1.456569   -0.978377    1.292807
     23          6           0       -1.241323   -2.416919    1.764036
     24          1           0       -3.610492   -1.064710    1.289266
     25          1           0       -2.871859   -1.460978   -0.259448
     26          1           0       -1.391380   -0.295131    2.149277
     27          1           0       -0.653873   -0.691862    0.601283
     28          1           0       -1.279709   -3.109566    0.917059
     29          1           0       -2.021405   -2.710581    2.473850
     30          1           0       -0.271512   -2.537074    2.256873
     31          6           0       -3.034512    0.654150    0.122637
     32          6           0       -4.382617    0.853641   -0.570763
     33          6           0       -4.597862    2.292184   -1.041991
     34          1           0       -2.967326    1.336243    0.981492
     35          1           0       -2.228694    0.939975   -0.567223
     36          1           0       -5.185313    0.567126    0.120762
     37          1           0       -4.447806    0.170396   -1.427234
     38          1           0       -3.817780    2.585845   -1.751806
     39          1           0       -4.559477    2.984831   -0.195015
     40          1           0       -5.567673    2.412339   -1.534829
 ---------------------------------------------------------------------

 SCF Done:  E(RHF) =  -470.733218056     A.U. after   11 cycles
 E2 =    -0.1583627798D+01 EUMP2 =    -0.47231684585358D+03

 The electronic state is 1-A.
 Alpha  occ. eigenvalues --  -11.21654 -11.21618 -11.21613 -11.21596 -11.21442
 Alpha  occ. eigenvalues --  -11.21407 -11.21381 -11.21348 -11.21127 -11.21092
 Alpha  occ. eigenvalues --  -11.21080 -11.21067  -1.08483  -1.08426  -1.03589
 Alpha  occ. eigenvalues --   -1.03516  -0.96020  -0.95980  -0.87039  -0.86995
 Alpha  occ. eigenvalues --   -0.79660  -0.79580  -0.78345  -0.78195  -0.65275
 Alpha  occ. eigenvalues --   -0.64928  -0.61171  -0.60735  -0.59389  -0.59341
 Alpha  occ. eigenvalues --   -0.57631  -0.57590  -0.55382  -0.55195  -0.52709
 Alpha  occ. eigenvalues --   -0.52680  -0.52443  -0.52414  -0.50047  -0.49847
 Alpha  occ. eigenvalues --   -0.48052  -0.47872  -0.46837  -0.46559  -0.46061
 Alpha  occ. eigenvalues --   -0.45776  -0.45767  -0.45280  -0.43818  -0.43790
 Alpha virt. eigenvalues --    0.19636   0.23144   0.23646   0.25071   0.25346
 Alpha virt. eigenvalues --    0.26400   0.26846   0.27953   0.28507   0.29234
 Alpha virt. eigenvalues --    0.30590   0.31189   0.31705   0.31838   0.32293

 Mulliken charges:
               1
     1  C   -0.297627
     2  C   -0.299910
     3  C   -0.475716
     4  H    0.149687
     5  H    0.149545
     6  H    0.152386
     7  H    0.151813
     8  H    0.155130
     9  H    0.155214
    10  H    0.160276
    11  C   -0.306593
    12  C   -0.299215
    13  C   -0.479067
    14  H    0.156465
    15  H    0.149572
    16  H    0.152483
    17  H    0.152131
    18  H    0.154938
    19  H    0.157812
    20  H    0.160570
    21  C   -0.297759
    22  C   -0.310798
    23  C   -0.476261
    24  H    0.150008
    25  H    0.149639
    26  H    0.152026
    27  H    0.160918
    28  H    0.156527
    29  H    0.155606
    30  H    0.160036
    31  C   -0.298603
    32  C   -0.299698
    33  C   -0.475782
    34  H    0.149477
    35  H    0.149721
    36  H    0.151998
    37  H    0.152170
    38  H    0.155398
    39  H    0.155148
    40  H    0.160334
 Sum of Mulliken charges =  -0.00000

 Dipole moment (field-independent basis, Debye):
    X=             -0.0118    Y=             -0.0018    Z=              0.0042  Tot=              0.0126
 Quadrupole moment (field-independent basis, Debye-Ang):
   XX=            -84.7456   YY=            -86.1392   ZZ=            -83.8128
   XY=             -0.1842   XZ=             -1.4013   YZ=              0.1242

 Normal termination of Gaussian 16 at Wed May  5 16:53:52 2021.
