 Gaussian 16, Revision A.03,
 Gaussian 16:  EM64L-G16RevA.03 25-Dec-2016

 -------------
 #p 6-31g* mp2
 -------------

 ------------------------------------------------------
 Input file generated by CHIRIPA (05-May-2021 14:57:26)
 ------------------------------------------------------
 Symbolic Z-matrix:
 Charge =  0 Multiplicity = 1

                         Standard orientation:
 ---------------------------------------------------------------------
 Center     Atomic      Atomic             Coordinates (Angstroms)
 Number     Number       Type             X           Y           Z
 ---------------------------------------------------------------------
      1          6           0       -2.190413    1.002549    0.353681
      2          6           0       -2.417364   -0.369754    0.501329
      3          6           0       -3.689516   -0.906623    0.282353
      4          6           0       -4.716408   -0.038302   -0.084801
      5          6           0       -4.521839    1.333328   -0.239924
      6          6           0       -3.241521    1.848219   -0.015823
      7          1           0       -1.199003    1.411065    0.525778
      8          1           0       -1.602942   -1.028895    0.788199
      9          1           0       -3.893052   -1.965156    0.389582
     10          1           0       -5.353532    1.965289   -0.526857
     11          1           0       -3.068186    2.914371   -0.131230
     12          7           0       -6.067500   -0.595028   -0.319335
     13          8           0       -6.955447    0.191157   -0.641981
     14          8           0       -6.212957   -1.807033   -0.176075
     15          6           0        2.120293    0.285069    0.832350
     16          6           0        2.644731   -1.007247    0.725563
     17          6           0        3.958489   -1.206692    0.291043
     18          6           0        4.723186   -0.086180   -0.029860
     19          6           0        4.229239    1.213853    0.066164
     20          6           0        2.912824    1.389548    0.502890
     21          1           0        1.098701    0.430779    1.170753
     22          1           0        2.031545   -1.866858    0.980746
     23          1           0        4.389694   -2.196161    0.199222
     24          1           0        4.864779    2.051173   -0.195374
     25          1           0        2.508180    2.394331    0.584864
     26          7           0        6.115410   -0.284752   -0.491035
     27          8           0        6.768605    0.718954   -0.767707
     28          8           0        6.527079   -1.440339   -0.567099
 ---------------------------------------------------------------------

 SCF Done:  E(RHF) =  -868.335895339     A.U. after   16 cycles
 E2 =    -0.2599991050D+01 EUMP2 =    -0.87093588638904D+03

 The electronic state is 1-A.
 Alpha  occ. eigenvalues --  -20.61366 -20.61360 -20.61346 -20.61340 -15.86425
 Alpha  occ. eigenvalues --  -15.86405 -11.31972 -11.31935 -11.28549 -11.28543
 Alpha  occ. eigenvalues --  -11.28543 -11.28501 -11.28498 -11.28440 -11.27693
 Alpha  occ. eigenvalues --  -11.27682 -11.27672 -11.27585  -1.60436  -1.60417
 Alpha  occ. eigenvalues --   -1.39985  -1.39965  -1.20177  -1.20142  -1.09582
 Alpha  occ. eigenvalues --   -1.09529  -1.05599  -1.05568  -0.96395  -0.96316
 Alpha  occ. eigenvalues --   -0.87014  -0.86978  -0.83211  -0.83140  -0.78176
 Alpha  occ. eigenvalues --   -0.78150  -0.72643  -0.72623  -0.71760  -0.71741
 Alpha  occ. eigenvalues --   -0.71624  -0.71107  -0.65848  -0.65814  -0.65675
 Alpha  occ. eigenvalues --   -0.65554  -0.62943  -0.62904  -0.56486  -0.55912
 Alpha  occ. eigenvalues --   -0.53924  -0.53882  -0.53713  -0.53679  -0.49417
 Alpha  occ. eigenvalues --   -0.49396  -0.49383  -0.49364  -0.45349  -0.45334
 Alpha  occ. eigenvalues --   -0.38230  -0.38148  -0.37183  -0.37154
 Alpha virt. eigenvalues --    0.04327   0.04402   0.10441   0.10490   0.15671
 Alpha virt. eigenvalues --    0.15831   0.17025   0.22229   0.24485   0.24916
 Alpha virt. eigenvalues --    0.27409   0.29268   0.29829   0.30736   0.33079

 Mulliken charges:
               1
     1  C   -0.171257
     2  C   -0.217116
     3  C   -0.169546
     4  C    0.159332
     5  C   -0.169570
     6  C   -0.217666
     7  H    0.217409
     8  H    0.215765
     9  H    0.277547
    10  H    0.278274
    11  H    0.225287
    12  N    0.487925
    13  O   -0.458155
    14  O   -0.458729
    15  C   -0.173985
    16  C   -0.217889
    17  C   -0.169493
    18  C    0.159644
    19  C   -0.169640
    20  C   -0.218328
    21  H    0.218203
    22  H    0.222319
    23  H    0.278427
    24  H    0.278096
    25  H    0.221742
    26  N    0.487871
    27  O   -0.458393
    28  O   -0.458074
 Sum of Mulliken charges =  -0.00000

 Dipole moment (field-independent basis, Debye):
    X=             -0.1288    Y=              2.6325    Z=              2.3458  Tot=              3.5283
 Quadrupole moment (field-independent basis, Debye-Ang):
   XX=           -194.0763   YY=            -95.8081   ZZ=           -106.5819
   XY=             -7.0458   XZ=              3.9194   YZ=             -2.1033

 Normal termination of Gaussian 16 at Thu May  6 19:46:08 2021.
