 Gaussian 16, Revision A.03,
 Gaussian 16:  EM64L-G16RevA.03 25-Dec-2016

 -------------
 #p 6-31g* mp2
 -------------

 ------------------------------------------------------
 Input file generated by CHIRIPA (05-May-2021 14:55:25)
 ------------------------------------------------------
 Symbolic Z-matrix:
 Charge =  0 Multiplicity = 1

                         Standard orientation:
 ---------------------------------------------------------------------
 Center     Atomic      Atomic             Coordinates (Angstroms)
 Number     Number       Type             X           Y           Z
 ---------------------------------------------------------------------
      1          6           0        1.356532    1.650211    1.760846
      2          6           0        1.080069    0.328701    2.126499
      3          6           0        1.512434   -0.734234    1.327889
      4          6           0        2.222009   -0.438053    0.165104
      5          6           0        2.513077    0.867921   -0.226051
      6          6           0        2.070894    1.915136    0.587806
      7          1           0        1.016847    2.469819    2.387147
      8          1           0        0.525486    0.119976    3.036948
      9          1           0        1.312190   -1.766725    1.587278
     10          1           0        3.068019    1.044578   -1.139423
     11          1           0        2.287043    2.940450    0.301352
     12          7           0        2.684931   -1.555014   -0.688420
     13          8           0        3.308288   -1.267560   -1.707945
     14          8           0        2.415646   -2.696792   -0.321724
     15          6           0       -2.463709    1.019149   -0.244036
     16          6           0       -1.588143    1.568876   -1.370611
     17          6           0       -1.029731    2.958168   -1.061036
     18          1           0       -3.292505    1.716146   -0.059004
     19          1           0       -1.874941    0.980498    0.682924
     20          1           0       -2.177978    1.605180   -2.295485
     21          1           0       -0.761443    0.870394   -1.553112
     22          1           0       -0.418449    2.934125   -0.153095
     23          1           0       -1.843033    3.673085   -0.899686
     24          1           0       -0.406809    3.332024   -1.879609
     25          6           0       -3.029318   -0.369000   -0.538747
     26          6           0       -3.904883   -0.918727    0.587827
     27          6           0       -4.463296   -2.308020    0.278254
     28          1           0       -3.618085   -0.330349   -1.465707
     29          1           0       -2.200522   -1.065997   -0.723778
     30          1           0       -4.731584   -0.220246    0.770329
     31          1           0       -3.315048   -0.955031    1.512702
     32          1           0       -3.649993   -3.022936    0.116904
     33          1           0       -5.074578   -2.283977   -0.629688
     34          1           0       -5.086217   -2.681875    1.096826
 ---------------------------------------------------------------------

 SCF Done:  E(RHF) =  -669.534524604     A.U. after   15 cycles
 E2 =    -0.2094649690D+01 EUMP2 =    -0.67162917429412D+03

 The electronic state is 1-A.
 Alpha  occ. eigenvalues --  -20.60886 -20.60879 -15.85940 -11.31358 -11.27913
 Alpha  occ. eigenvalues --  -11.27892 -11.27642 -11.26954 -11.26907 -11.21796
 Alpha  occ. eigenvalues --  -11.21758 -11.21561 -11.21479 -11.21339 -11.21161
 Alpha  occ. eigenvalues --   -1.59960  -1.39512  -1.19530  -1.08929  -1.08586
 Alpha  occ. eigenvalues --   -1.04933  -1.03708  -0.96173  -0.95740  -0.87205
 Alpha  occ. eigenvalues --   -0.86318  -0.82564  -0.79784  -0.78410  -0.77603
 Alpha  occ. eigenvalues --   -0.72156  -0.71286  -0.70622  -0.65265  -0.65173
 Alpha  occ. eigenvalues --   -0.64913  -0.62274  -0.61150  -0.59540  -0.57783
 Alpha  occ. eigenvalues --   -0.55534  -0.55422  -0.53213  -0.53028  -0.52855
 Alpha  occ. eigenvalues --   -0.52572  -0.50120  -0.48919  -0.48908  -0.48088
 Alpha  occ. eigenvalues --   -0.46827  -0.45941  -0.45887  -0.44907  -0.43964
 Alpha  occ. eigenvalues --   -0.37402  -0.36467
 Alpha virt. eigenvalues --    0.04890   0.11010   0.16332   0.20861   0.22784
 Alpha virt. eigenvalues --    0.24127   0.26269   0.26711   0.27114   0.28155
 Alpha virt. eigenvalues --    0.28511   0.30587   0.31397   0.31705   0.31967

 Mulliken charges:
               1
     1  C   -0.172185
     2  C   -0.217704
     3  C   -0.171823
     4  C    0.158752
     5  C   -0.171774
     6  C   -0.214882
     7  H    0.227419
     8  H    0.224649
     9  H    0.276193
    10  H    0.276482
    11  H    0.226243
    12  N    0.487835
    13  O   -0.459657
    14  O   -0.460064
    15  C   -0.299932
    16  C   -0.298699
    17  C   -0.478727
    18  H    0.147735
    19  H    0.147031
    20  H    0.153315
    21  H    0.154765
    22  H    0.153107
    23  H    0.153350
    24  H    0.157050
    25  C   -0.299208
    26  C   -0.298571
    27  C   -0.476231
    28  H    0.150996
    29  H    0.152595
    30  H    0.151435
    31  H    0.146654
    32  H    0.157710
    33  H    0.156519
    34  H    0.159624
 Sum of Mulliken charges =  -0.00000

 Dipole moment (field-independent basis, Debye):
    X=             -1.5078    Y=              3.8544    Z=              3.0068  Tot=              5.1158
 Quadrupole moment (field-independent basis, Debye-Ang):
   XX=           -101.3736   YY=            -97.5043   ZZ=            -91.9467
   XY=             10.5853   XZ=              5.4415   YZ=             -3.1191

 Normal termination of Gaussian 16 at Thu May  6 11:08:01 2021.
