 Gaussian 16, Revision A.03,
 Gaussian 16:  EM64L-G16RevA.03 25-Dec-2016

 -------------
 #p 6-31g* mp2
 -------------

 ------------------------------------------------------
 Input file generated by CHIRIPA (05-May-2021 14:51:08)
 ------------------------------------------------------
 Symbolic Z-matrix:
 Charge =  0 Multiplicity = 1

                         Standard orientation:
 ---------------------------------------------------------------------
 Center     Atomic      Atomic             Coordinates (Angstroms)
 Number     Number       Type             X           Y           Z
 ---------------------------------------------------------------------
      1          6           0       -3.931254    0.853536   -0.261139
      2          6           0       -3.506055    2.112143    0.495895
      3          6           0       -4.256647    3.361623    0.034154
      4          1           0       -3.765202    1.006389   -1.336317
      5          1           0       -5.011749    0.702711   -0.130073
      6          1           0       -2.426436    2.259778    0.364580
      7          1           0       -3.672959    1.956205    1.569414
      8          1           0       -5.334700    3.239635    0.180855
      9          1           0       -4.081095    3.544934   -1.030825
     10          1           0       -3.937173    4.249640    0.588429
     11          6           0       -3.189725   -0.403854    0.189232
     12          6           0       -3.614925   -1.662460   -0.567802
     13          6           0       -2.864332   -2.911941   -0.106061
     14          1           0       -2.109231   -0.253029    0.058166
     15          1           0       -3.355777   -0.556707    1.264410
     16          1           0       -3.448020   -1.506523   -1.641321
     17          1           0       -4.694543   -1.810096   -0.436487
     18          1           0       -3.039884   -3.095252    0.958918
     19          1           0       -1.786279   -2.789953   -0.252762
     20          1           0       -3.183806   -3.799958   -0.660336
     21          6           0        2.925705   -0.545837   -0.242331
     22          6           0        2.295027   -1.564831    0.707343
     23          6           0        1.025917   -2.198359    0.136555
     24          1           0        2.191332    0.239661   -0.467352
     25          1           0        3.158111   -1.039019   -1.196352
     26          1           0        2.065148   -1.070207    1.659772
     27          1           0        3.031050   -2.347892    0.930280
     28          1           0        1.243144   -2.716834   -0.802912
     29          1           0        0.271755   -1.431890   -0.069276
     30          1           0        0.591614   -2.923593    0.831734
     31          6           0        4.195274    0.096155    0.314238
     32          6           0        4.825953    1.115149   -0.635436
     33          6           0        6.095062    1.748676   -0.064648
     34          1           0        3.962868    0.589337    1.268259
     35          1           0        4.929647   -0.689343    0.539259
     36          1           0        4.089930    1.898210   -0.858373
     37          1           0        5.055831    0.620525   -1.587864
     38          1           0        6.849224    0.982208    0.141182
     39          1           0        5.877835    2.267152    0.874818
     40          1           0        6.529365    2.473911   -0.759829
 ---------------------------------------------------------------------

 SCF Done:  E(RHF) =  -470.732749423     A.U. after   11 cycles
 E2 =    -0.1583127494D+01 EUMP2 =    -0.47231587691673D+03

 The electronic state is 1-A.
 Alpha  occ. eigenvalues --  -11.21631 -11.21623 -11.21609 -11.21529 -11.21437
 Alpha  occ. eigenvalues --  -11.21390 -11.21376 -11.21330 -11.21117 -11.21087
 Alpha  occ. eigenvalues --  -11.21076 -11.20872  -1.08464  -1.08402  -1.03577
 Alpha  occ. eigenvalues --   -1.03472  -0.96047  -0.95907  -0.87092  -0.86905
 Alpha  occ. eigenvalues --   -0.79707  -0.79486  -0.78293  -0.78198  -0.65127
 Alpha  occ. eigenvalues --   -0.65010  -0.61038  -0.60824  -0.59406  -0.59292
 Alpha  occ. eigenvalues --   -0.57627  -0.57542  -0.55339  -0.55210  -0.52828
 Alpha  occ. eigenvalues --   -0.52620  -0.52451  -0.52249  -0.50005  -0.49843
 Alpha  occ. eigenvalues --   -0.48008  -0.47816  -0.46762  -0.46505  -0.45896
 Alpha  occ. eigenvalues --   -0.45757  -0.45732  -0.45498  -0.43785  -0.43743
 Alpha virt. eigenvalues --    0.21485   0.23047   0.23649   0.24722   0.25775
 Alpha virt. eigenvalues --    0.26664   0.27098   0.27325   0.27859   0.29195
 Alpha virt. eigenvalues --    0.30634   0.30817   0.31516   0.31842   0.32071

 Mulliken charges:
               1
     1  C   -0.298079
     2  C   -0.299503
     3  C   -0.475686
     4  H    0.149598
     5  H    0.149748
     6  H    0.151236
     7  H    0.151963
     8  H    0.155297
     9  H    0.155195
    10  H    0.160146
    11  C   -0.302198
    12  C   -0.298984
    13  C   -0.485458
    14  H    0.152079
    15  H    0.149688
    16  H    0.151392
    17  H    0.151449
    18  H    0.153682
    19  H    0.169436
    20  H    0.159125
    21  C   -0.298485
    22  C   -0.300251
    23  C   -0.481794
    24  H    0.149172
    25  H    0.149558
    26  H    0.152444
    27  H    0.152174
    28  H    0.155540
    29  H    0.158456
    30  H    0.162697
    31  C   -0.298353
    32  C   -0.299640
    33  C   -0.475728
    34  H    0.149674
    35  H    0.149799
    36  H    0.151873
    37  H    0.151939
    38  H    0.155237
    39  H    0.155249
    40  H    0.160313
 Sum of Mulliken charges =  -0.00000

 Dipole moment (field-independent basis, Debye):
    X=              0.0476    Y=             -0.0124    Z=              0.0055  Tot=              0.0495
 Quadrupole moment (field-independent basis, Debye-Ang):
   XX=            -85.1647   YY=            -85.5013   ZZ=            -84.2414
   XY=             -0.4652   XZ=             -1.1121   YZ=              0.2593

 Normal termination of Gaussian 16 at Thu May  6 16:31:39 2021.
