 Gaussian 16, Revision A.03,
 Gaussian 16:  EM64L-G16RevA.03 25-Dec-2016

 -------------
 #p 6-31g* mp2
 -------------

 ------------------------------------------------------
 Input file generated by CHIRIPA (05-May-2021 14:55:22)
 ------------------------------------------------------
 Symbolic Z-matrix:
 Charge =  0 Multiplicity = 1

                         Standard orientation:
 ---------------------------------------------------------------------
 Center     Atomic      Atomic             Coordinates (Angstroms)
 Number     Number       Type             X           Y           Z
 ---------------------------------------------------------------------
      1          6           0       -1.136941   -0.403190    2.123007
      2          6           0       -2.228538   -1.267723    1.990651
      3          6           0       -3.123384   -1.123639    0.926209
      4          6           0       -2.895386   -0.099548    0.008306
      5          6           0       -1.817080    0.777715    0.112980
      6          6           0       -0.935051    0.614975    1.185402
      7          1           0       -0.446781   -0.522364    2.952991
      8          1           0       -2.387812   -2.059337    2.717304
      9          1           0       -3.976651   -1.778895    0.799747
     10          1           0       -1.684477    1.557413   -0.627226
     11          1           0       -0.088160    1.287854    1.285677
     12          7           0       -3.835935    0.062863   -1.122795
     13          8           0       -3.612974    0.973042   -1.918093
     14          8           0       -4.778288   -0.723095   -1.192638
     15          6           0        3.280110    0.845827   -0.501425
     16          6           0        3.054098    1.860842    0.619580
     17          6           0        2.599132    3.224692    0.099281
     18          1           0        4.029502    1.241828   -1.200382
     19          1           0        2.349553    0.729073   -1.073985
     20          1           0        3.984411    1.974614    1.190710
     21          1           0        2.305299    1.462295    1.316054
     22          1           0        1.658530    3.132013   -0.453242
     23          1           0        3.347183    3.647243   -0.579298
     24          1           0        2.443496    3.934927    0.917330
     25          6           0        3.735241   -0.522461    0.002927
     26          6           0        3.961254   -1.537475   -1.118076
     27          6           0        4.416221   -2.901325   -0.597778
     28          1           0        4.665799   -0.405706    0.575489
     29          1           0        2.985850   -0.918460    0.701885
     30          1           0        4.710054   -1.138929   -1.814550
     31          1           0        3.030940   -1.651247   -1.689207
     32          1           0        3.668169   -3.323876    0.080801
     33          1           0        5.356822   -2.808646   -0.045255
     34          1           0        4.571856   -3.611560   -1.415826
 ---------------------------------------------------------------------

 SCF Done:  E(RHF) =  -669.535530888     A.U. after   15 cycles
 E2 =    -0.2091597090D+01 EUMP2 =    -0.67162712797769D+03

 The electronic state is 1-A.
 Alpha  occ. eigenvalues --  -20.60779 -20.60774 -15.85832 -11.31206 -11.27776
 Alpha  occ. eigenvalues --  -11.27772 -11.27518 -11.26792 -11.26759 -11.22568
 Alpha  occ. eigenvalues --  -11.22089 -11.22047 -11.21972 -11.21960 -11.21466
 Alpha  occ. eigenvalues --   -1.59854  -1.39407  -1.19378  -1.09116  -1.08771
 Alpha  occ. eigenvalues --   -1.04783  -1.04208  -0.96636  -0.95606  -0.87652
 Alpha  occ. eigenvalues --   -0.86182  -0.82437  -0.80284  -0.78899  -0.77485
 Alpha  occ. eigenvalues --   -0.72050  -0.71177  -0.70488  -0.65841  -0.65030
 Alpha  occ. eigenvalues --   -0.64748  -0.62225  -0.61502  -0.60016  -0.58238
 Alpha  occ. eigenvalues --   -0.55931  -0.55276  -0.53335  -0.53110  -0.53056
 Alpha  occ. eigenvalues --   -0.52865  -0.50588  -0.48820  -0.48805  -0.48572
 Alpha  occ. eigenvalues --   -0.47331  -0.46441  -0.46346  -0.44811  -0.44444
 Alpha  occ. eigenvalues --   -0.37359  -0.36382
 Alpha virt. eigenvalues --    0.05045   0.11210   0.16497   0.18929   0.22897
 Alpha virt. eigenvalues --    0.23587   0.25542   0.25839   0.27136   0.28529
 Alpha virt. eigenvalues --    0.28793   0.30428   0.31017   0.31133   0.32063

 Mulliken charges:
               1
     1  C   -0.172878
     2  C   -0.218453
     3  C   -0.171116
     4  C    0.158949
     5  C   -0.172929
     6  C   -0.225334
     7  H    0.225670
     8  H    0.223514
     9  H    0.275694
    10  H    0.275659
    11  H    0.234171
    12  N    0.488003
    13  O   -0.460343
    14  O   -0.460393
    15  C   -0.299036
    16  C   -0.302840
    17  C   -0.477519
    18  H    0.153643
    19  H    0.150814
    20  H    0.156763
    21  H    0.140414
    22  H    0.151751
    23  H    0.161712
    24  H    0.161628
    25  C   -0.297778
    26  C   -0.300550
    27  C   -0.475943
    28  H    0.150317
    29  H    0.146007
    30  H    0.153608
    31  H    0.154691
    32  H    0.154188
    33  H    0.155278
    34  H    0.162639
 Sum of Mulliken charges =  -0.00000

 Dipole moment (field-independent basis, Debye):
    X=              3.4734    Y=             -0.5764    Z=              3.8988  Tot=              5.2533
 Quadrupole moment (field-independent basis, Debye-Ang):
   XX=           -111.5733   YY=            -92.6731   ZZ=            -94.8020
   XY=              4.5799   XZ=            -13.0374   YZ=             -1.7885

 Normal termination of Gaussian 16 at Thu May  6 01:29:00 2021.
