 Gaussian 16, Revision A.03,
 Gaussian 16:  EM64L-G16RevA.03 25-Dec-2016

 -------------
 #p 6-31g* mp2
 -------------

 ------------------------------------------------------
 Input file generated by CHIRIPA (05-May-2021 14:55:23)
 ------------------------------------------------------
 Symbolic Z-matrix:
 Charge =  0 Multiplicity = 1

                         Standard orientation:
 ---------------------------------------------------------------------
 Center     Atomic      Atomic             Coordinates (Angstroms)
 Number     Number       Type             X           Y           Z
 ---------------------------------------------------------------------
      1          6           0        2.624823   -2.555140    0.712703
      2          6           0        2.750303   -2.230283   -0.642009
      3          6           0        2.576108   -0.912514   -1.075239
      4          6           0        2.275854    0.059664   -0.122345
      5          6           0        2.144346   -0.232563    1.234342
      6          6           0        2.322778   -1.557003    1.644911
      7          1           0        2.761787   -3.581406    1.040445
      8          1           0        2.984812   -3.003388   -1.368204
      9          1           0        2.667524   -0.633281   -2.117876
     10          1           0        1.909912    0.559831    1.934750
     11          1           0        2.224728   -1.806384    2.697641
     12          7           0        2.089199    1.458259   -0.568992
     13          8           0        1.825236    2.296408    0.290348
     14          8           0        2.210397    1.689845   -1.769956
     15          6           0       -3.003247    0.980736    0.051513
     16          6           0       -1.754406    1.679399    0.590263
     17          6           0       -1.871201    3.203656    0.562080
     18          1           0       -3.188298    1.316753   -0.977950
     19          1           0       -3.874263    1.293677    0.643791
     20          1           0       -0.885786    1.364169   -0.001976
     21          1           0       -1.572196    1.341535    1.618496
     22          1           0       -2.719919    3.536266    1.168422
     23          1           0       -2.029609    3.559028   -0.461258
     24          1           0       -0.967548    3.682810    0.951546
     25          6           0       -2.901693   -0.543384    0.073242
     26          6           0       -4.150534   -1.242046   -0.465508
     27          6           0       -4.033739   -2.766304   -0.437324
     28          1           0       -2.030676   -0.856324   -0.519035
     29          1           0       -2.716641   -0.879401    1.102705
     30          1           0       -4.332744   -0.904182   -1.493741
     31          1           0       -5.019153   -0.926817    0.126731
     32          1           0       -3.875331   -3.121675    0.586012
     33          1           0       -3.185022   -3.098913   -1.043667
     34          1           0       -4.937391   -3.245457   -0.826792
 ---------------------------------------------------------------------

 SCF Done:  E(RHF) =  -669.535868008     A.U. after   15 cycles
 E2 =    -0.2092474251D+01 EUMP2 =    -0.67162834225936D+03

 The electronic state is 1-A.
 Alpha  occ. eigenvalues --  -20.60915 -20.60905 -15.85930 -11.31247 -11.27817
 Alpha  occ. eigenvalues --  -11.27804 -11.27548 -11.26816 -11.26802 -11.21476
 Alpha  occ. eigenvalues --  -11.21173 -11.21079 -11.20966 -11.20902 -11.20063
 Alpha  occ. eigenvalues --   -1.59973  -1.39527  -1.19416  -1.08824  -1.08076
 Alpha  occ. eigenvalues --   -1.04809  -1.03097  -0.95672  -0.95531  -0.86560
 Alpha  occ. eigenvalues --   -0.86211  -0.82501  -0.79210  -0.77888  -0.77544
 Alpha  occ. eigenvalues --   -0.72163  -0.71307  -0.70524  -0.65073  -0.64814
 Alpha  occ. eigenvalues --   -0.64710  -0.62158  -0.60501  -0.58940  -0.57115
 Alpha  occ. eigenvalues --   -0.55316  -0.54846  -0.53141  -0.52903  -0.52196
 Alpha  occ. eigenvalues --   -0.51964  -0.49511  -0.48927  -0.48914  -0.47505
 Alpha  occ. eigenvalues --   -0.46287  -0.45509  -0.45375  -0.44729  -0.43345
 Alpha  occ. eigenvalues --   -0.37389  -0.36404
 Alpha virt. eigenvalues --    0.04950   0.11227   0.16424   0.21317   0.23127
 Alpha virt. eigenvalues --    0.24679   0.26756   0.27122   0.27578   0.28204
 Alpha virt. eigenvalues --    0.28669   0.30810   0.31562   0.31842   0.32371

 Mulliken charges:
               1
     1  C   -0.170258
     2  C   -0.218693
     3  C   -0.171356
     4  C    0.155959
     5  C   -0.169434
     6  C   -0.218455
     7  H    0.225942
     8  H    0.223621
     9  H    0.275571
    10  H    0.276075
    11  H    0.223681
    12  N    0.488740
    13  O   -0.458028
    14  O   -0.459040
    15  C   -0.298672
    16  C   -0.295385
    17  C   -0.477063
    18  H    0.150962
    19  H    0.147814
    20  H    0.151113
    21  H    0.144075
    22  H    0.147819
    23  H    0.156058
    24  H    0.175521
    25  C   -0.297185
    26  C   -0.299210
    27  C   -0.475091
    28  H    0.147860
    29  H    0.146002
    30  H    0.152831
    31  H    0.151938
    32  H    0.153133
    33  H    0.153271
    34  H    0.159889
 Sum of Mulliken charges =  -0.00000

 Dipole moment (field-independent basis, Debye):
    X=              0.8321    Y=             -4.8137    Z=              1.5496  Tot=              5.1249
 Quadrupole moment (field-independent basis, Debye-Ang):
   XX=            -92.7487   YY=            -96.4903   ZZ=            -89.8799
   XY=            -11.7551   XZ=              2.3670   YZ=              2.0655

 Normal termination of Gaussian 16 at Wed May  5 23:55:27 2021.
