 Gaussian 16, Revision A.03,
 Gaussian 16:  EM64L-G16RevA.03 25-Dec-2016

 -------------
 #p 6-31g* mp2
 -------------

 ------------------------------------------------------
 Input file generated by CHIRIPA (05-May-2021 14:51:07)
 ------------------------------------------------------
 Symbolic Z-matrix:
 Charge =  0 Multiplicity = 1

                         Standard orientation:
 ---------------------------------------------------------------------
 Center     Atomic      Atomic             Coordinates (Angstroms)
 Number     Number       Type             X           Y           Z
 ---------------------------------------------------------------------
      1          6           0        3.777693    0.618624    0.216587
      2          6           0        3.294870    1.848309   -0.553309
      3          6           0        2.152079    2.577458    0.153915
      4          1           0        2.934338   -0.070625    0.360233
      5          1           0        4.103494    0.927223    1.219590
      6          1           0        2.971371    1.537686   -1.555047
      7          1           0        4.139516    2.534623   -0.695306
      8          1           0        2.466549    2.915201    1.146709
      9          1           0        1.291767    1.912599    0.282083
     10          1           0        1.822437    3.453233   -0.413724
     11          6           0        4.919902   -0.120932   -0.477778
     12          6           0        5.402725   -1.350618    0.292118
     13          6           0        6.545515   -2.079766   -0.415106
     14          1           0        4.594101   -0.429531   -1.480781
     15          1           0        5.763257    0.568316   -0.621424
     16          1           0        4.558079   -2.036931    0.434114
     17          1           0        5.726223   -1.039994    1.293856
     18          1           0        7.405828   -1.414908   -0.543274
     19          1           0        6.231046   -2.417509   -1.407900
     20          1           0        6.875158   -2.955541    0.152533
     21          6           0       -3.736246   -0.534535    0.486397
     22          6           0       -2.499324    0.357404    0.374809
     23          6           0       -1.282053   -0.227593    1.091623
     24          1           0       -3.973675   -0.690209    1.547687
     25          1           0       -3.504719   -1.524448    0.069430
     26          1           0       -2.733541    1.345773    0.790604
     27          1           0       -2.264926    0.511131   -0.686343
     28          1           0       -1.020485   -1.204373    0.671999
     29          1           0       -1.491763   -0.364987    2.157337
     30          1           0       -0.409157    0.426136    0.999150
     31          6           0       -4.961348    0.036843   -0.225206
     32          6           0       -6.198271   -0.855097   -0.113618
     33          6           0       -7.415542   -0.270098   -0.830433
     34          1           0       -5.192876    1.026757    0.191762
     35          1           0       -4.723920    0.192517   -1.286497
     36          1           0       -6.432669   -1.008822    0.947534
     37          1           0       -5.964053   -1.843464   -0.529412
     38          1           0       -7.205831   -0.132704   -1.896146
     39          1           0       -7.677110    0.706681   -0.410808
     40          1           0       -8.288438   -0.923828   -0.737959
 ---------------------------------------------------------------------

 SCF Done:  E(RHF) =  -470.733363783     A.U. after   11 cycles
 E2 =    -0.1582319128D+01 EUMP2 =    -0.47231568291079D+03

 The electronic state is 1-A.
 Alpha  occ. eigenvalues --  -11.21615 -11.21606 -11.21598 -11.21585 -11.21413
 Alpha  occ. eigenvalues --  -11.21389 -11.21353 -11.21330 -11.21092 -11.21074
 Alpha  occ. eigenvalues --  -11.21072 -11.21059  -1.08440  -1.08417  -1.03549
 Alpha  occ. eigenvalues --   -1.03515  -0.96012  -0.95956  -0.87038  -0.86964
 Alpha  occ. eigenvalues --   -0.79624  -0.79564  -0.78250  -0.78228  -0.65069
 Alpha  occ. eigenvalues --   -0.65050  -0.60954  -0.60929  -0.59426  -0.59294
 Alpha  occ. eigenvalues --   -0.57703  -0.57497  -0.55279  -0.55263  -0.52770
 Alpha  occ. eigenvalues --   -0.52666  -0.52478  -0.52273  -0.49931  -0.49902
 Alpha  occ. eigenvalues --   -0.48002  -0.47817  -0.46635  -0.46606  -0.45795
 Alpha  occ. eigenvalues --   -0.45768  -0.45717  -0.45693  -0.43786  -0.43758
 Alpha virt. eigenvalues --    0.21429   0.23024   0.23439   0.24890   0.26134
 Alpha virt. eigenvalues --    0.26651   0.27077   0.27443   0.27859   0.28775
 Alpha virt. eigenvalues --    0.30235   0.31401   0.31763   0.31893   0.31981

 Mulliken charges:
               1
     1  C   -0.299049
     2  C   -0.299098
     3  C   -0.483704
     4  H    0.150556
     5  H    0.149529
     6  H    0.151831
     7  H    0.151986
     8  H    0.155423
     9  H    0.162057
    10  H    0.160590
    11  C   -0.298296
    12  C   -0.299683
    13  C   -0.475703
    14  H    0.149450
    15  H    0.149607
    16  H    0.152157
    17  H    0.151948
    18  H    0.155127
    19  H    0.155116
    20  H    0.160239
    21  C   -0.298409
    22  C   -0.298979
    23  C   -0.484469
    24  H    0.149768
    25  H    0.149428
    26  H    0.152412
    27  H    0.151832
    28  H    0.154858
    29  H    0.155873
    30  H    0.167429
    31  C   -0.298272
    32  C   -0.299664
    33  C   -0.475714
    34  H    0.149649
    35  H    0.149639
    36  H    0.151975
    37  H    0.151893
    38  H    0.155173
    39  H    0.155229
    40  H    0.160264
 Sum of Mulliken charges =  -0.00000

 Dipole moment (field-independent basis, Debye):
    X=             -0.0069    Y=              0.0042    Z=              0.0061  Tot=              0.0101
 Quadrupole moment (field-independent basis, Debye-Ang):
   XX=            -85.8743   YY=            -84.7189   ZZ=            -84.1527
   XY=              1.0561   XZ=             -0.0275   YZ=              0.6208

 Normal termination of Gaussian 16 at Thu May  6 08:24:25 2021.
