 Gaussian 16, Revision A.03,
 Gaussian 16:  EM64L-G16RevA.03 25-Dec-2016

 -------------
 #p 6-31g* mp2
 -------------

 ------------------------------------------------------
 Input file generated by CHIRIPA (05-May-2021 14:51:09)
 ------------------------------------------------------
 Symbolic Z-matrix:
 Charge =  0 Multiplicity = 1

                         Standard orientation:
 ---------------------------------------------------------------------
 Center     Atomic      Atomic             Coordinates (Angstroms)
 Number     Number       Type             X           Y           Z
 ---------------------------------------------------------------------
      1          6           0       -4.454871   -0.285769   -0.242404
      2          6           0       -4.282378   -1.766088    0.099484
      3          6           0       -5.596415   -2.545035    0.033589
      4          1           0       -5.182762    0.161174    0.448509
      5          1           0       -4.884730   -0.196945   -1.249740
      6          1           0       -3.851685   -1.852069    1.105331
      7          1           0       -3.554669   -2.209515   -0.592201
      8          1           0       -6.027506   -2.488983   -0.971209
      9          1           0       -6.326210   -2.129507    0.735967
     10          1           0       -5.450050   -3.600951    0.281540
     11          6           0       -3.150013    0.506245   -0.180866
     12          6           0       -3.322506    1.986564   -0.522754
     13          6           0       -2.008469    2.765511   -0.456859
     14          1           0       -2.720154    0.417420    0.826470
     15          1           0       -2.422121    0.059302   -0.871779
     16          1           0       -4.050215    2.429990    0.168931
     17          1           0       -3.753198    2.072545   -1.528601
     18          1           0       -1.278673    2.349982   -1.159238
     19          1           0       -1.577377    2.709459    0.547939
     20          1           0       -2.154834    3.821426   -0.704810
     21          6           0        3.334051    0.106575    0.774693
     22          6           0        1.903141    0.371071    0.305089
     23          6           0        0.978052    0.803963    1.442897
     24          1           0        3.320351   -0.668561    1.553101
     25          1           0        3.731830    1.015943    1.246093
     26          1           0        1.508667   -0.538097   -0.166524
     27          1           0        1.920270    1.145532   -0.472428
     28          1           0        1.345183    1.724045    1.909015
     29          1           0        0.931242    0.030850    2.216658
     30          1           0       -0.039761    0.987752    1.084932
     31          6           0        4.270833   -0.327051   -0.351422
     32          6           0        5.701742   -0.591546    0.118181
     33          6           0        6.626832   -1.024439   -1.019627
     34          1           0        3.873054   -1.236418   -0.822823
     35          1           0        4.284533    0.448085   -1.129831
     36          1           0        5.684615   -1.366008    0.895698
     37          1           0        6.096218    0.317621    0.589793
     38          1           0        6.673643   -0.251326   -1.793388
     39          1           0        6.259701   -1.944520   -1.485745
     40          1           0        7.644645   -1.208228   -0.661663
 ---------------------------------------------------------------------

 SCF Done:  E(RHF) =  -470.732867989     A.U. after   11 cycles
 E2 =    -0.1583058395D+01 EUMP2 =    -0.47231592638432D+03

 The electronic state is 1-A.
 Alpha  occ. eigenvalues --  -11.21621 -11.21612 -11.21577 -11.21539 -11.21430
 Alpha  occ. eigenvalues --  -11.21369 -11.21365 -11.21304 -11.21080 -11.21065
 Alpha  occ. eigenvalues --  -11.21053 -11.20919  -1.08457  -1.08383  -1.03564
 Alpha  occ. eigenvalues --   -1.03463  -0.96018  -0.95907  -0.87042  -0.86922
 Alpha  occ. eigenvalues --   -0.79646  -0.79515  -0.78272  -0.78200  -0.65085
 Alpha  occ. eigenvalues --   -0.65016  -0.60957  -0.60874  -0.59556  -0.59163
 Alpha  occ. eigenvalues --   -0.57724  -0.57415  -0.55303  -0.55198  -0.52766
 Alpha  occ. eigenvalues --   -0.52671  -0.52423  -0.52248  -0.49969  -0.49835
 Alpha  occ. eigenvalues --   -0.48024  -0.47744  -0.46650  -0.46564  -0.45791
 Alpha  occ. eigenvalues --   -0.45760  -0.45712  -0.45667  -0.43809  -0.43659
 Alpha virt. eigenvalues --    0.21676   0.23079   0.23429   0.25149   0.26153
 Alpha virt. eigenvalues --    0.26579   0.26865   0.27643   0.27761   0.29212
 Alpha virt. eigenvalues --    0.30359   0.31275   0.31471   0.31892   0.32224

 Mulliken charges:
               1
     1  C   -0.298186
     2  C   -0.299701
     3  C   -0.475733
     4  H    0.149774
     5  H    0.149681
     6  H    0.152143
     7  H    0.151906
     8  H    0.155194
     9  H    0.155233
    10  H    0.160278
    11  C   -0.301185
    12  C   -0.299560
    13  C   -0.480079
    14  H    0.151543
    15  H    0.150033
    16  H    0.151989
    17  H    0.151971
    18  H    0.155928
    19  H    0.159155
    20  H    0.160557
    21  C   -0.298333
    22  C   -0.299144
    23  C   -0.484780
    24  H    0.149533
    25  H    0.149471
    26  H    0.151437
    27  H    0.151873
    28  H    0.153980
    29  H    0.153794
    30  H    0.171666
    31  C   -0.298203
    32  C   -0.299596
    33  C   -0.475674
    34  H    0.149321
    35  H    0.149526
    36  H    0.151885
    37  H    0.151910
    38  H    0.155128
    39  H    0.155097
    40  H    0.160170
 Sum of Mulliken charges =  -0.00000

 Dipole moment (field-independent basis, Debye):
    X=             -0.0464    Y=              0.0148    Z=             -0.0074  Tot=              0.0493
 Quadrupole moment (field-independent basis, Debye-Ang):
   XX=            -86.1394   YY=            -84.3435   ZZ=            -84.3284
   XY=             -0.1561   XZ=              0.2954   YZ=             -0.1959

 Normal termination of Gaussian 16 at Wed May  5 15:09:20 2021.
