 Gaussian 16, Revision A.03,
 Gaussian 16:  EM64L-G16RevA.03 25-Dec-2016

 -------------
 #p 6-31g* mp2
 -------------

 ------------------------------------------------------
 Input file generated by CHIRIPA (05-May-2021 14:51:11)
 ------------------------------------------------------
 Symbolic Z-matrix:
 Charge =  0 Multiplicity = 1

                         Standard orientation:
 ---------------------------------------------------------------------
 Center     Atomic      Atomic             Coordinates (Angstroms)
 Number     Number       Type             X           Y           Z
 ---------------------------------------------------------------------
      1          6           0       -2.870295   -0.792388    0.219750
      2          6           0       -1.488481   -0.292501    0.642466
      3          6           0       -0.464350   -1.420923    0.767428
      4          1           0       -3.224959   -1.532104    0.950488
      5          1           0       -2.784072   -1.318605   -0.741008
      6          1           0       -1.577512    0.233818    1.601464
      7          1           0       -1.137147    0.446252   -0.089261
      8          1           0       -0.346103   -1.941443   -0.188437
      9          1           0       -0.788970   -2.155084    1.511894
     10          1           0        0.516370   -1.041248    1.070570
     11          6           0       -3.905004    0.324037    0.090526
     12          6           0       -5.286819   -0.175849   -0.332190
     13          6           0       -6.310949    0.952572   -0.457152
     14          1           0       -3.991227    0.850255    1.051284
     15          1           0       -3.550340    1.063753   -0.640213
     16          1           0       -5.638152   -0.914603    0.399537
     17          1           0       -5.197787   -0.702169   -1.291188
     18          1           0       -5.986329    1.686733   -1.201618
     19          1           0       -6.429197    1.473092    0.498713
     20          1           0       -7.291669    0.572898   -0.760295
     21          6           0        3.136816    0.911141   -0.404601
     22          6           0        3.655892    2.090821    0.418139
     23          6           0        3.145372    3.438299   -0.093196
     24          1           0        3.435675    1.044051   -1.453392
     25          1           0        2.038125    0.917742   -0.389427
     26          1           0        4.753289    2.081192    0.402560
     27          1           0        3.355927    1.954991    1.465128
     28          1           0        2.051571    3.472997   -0.061630
     29          1           0        3.456874    3.599915   -1.130235
     30          1           0        3.528643    4.267702    0.509345
     31          6           0        3.638483   -0.442791    0.094325
     32          6           0        3.119407   -1.622471   -0.728414
     33          6           0        3.629928   -2.969949   -0.217080
     34          1           0        4.737174   -0.449392    0.079151
     35          1           0        3.339623   -0.575700    1.143116
     36          1           0        3.419373   -1.486640   -1.775404
     37          1           0        2.022010   -1.612843   -0.712837
     38          1           0        3.318425   -3.131565    0.819959
     39          1           0        4.723729   -3.004646   -0.248646
     40          1           0        3.246657   -3.799352   -0.819621
 ---------------------------------------------------------------------

 SCF Done:  E(RHF) =  -470.732400914     A.U. after   11 cycles
 E2 =    -0.1583803534D+01 EUMP2 =    -0.47231620444842D+03

 The electronic state is 1-A.
 Alpha  occ. eigenvalues --  -11.21702 -11.21637 -11.21584 -11.21465 -11.21411
 Alpha  occ. eigenvalues --  -11.21402 -11.21366 -11.21304 -11.21165 -11.21097
 Alpha  occ. eigenvalues --  -11.21058 -11.20975  -1.08500  -1.08377  -1.03615
 Alpha  occ. eigenvalues --   -1.03455  -0.96058  -0.95927  -0.87100  -0.86924
 Alpha  occ. eigenvalues --   -0.79717  -0.79490  -0.78304  -0.78194  -0.65197
 Alpha  occ. eigenvalues --   -0.65005  -0.61099  -0.60830  -0.59390  -0.59277
 Alpha  occ. eigenvalues --   -0.57671  -0.57525  -0.55362  -0.55206  -0.52784
 Alpha  occ. eigenvalues --   -0.52598  -0.52469  -0.52345  -0.50096  -0.49798
 Alpha  occ. eigenvalues --   -0.47981  -0.47847  -0.46832  -0.46413  -0.45877
 Alpha  occ. eigenvalues --   -0.45762  -0.45727  -0.45565  -0.43808  -0.43721
 Alpha virt. eigenvalues --    0.20389   0.23016   0.24013   0.24377   0.26151
 Alpha virt. eigenvalues --    0.26457   0.27155   0.27252   0.27867   0.29477
 Alpha virt. eigenvalues --    0.30789   0.31096   0.31743   0.31830   0.32335

 Mulliken charges:
               1
     1  C   -0.298762
     2  C   -0.301095
     3  C   -0.482174
     4  H    0.149997
     5  H    0.150025
     6  H    0.152277
     7  H    0.152636
     8  H    0.157247
     9  H    0.156035
    10  H    0.165551
    11  C   -0.298396
    12  C   -0.299718
    13  C   -0.475757
    14  H    0.149620
    15  H    0.149828
    16  H    0.152012
    17  H    0.152052
    18  H    0.155289
    19  H    0.155230
    20  H    0.160392
    21  C   -0.301202
    22  C   -0.299369
    23  C   -0.475738
    24  H    0.149747
    25  H    0.151519
    26  H    0.152012
    27  H    0.151675
    28  H    0.155183
    29  H    0.155076
    30  H    0.160211
    31  C   -0.299166
    32  C   -0.308093
    33  C   -0.475216
    34  H    0.149812
    35  H    0.148673
    36  H    0.150649
    37  H    0.162639
    38  H    0.155073
    39  H    0.154613
    40  H    0.159610
 Sum of Mulliken charges =  -0.00000

 Dipole moment (field-independent basis, Debye):
    X=             -0.0713    Y=             -0.0079    Z=              0.0069  Tot=              0.0721
 Quadrupole moment (field-independent basis, Debye-Ang):
   XX=            -85.0479   YY=            -86.4078   ZZ=            -83.5186
   XY=              1.0739   XZ=             -0.9170   YZ=              0.1591

 Normal termination of Gaussian 16 at Thu May  6 02:15:24 2021.
