 Gaussian 16, Revision A.03,
 Gaussian 16:  EM64L-G16RevA.03 25-Dec-2016

 -------------
 #p 6-31g* mp2
 -------------

 ------------------------------------------------------
 Input file generated by CHIRIPA (05-May-2021 14:55:22)
 ------------------------------------------------------
 Symbolic Z-matrix:
 Charge =  0 Multiplicity = 1

                         Standard orientation:
 ---------------------------------------------------------------------
 Center     Atomic      Atomic             Coordinates (Angstroms)
 Number     Number       Type             X           Y           Z
 ---------------------------------------------------------------------
      1          6           0        0.557448   -0.856168    1.261595
      2          6           0        0.520702   -0.090868    0.091344
      3          6           0        1.704533    0.265592   -0.561365
      4          6           0        2.912960   -0.162208   -0.013659
      5          6           0        2.982364   -0.925577    1.150704
      6          6           0        1.785995   -1.270350    1.786615
      7          1           0       -0.367050   -1.128535    1.762111
      8          1           0       -0.431961    0.232191   -0.318669
      9          1           0        1.705022    0.857283   -1.468734
     10          1           0        3.947234   -1.232863    1.535436
     11          1           0        1.817566   -1.864773    2.695300
     12          7           0        4.172865    0.208973   -0.695761
     13          8           0        5.224650   -0.180377   -0.192978
     14          8           0        4.084737    0.882228   -1.720261
     15          6           0       -3.593540   -0.438580    0.077113
     16          6           0       -4.022121   -1.328411   -1.090150
     17          6           0       -4.279994   -2.774911   -0.667143
     18          1           0       -2.685744   -0.855902    0.533944
     19          1           0       -4.372346   -0.461712    0.851916
     20          1           0       -3.243365   -1.302515   -1.863122
     21          1           0       -4.928893   -0.908817   -1.544375
     22          1           0       -5.072015   -2.820280    0.087341
     23          1           0       -3.376911   -3.216215   -0.233217
     24          1           0       -4.585166   -3.393386   -1.516977
     25          6           0       -3.332059    1.010443   -0.329937
     26          6           0       -2.903478    1.900273    0.837326
     27          6           0       -2.645605    3.346773    0.414318
     28          1           0       -2.553252    1.033574   -1.104740
     29          1           0       -4.239855    1.427764   -0.786769
     30          1           0       -1.996705    1.480679    1.291551
     31          1           0       -3.682233    1.874377    1.610298
     32          1           0       -3.548689    3.788078   -0.019607
     33          1           0       -1.853583    3.392143   -0.340165
     34          1           0       -2.340434    3.965249    1.264153
 ---------------------------------------------------------------------

 SCF Done:  E(RHF) =  -669.534794168     A.U. after   15 cycles
 E2 =    -0.2093421963D+01 EUMP2 =    -0.67162821613058D+03

 The electronic state is 1-A.
 Alpha  occ. eigenvalues --  -20.60759 -20.60754 -15.85812 -11.31185 -11.27749
 Alpha  occ. eigenvalues --  -11.27741 -11.27482 -11.26765 -11.26710 -11.22652
 Alpha  occ. eigenvalues --  -11.22630 -11.22557 -11.22528 -11.21882 -11.21873
 Alpha  occ. eigenvalues --   -1.59835  -1.39388  -1.19353  -1.09564  -1.08743
 Alpha  occ. eigenvalues --   -1.04759  -1.04486  -0.96943  -0.95584  -0.87948
 Alpha  occ. eigenvalues --   -0.86161  -0.82416  -0.80555  -0.79381  -0.77470
 Alpha  occ. eigenvalues --   -0.72032  -0.71157  -0.70480  -0.66507  -0.65000
 Alpha  occ. eigenvalues --   -0.64553  -0.62182  -0.61760  -0.60296  -0.58548
 Alpha  occ. eigenvalues --   -0.56246  -0.55268  -0.53567  -0.53355  -0.53079
 Alpha  occ. eigenvalues --   -0.52828  -0.50873  -0.48865  -0.48786  -0.48778
 Alpha  occ. eigenvalues --   -0.47615  -0.46880  -0.46850  -0.44792  -0.44791
 Alpha  occ. eigenvalues --   -0.37326  -0.36350
 Alpha virt. eigenvalues --    0.05062   0.11170   0.16543   0.18457   0.22757
 Alpha virt. eigenvalues --    0.23270   0.24527   0.25359   0.26889   0.28521
 Alpha virt. eigenvalues --    0.30358   0.30612   0.30787   0.31152   0.31589

 Mulliken charges:
               1
     1  C   -0.177526
     2  C   -0.225111
     3  C   -0.173954
     4  C    0.158815
     5  C   -0.171018
     6  C   -0.218328
     7  H    0.228787
     8  H    0.237099
     9  H    0.275736
    10  H    0.275595
    11  H    0.223598
    12  N    0.488047
    13  O   -0.460434
    14  O   -0.460372
    15  C   -0.302370
    16  C   -0.299855
    17  C   -0.476226
    18  H    0.140312
    19  H    0.154890
    20  H    0.152466
    21  H    0.156231
    22  H    0.156670
    23  H    0.153659
    24  H    0.164501
    25  C   -0.305545
    26  C   -0.304472
    27  C   -0.475138
    28  H    0.143662
    29  H    0.158656
    30  H    0.147912
    31  H    0.156133
    32  H    0.158431
    33  H    0.154564
    34  H    0.164585
 Sum of Mulliken charges =  -0.00000

 Dipole moment (field-independent basis, Debye):
    X=             -4.6786    Y=             -1.2569    Z=              2.3782  Tot=              5.3968
 Quadrupole moment (field-independent basis, Debye-Ang):
   XX=           -117.6701   YY=            -94.3742   ZZ=            -92.6847
   XY=             -5.1764   XZ=              9.2289   YZ=             -2.0565

 Normal termination of Gaussian 16 at Thu May  6 10:55:46 2021.
