 Gaussian 16, Revision A.03,
 Gaussian 16:  EM64L-G16RevA.03 25-Dec-2016

 -------------
 #p 6-31g* mp2
 -------------

 ------------------------------------------------------
 Input file generated by CHIRIPA (05-May-2021 14:55:24)
 ------------------------------------------------------
 Symbolic Z-matrix:
 Charge =  0 Multiplicity = 1

                         Standard orientation:
 ---------------------------------------------------------------------
 Center     Atomic      Atomic             Coordinates (Angstroms)
 Number     Number       Type             X           Y           Z
 ---------------------------------------------------------------------
      1          6           0        1.369662    1.188702    0.146553
      2          6           0        2.361919    1.590058   -0.753924
      3          6           0        3.567944    0.888256   -0.840676
      4          6           0        3.749039   -0.215181   -0.008257
      5          6           0        2.779571   -0.639762    0.899021
      6          6           0        1.581282    0.077033    0.968703
      7          1           0        0.435797    1.739702    0.207314
      8          1           0        2.200323    2.453012   -1.393646
      9          1           0        4.353007    1.177178   -1.528875
     10          1           0        2.969649   -1.504037    1.523774
     11          1           0        0.812453   -0.236950    1.668961
     12          7           0        5.021709   -0.966083   -0.091062
     13          8           0        5.156778   -1.934801    0.653236
     14          8           0        5.860060   -0.571704   -0.898693
     15          6           0       -4.912885   -0.353335   -0.471459
     16          6           0       -5.950863   -1.210242    0.254003
     17          6           0       -6.708045   -2.146034   -0.688739
     18          1           0       -5.413942    0.236325   -1.251323
     19          1           0       -4.199856   -1.011562   -0.986943
     20          1           0       -6.660912   -0.550609    0.769105
     21          1           0       -5.447306   -1.797788    1.032358
     22          1           0       -6.015514   -2.827539   -1.193272
     23          1           0       -7.236016   -1.573274   -1.458020
     24          1           0       -7.444933   -2.749217   -0.149273
     25          6           0       -4.147691    0.587378    0.457661
     26          6           0       -3.109713    1.444285   -0.267801
     27          6           0       -2.352531    2.380077    0.674941
     28          1           0       -4.860720    1.245605    0.973145
     29          1           0       -3.646634   -0.002282    1.237525
     30          1           0       -3.613270    2.031831   -1.046157
     31          1           0       -2.399664    0.784652   -0.782903
     32          1           0       -1.824559    1.807317    1.444222
     33          1           0       -3.045062    3.061582    1.179473
     34          1           0       -1.615642    2.983260    0.135475
 ---------------------------------------------------------------------

 SCF Done:  E(RHF) =  -669.535264937     A.U. after   15 cycles
 E2 =    -0.2091373922D+01 EUMP2 =    -0.67162663885881D+03

 The electronic state is 1-A.
 Alpha  occ. eigenvalues --  -20.60711 -20.60706 -15.85765 -11.31111 -11.27691
 Alpha  occ. eigenvalues --  -11.27685 -11.27327 -11.26688 -11.26672 -11.22722
 Alpha  occ. eigenvalues --  -11.22537 -11.22279 -11.22166 -11.22056 -11.21521
 Alpha  occ. eigenvalues --   -1.59788  -1.39342  -1.19282  -1.09275  -1.08671
 Alpha  occ. eigenvalues --   -1.04689  -1.04419  -0.96894  -0.95508  -0.87909
 Alpha  occ. eigenvalues --   -0.86083  -0.82351  -0.80487  -0.79021  -0.77407
 Alpha  occ. eigenvalues --   -0.71983  -0.71111  -0.70411  -0.65904  -0.64931
 Alpha  occ. eigenvalues --   -0.64702  -0.62049  -0.61809  -0.60336  -0.58470
 Alpha  occ. eigenvalues --   -0.56278  -0.55082  -0.53529  -0.53285  -0.53014
 Alpha  occ. eigenvalues --   -0.52779  -0.50800  -0.48799  -0.48739  -0.48734
 Alpha  occ. eigenvalues --   -0.47507  -0.46575  -0.46464  -0.44752  -0.44646
 Alpha  occ. eigenvalues --   -0.37246  -0.36302
 Alpha virt. eigenvalues --    0.05129   0.11351   0.16598   0.19505   0.22560
 Alpha virt. eigenvalues --    0.23996   0.25308   0.26167   0.26550   0.27253
 Alpha virt. eigenvalues --    0.29543   0.29951   0.31002   0.31362   0.31673

 Mulliken charges:
               1
     1  C   -0.178627
     2  C   -0.221984
     3  C   -0.170528
     4  C    0.157907
     5  C   -0.170629
     6  C   -0.223443
     7  H    0.242635
     8  H    0.223167
     9  H    0.275258
    10  H    0.275185
    11  H    0.222477
    12  N    0.488026
    13  O   -0.460757
    14  O   -0.460663
    15  C   -0.299161
    16  C   -0.300229
    17  C   -0.476219
    18  H    0.151284
    19  H    0.150749
    20  H    0.152850
    21  H    0.152202
    22  H    0.156175
    23  H    0.156005
    24  H    0.162021
    25  C   -0.298534
    26  C   -0.302221
    27  C   -0.483866
    28  H    0.152144
    29  H    0.148439
    30  H    0.156711
    31  H    0.152250
    32  H    0.150526
    33  H    0.165713
    34  H    0.155137
 Sum of Mulliken charges =  -0.00000

 Dipole moment (field-independent basis, Debye):
    X=             -4.7970    Y=              2.6574    Z=              0.2699  Tot=              5.4906
 Quadrupole moment (field-independent basis, Debye-Ang):
   XX=           -127.4269   YY=            -94.2741   ZZ=            -92.9620
   XY=             11.0374   XZ=             -0.4039   YZ=             -3.1756

 Normal termination of Gaussian 16 at Thu May  6 14:19:45 2021.
