 Gaussian 16, Revision A.03,
 Gaussian 16:  EM64L-G16RevA.03 25-Dec-2016

 -------------
 #p 6-31g* mp2
 -------------

 ------------------------------------------------------
 Input file generated by CHIRIPA (05-May-2021 14:53:16)
 ------------------------------------------------------
 Symbolic Z-matrix:
 Charge =  0 Multiplicity = 1

                         Standard orientation:
 ---------------------------------------------------------------------
 Center     Atomic      Atomic             Coordinates (Angstroms)
 Number     Number       Type             X           Y           Z
 ---------------------------------------------------------------------
      1          6           0       -4.976511   -0.475328    0.271100
      2          6           0       -5.844574    0.430810   -0.602608
      3          6           0       -7.329893    0.075331   -0.530115
      4          1           0       -5.120591   -1.519610   -0.038194
      5          1           0       -5.320308   -0.407517    1.312542
      6          1           0       -5.498357    0.362369   -1.641870
      7          1           0       -5.698265    1.473073   -0.291324
      8          1           0       -7.697009    0.161893    0.497666
      9          1           0       -7.495965   -0.955121   -0.860553
     10          1           0       -7.932006    0.735501   -1.162171
     11          6           0       -3.489135   -0.132384    0.209220
     12          6           0       -2.621072   -1.038522    1.082929
     13          6           0       -1.135753   -0.683043    1.010435
     14          1           0       -3.145338   -0.200195   -0.832221
     15          1           0       -3.345055    0.911897    0.518514
     16          1           0       -2.767381   -2.080785    0.771645
     17          1           0       -2.967288   -0.970082    2.122191
     18          1           0       -0.969681    0.347409    1.340874
     19          1           0       -0.768637   -0.769606   -0.017346
     20          1           0       -0.533640   -1.343214    1.642491
     21          6           0        1.805722    2.264894   -0.147249
     22          6           0        3.031070    2.287621    0.526937
     23          6           0        3.870861    1.170010    0.511357
     24          6           0        3.452021    0.041376   -0.191528
     25          6           0        2.237102   -0.012062   -0.873003
     26          6           0        1.413341    1.117148   -0.843839
     27          1           0        1.159577    3.137586   -0.129870
     28          1           0        3.338379    3.177598    1.068737
     29          1           0        4.824713    1.160433    1.024673
     30          1           0        1.957953   -0.913750   -1.404466
     31          1           0        0.462267    1.096649   -1.368324
     32          7           0        4.332585   -1.147929   -0.215212
     33          8           0        3.940629   -2.130002   -0.841743
     34          8           0        5.398054   -1.075513    0.393202
 ---------------------------------------------------------------------

 SCF Done:  E(RHF) =  -669.534774707     A.U. after   15 cycles
 E2 =    -0.2092038111D+01 EUMP2 =    -0.67162681281824D+03

 The electronic state is 1-A.
 Alpha  occ. eigenvalues --  -20.60731 -20.60726 -15.85784 -11.31144 -11.27693
 Alpha  occ. eigenvalues --  -11.27689 -11.27436 -11.26732 -11.26707 -11.22025
 Alpha  occ. eigenvalues --  -11.22010 -11.21931 -11.21792 -11.21549 -11.21400
 Alpha  occ. eigenvalues --   -1.59806  -1.39360  -1.19311  -1.08890  -1.08709
 Alpha  occ. eigenvalues --   -1.04723  -1.03955  -0.96416  -0.95545  -0.87438
 Alpha  occ. eigenvalues --   -0.86110  -0.82385  -0.80026  -0.78717  -0.77424
 Alpha  occ. eigenvalues --   -0.72003  -0.71128  -0.70421  -0.65522  -0.64967
 Alpha  occ. eigenvalues --   -0.64730  -0.62096  -0.61341  -0.59773  -0.58033
 Alpha  occ. eigenvalues --   -0.55718  -0.55215  -0.53350  -0.53047  -0.52826
 Alpha  occ. eigenvalues --   -0.52563  -0.50365  -0.48763  -0.48758  -0.48329
 Alpha  occ. eigenvalues --   -0.47062  -0.46251  -0.46180  -0.44767  -0.44216
 Alpha  occ. eigenvalues --   -0.37282  -0.36242
 Alpha virt. eigenvalues --    0.05086   0.11332   0.16522   0.20518   0.22584
 Alpha virt. eigenvalues --    0.23899   0.25676   0.26572   0.27243   0.28130
 Alpha virt. eigenvalues --    0.28756   0.30391   0.31435   0.31546   0.32126

 Mulliken charges:
               1
     1  C   -0.298343
     2  C   -0.299781
     3  C   -0.475941
     4  H    0.151557
     5  H    0.150952
     6  H    0.151269
     7  H    0.150867
     8  H    0.155920
     9  H    0.156314
    10  H    0.160828
    11  C   -0.297916
    12  C   -0.301080
    13  C   -0.472789
    14  H    0.145302
    15  H    0.146690
    16  H    0.154563
    17  H    0.153693
    18  H    0.152765
    19  H    0.146565
    20  H    0.166090
    21  C   -0.173396
    22  C   -0.218280
    23  C   -0.171611
    24  C    0.158097
    25  C   -0.170027
    26  C   -0.211767
    27  H    0.225212
    28  H    0.223131
    29  H    0.275285
    30  H    0.274877
    31  H    0.224016
    32  N    0.488076
    33  O   -0.460568
    34  O   -0.460572
 Sum of Mulliken charges =  -0.00000

 Dipole moment (field-independent basis, Debye):
    X=             -3.1744    Y=              4.1566    Z=              0.1401  Tot=              5.2320
 Quadrupole moment (field-independent basis, Debye-Ang):
   XX=           -115.3827   YY=            -93.3236   ZZ=            -93.1278
   XY=             16.2084   XZ=              2.8518   YZ=              1.2362

 Normal termination of Gaussian 16 at Wed May  5 17:12:57 2021.
