 Gaussian 16, Revision A.03,
 Gaussian 16:  EM64L-G16RevA.03 25-Dec-2016

 -------------
 #p 6-31g* mp2
 -------------

 ------------------------------------------------------
 Input file generated by CHIRIPA (05-May-2021 14:51:12)
 ------------------------------------------------------
 Symbolic Z-matrix:
 Charge =  0 Multiplicity = 1

                         Standard orientation:
 ---------------------------------------------------------------------
 Center     Atomic      Atomic             Coordinates (Angstroms)
 Number     Number       Type             X           Y           Z
 ---------------------------------------------------------------------
      1          6           0        3.039182    1.336811    0.068259
      2          6           0        1.637136    1.936624    0.179956
      3          6           0        1.650200    3.380485    0.682837
      4          1           0        3.528892    1.379985    1.050739
      5          1           0        3.642662    1.956596   -0.609291
      6          1           0        1.036062    1.315113    0.856012
      7          1           0        1.150636    1.891843   -0.802860
      8          1           0        2.226680    4.019052    0.005708
      9          1           0        2.111455    3.439046    1.674005
     10          1           0        0.637649    3.789599    0.755136
     11          6           0        3.042586   -0.106195   -0.433186
     12          6           0        4.444633   -0.706007   -0.544883
     13          6           0        4.431569   -2.149869   -1.047764
     14          1           0        2.439107   -0.725980    0.244364
     15          1           0        2.552877   -0.149369   -1.415666
     16          1           0        4.931133   -0.661227    0.437933
     17          1           0        5.045707   -0.084497   -1.220939
     18          1           0        3.970314   -2.208430   -2.038932
     19          1           0        3.855089   -2.788436   -0.370635
     20          1           0        5.444119   -2.558983   -1.120063
     21          6           0       -3.480150    0.000682    0.077419
     22          6           0       -4.654029   -0.246216   -0.870755
     23          6           0       -5.523570    0.995418   -1.070845
     24          1           0       -3.866388    0.339931    1.048334
     25          1           0       -2.864710    0.820636   -0.317934
     26          1           0       -5.266301   -1.066385   -0.474443
     27          1           0       -4.264961   -0.585101   -1.839465
     28          1           0       -4.932208    1.816634   -1.488574
     29          1           0       -5.939237    1.332616   -0.115795
     30          1           0       -6.356719    0.796532   -1.752142
     31          6           0       -2.601619   -1.231298    0.287508
     32          6           0       -1.427740   -0.984400    1.235682
     33          6           0       -0.558198   -2.226034    1.435772
     34          1           0       -3.217058   -2.051252    0.682861
     35          1           0       -2.215382   -1.570547   -0.683407
     36          1           0       -1.816807   -0.645515    2.204392
     37          1           0       -0.815468   -0.164232    0.839370
     38          1           0       -0.142532   -2.563232    0.480722
     39          1           0       -1.149559   -3.047250    1.853501
     40          1           0        0.274951   -2.027148    2.117069
 ---------------------------------------------------------------------

 SCF Done:  E(RHF) =  -470.733304902     A.U. after   11 cycles
 E2 =    -0.1583254407D+01 EUMP2 =    -0.47231655930860D+03

 The electronic state is 1-A.
 Alpha  occ. eigenvalues --  -11.21622 -11.21605 -11.21592 -11.21557 -11.21416
 Alpha  occ. eigenvalues --  -11.21388 -11.21354 -11.21329 -11.21092 -11.21090
 Alpha  occ. eigenvalues --  -11.21068 -11.21066  -1.08455  -1.08407  -1.03554
 Alpha  occ. eigenvalues --   -1.03514  -0.95992  -0.95973  -0.87020  -0.86979
 Alpha  occ. eigenvalues --   -0.79696  -0.79515  -0.78318  -0.78173  -0.65157
 Alpha  occ. eigenvalues --   -0.64976  -0.61010  -0.60861  -0.59398  -0.59309
 Alpha  occ. eigenvalues --   -0.57604  -0.57587  -0.55297  -0.55243  -0.52695
 Alpha  occ. eigenvalues --   -0.52667  -0.52430  -0.52389  -0.50005  -0.49858
 Alpha  occ. eigenvalues --   -0.48112  -0.47803  -0.46839  -0.46437  -0.45974
 Alpha  occ. eigenvalues --   -0.45761  -0.45733  -0.45357  -0.43795  -0.43775
 Alpha virt. eigenvalues --    0.20879   0.23168   0.23891   0.23924   0.26047
 Alpha virt. eigenvalues --    0.26486   0.27153   0.27608   0.28100   0.29590
 Alpha virt. eigenvalues --    0.30696   0.31396   0.31700   0.31837   0.32036

 Mulliken charges:
               1
     1  C   -0.297577
     2  C   -0.307380
     3  C   -0.475115
     4  H    0.149572
     5  H    0.149598
     6  H    0.159806
     7  H    0.150927
     8  H    0.155223
     9  H    0.155279
    10  H    0.160364
    11  C   -0.301926
    12  C   -0.299509
    13  C   -0.475914
    14  H    0.153622
    15  H    0.148958
    16  H    0.151944
    17  H    0.151923
    18  H    0.154914
    19  H    0.155724
    20  H    0.160279
    21  C   -0.298469
    22  C   -0.299642
    23  C   -0.475699
    24  H    0.149511
    25  H    0.149773
    26  H    0.151913
    27  H    0.151912
    28  H    0.155135
    29  H    0.155153
    30  H    0.160217
    31  C   -0.297536
    32  C   -0.308760
    33  C   -0.476329
    34  H    0.149314
    35  H    0.149759
    36  H    0.151348
    37  H    0.160957
    38  H    0.156375
    39  H    0.155290
    40  H    0.159066
 Sum of Mulliken charges =  -0.00000

 Dipole moment (field-independent basis, Debye):
    X=              0.0097    Y=              0.0054    Z=              0.0026  Tot=              0.0113
 Quadrupole moment (field-independent basis, Debye-Ang):
   XX=            -85.0407   YY=            -86.3686   ZZ=            -83.4185
   XY=              0.9215   XZ=             -0.6178   YZ=             -0.6884

 Normal termination of Gaussian 16 at Wed May  5 15:18:35 2021.
