 Gaussian 16, Revision A.03,
 Gaussian 16:  EM64L-G16RevA.03 25-Dec-2016

 -------------
 #p 6-31g* mp2
 -------------

 ------------------------------------------------------
 Input file generated by CHIRIPA (05-May-2021 14:53:13)
 ------------------------------------------------------
 Symbolic Z-matrix:
 Charge =  0 Multiplicity = 1

                         Standard orientation:
 ---------------------------------------------------------------------
 Center     Atomic      Atomic             Coordinates (Angstroms)
 Number     Number       Type             X           Y           Z
 ---------------------------------------------------------------------
      1          6           0        4.042670   -0.387305   -0.054413
      2          6           0        4.990495   -0.657676   -1.223391
      3          6           0        5.373887   -2.132843   -1.344580
      4          1           0        4.516374   -0.722348    0.878483
      5          1           0        3.135052   -0.993917   -0.179496
      6          1           0        5.895462   -0.049694   -1.096861
      7          1           0        4.514557   -0.321774   -2.153590
      8          1           0        4.483132   -2.751254   -1.495324
      9          1           0        5.871882   -2.477629   -0.432591
     10          1           0        6.051889   -2.303568   -2.186618
     11          6           0        3.650282    1.082985    0.079788
     12          6           0        2.702457    1.353356    1.248766
     13          6           0        2.319065    2.828523    1.369956
     14          1           0        4.557900    1.689597    0.204871
     15          1           0        3.176578    1.418028   -0.853108
     16          1           0        3.178395    1.017454    2.178965
     17          1           0        1.797490    0.745374    1.122236
     18          1           0        1.821070    3.173308    0.457966
     19          1           0        3.209820    3.446934    1.520699
     20          1           0        1.641063    2.999248    2.211993
     21          6           0       -1.856894   -1.945247    1.489104
     22          6           0       -3.170301   -2.171386    1.064432
     23          6           0       -3.816341   -1.250968    0.233763
     24          6           0       -3.116059   -0.109962   -0.154832
     25          6           0       -1.806902    0.143579    0.251509
     26          6           0       -1.180579   -0.790522    1.082005
     27          1           0       -1.362694   -2.665565    2.134320
     28          1           0       -3.697983   -3.067283    1.379017
     29          1           0       -4.832625   -1.401122   -0.109801
     30          1           0       -1.306660    1.045889   -0.078661
     31          1           0       -0.160517   -0.612290    1.410259
     32          7           0       -3.789556    0.871686   -1.034132
     33          8           0       -3.150845    1.869116   -1.362489
     34          8           0       -4.943401    0.625085   -1.378320
 ---------------------------------------------------------------------

 SCF Done:  E(RHF) =  -669.535533963     A.U. after   15 cycles
 E2 =    -0.2091199917D+01 EUMP2 =    -0.67162673388048D+03

 The electronic state is 1-A.
 Alpha  occ. eigenvalues --  -20.60753 -20.60748 -15.85806 -11.31168 -11.27738
 Alpha  occ. eigenvalues --  -11.27730 -11.27476 -11.26753 -11.26720 -11.22475
 Alpha  occ. eigenvalues --  -11.22046 -11.22003 -11.21943 -11.21670 -11.21462
 Alpha  occ. eigenvalues --   -1.59828  -1.39382  -1.19339  -1.09043  -1.08735
 Alpha  occ. eigenvalues --   -1.04744  -1.04114  -0.96528  -0.95571  -0.87544
 Alpha  occ. eigenvalues --   -0.86142  -0.82408  -0.80201  -0.78858  -0.77450
 Alpha  occ. eigenvalues --   -0.72024  -0.71152  -0.70448  -0.65701  -0.64991
 Alpha  occ. eigenvalues --   -0.64745  -0.62151  -0.61461  -0.59905  -0.58147
 Alpha  occ. eigenvalues --   -0.55804  -0.55243  -0.53229  -0.53073  -0.52961
 Alpha  occ. eigenvalues --   -0.52836  -0.50464  -0.48791  -0.48780  -0.48488
 Alpha  occ. eigenvalues --   -0.47236  -0.46384  -0.46304  -0.44788  -0.44362
 Alpha  occ. eigenvalues --   -0.37321  -0.36346
 Alpha virt. eigenvalues --    0.05082   0.11302   0.16567   0.19216   0.22726
 Alpha virt. eigenvalues --    0.23699   0.24832   0.26405   0.27282   0.28417
 Alpha virt. eigenvalues --    0.28835   0.30177   0.31181   0.31441   0.32411

 Mulliken charges:
               1
     1  C   -0.298436
     2  C   -0.300239
     3  C   -0.476090
     4  H    0.149523
     5  H    0.145569
     6  H    0.153551
     7  H    0.154309
     8  H    0.154810
     9  H    0.154937
    10  H    0.162380
    11  C   -0.298360
    12  C   -0.305475
    13  C   -0.477246
    14  H    0.153111
    15  H    0.152918
    16  H    0.153782
    17  H    0.142624
    18  H    0.158946
    19  H    0.159428
    20  H    0.161100
    21  C   -0.171600
    22  C   -0.218501
    23  C   -0.171089
    24  C    0.158612
    25  C   -0.173425
    26  C   -0.225823
    27  H    0.226260
    28  H    0.223314
    29  H    0.275534
    30  H    0.275323
    31  H    0.233196
    32  N    0.488131
    33  O   -0.460512
    34  O   -0.460561
 Sum of Mulliken charges =  -0.00000

 Dipole moment (field-independent basis, Debye):
    X=              2.5503    Y=             -3.3842    Z=              3.0649  Tot=              5.2298
 Quadrupole moment (field-independent basis, Debye-Ang):
   XX=           -105.1770   YY=            -93.5365   ZZ=            -96.1435
   XY=             14.1276   XZ=             -9.6060   YZ=              0.0726

 Normal termination of Gaussian 16 at Thu May  6 20:19:31 2021.
