 Gaussian 16, Revision A.03,
 Gaussian 16:  EM64L-G16RevA.03 25-Dec-2016

 -------------
 #p 6-31g* mp2
 -------------

 ------------------------------------------------------
 Input file generated by CHIRIPA (05-May-2021 14:57:22)
 ------------------------------------------------------
 Symbolic Z-matrix:
 Charge =  0 Multiplicity = 1

                         Standard orientation:
 ---------------------------------------------------------------------
 Center     Atomic      Atomic             Coordinates (Angstroms)
 Number     Number       Type             X           Y           Z
 ---------------------------------------------------------------------
      1          6           0        1.517448    2.573633    1.190445
      2          6           0        1.668229    1.389922    1.920250
      3          6           0        1.921292    0.180220    1.266702
      4          6           0        2.017851    0.190714   -0.123930
      5          6           0        1.872436    1.353483   -0.878987
      6          6           0        1.619852    2.551674   -0.204385
      7          1           0        1.321049    3.508888    1.706315
      8          1           0        1.589207    1.403982    3.003580
      9          1           0        2.042268   -0.750808    1.807044
     10          1           0        1.956540    1.307919   -1.958000
     11          1           0        1.503199    3.469425   -0.773745
     12          7           0        2.285503   -1.083851   -0.826957
     13          8           0        2.366071   -1.047970   -2.052868
     14          8           0        2.409654   -2.094602   -0.138766
     15          6           0       -1.072272   -2.425627    1.213577
     16          6           0       -1.000388   -2.351888   -0.181384
     17          6           0       -1.496686   -1.234784   -0.859850
     18          6           0       -2.060889   -0.205023   -0.108482
     19          6           0       -2.147039   -0.249047    1.282176
     20          6           0       -1.644360   -1.375822    1.939624
     21          1           0       -0.684257   -3.297177    1.732462
     22          1           0       -0.556631   -3.165684   -0.747831
     23          1           0       -1.453857   -1.151719   -1.939056
     24          1           0       -2.595033    0.577957    1.819561
     25          1           0       -1.701530   -1.430366    3.023046
     26          7           0       -2.589675    0.982724   -0.815618
     27          8           0       -3.081980    1.876630   -0.130633
     28          8           0       -2.501821    0.997285   -2.041468
 ---------------------------------------------------------------------

 SCF Done:  E(RHF) =  -868.339940244     A.U. after   16 cycles
 E2 =    -0.2604328858D+01 EUMP2 =    -0.87094426910224D+03

 The electronic state is 1-A.
 Alpha  occ. eigenvalues --  -20.61207 -20.61170 -20.60798 -20.60778 -15.86194
 Alpha  occ. eigenvalues --  -15.85836 -11.31272 -11.31046 -11.27877 -11.27768
 Alpha  occ. eigenvalues --  -11.27651 -11.27500 -11.27473 -11.27228 -11.26821
 Alpha  occ. eigenvalues --  -11.26695 -11.26654 -11.26374  -1.60252  -1.59869
 Alpha  occ. eigenvalues --   -1.39817  -1.39427  -1.19442  -1.19181  -1.08873
 Alpha  occ. eigenvalues --   -1.08601  -1.04794  -1.04561  -0.95761  -0.95464
 Alpha  occ. eigenvalues --   -0.86201  -0.85946  -0.82611  -0.82300  -0.77696
 Alpha  occ. eigenvalues --   -0.77376  -0.72453  -0.72058  -0.71594  -0.71174
 Alpha  occ. eigenvalues --   -0.70533  -0.70255  -0.65087  -0.64827  -0.64796
 Alpha  occ. eigenvalues --   -0.64514  -0.62153  -0.61882  -0.55299  -0.55020
 Alpha  occ. eigenvalues --   -0.53619  -0.52887  -0.52613  -0.52417  -0.49218
 Alpha  occ. eigenvalues --   -0.49180  -0.48822  -0.48800  -0.45307  -0.44873
 Alpha  occ. eigenvalues --   -0.37497  -0.37174  -0.36531  -0.35804
 Alpha virt. eigenvalues --    0.04682   0.05247   0.11265   0.11497   0.16199
 Alpha virt. eigenvalues --    0.16823   0.21263   0.21894   0.27196   0.27743
 Alpha virt. eigenvalues --    0.28233   0.28688   0.30884   0.31405   0.32476

 Mulliken charges:
               1
     1  C   -0.168989
     2  C   -0.220437
     3  C   -0.164999
     4  C    0.158189
     5  C   -0.172057
     6  C   -0.217879
     7  H    0.228062
     8  H    0.220233
     9  H    0.269468
    10  H    0.277995
    11  H    0.228968
    12  N    0.488874
    13  O   -0.460241
    14  O   -0.467021
    15  C   -0.170270
    16  C   -0.217412
    17  C   -0.181312
    18  C    0.161464
    19  C   -0.170130
    20  C   -0.222858
    21  H    0.229023
    22  H    0.238197
    23  H    0.279804
    24  H    0.271285
    25  H    0.219191
    26  N    0.488069
    27  O   -0.464621
    28  O   -0.460598
 Sum of Mulliken charges =  -0.00000

 Dipole moment (field-independent basis, Debye):
    X=              0.9981    Y=              0.2749    Z=              4.8094  Tot=              4.9195
 Quadrupole moment (field-independent basis, Debye-Ang):
   XX=           -118.1516   YY=            -99.5229   ZZ=            -98.7473
   XY=             17.0250   XZ=             -1.4200   YZ=             -0.4538

 Normal termination of Gaussian 16 at Wed May  5 16:18:33 2021.
