 Gaussian 16, Revision A.03,
 Gaussian 16:  EM64L-G16RevA.03 25-Dec-2016

 -------------
 #p 6-31g* mp2
 -------------

 ------------------------------------------------------
 Input file generated by CHIRIPA (05-May-2021 14:51:11)
 ------------------------------------------------------
 Symbolic Z-matrix:
 Charge =  0 Multiplicity = 1

                         Standard orientation:
 ---------------------------------------------------------------------
 Center     Atomic      Atomic             Coordinates (Angstroms)
 Number     Number       Type             X           Y           Z
 ---------------------------------------------------------------------
      1          6           0       -2.774638    0.800844   -0.102308
      2          6           0       -2.934593    2.309328    0.089725
      3          6           0       -1.594379    3.035198    0.211109
      4          1           0       -2.207730    0.388060    0.743368
      5          1           0       -2.172879    0.614641   -1.002647
      6          1           0       -3.537037    2.492604    0.988661
      7          1           0       -3.501352    2.718538   -0.756412
      8          1           0       -0.990283    2.881804   -0.688968
      9          1           0       -1.026170    2.654586    1.066020
     10          1           0       -1.732126    4.112330    0.347749
     11          6           0       -4.105677    0.061288   -0.225277
     12          6           0       -3.945722   -1.447196   -0.417309
     13          6           0       -5.285936   -2.173066   -0.538693
     14          1           0       -4.707436    0.247491    0.675062
     15          1           0       -4.672585    0.474072   -1.070953
     16          1           0       -3.378963   -1.856407    0.428827
     17          1           0       -3.343278   -1.630472   -1.316246
     18          1           0       -5.854145   -1.792454   -1.393605
     19          1           0       -5.890032   -2.019672    0.361383
     20          1           0       -5.148189   -3.250199   -0.675333
     21          6           0        2.685517   -0.326957    0.108023
     22          6           0        1.886508   -1.112482    1.148465
     23          6           0        0.378352   -0.893886    1.024079
     24          1           0        2.458830    0.742955    0.212169
     25          1           0        2.353234   -0.620444   -0.897387
     26          1           0        2.221166   -0.818611    2.151591
     27          1           0        2.115270   -2.180630    1.041957
     28          1           0        0.024217   -1.204895    0.035918
     29          1           0        0.130715    0.164864    1.151857
     30          1           0       -0.173521   -1.464695    1.777386
     31          6           0        4.194799   -0.535175    0.219562
     32          6           0        4.993806    0.250350   -0.820880
     33          6           0        6.501963    0.031754   -0.696494
     34          1           0        4.527082   -0.241688    1.224972
     35          1           0        4.421485   -1.605086    0.115416
     36          1           0        4.765045    1.318498   -0.714372
     37          1           0        4.659149   -0.043522   -1.824006
     38          1           0        6.749600   -1.026995   -0.824273
     39          1           0        6.856098    0.342763    0.291667
     40          1           0        7.053837    0.602563   -1.449801
 ---------------------------------------------------------------------

 SCF Done:  E(RHF) =  -470.732386583     A.U. after   11 cycles
 E2 =    -0.1583617787D+01 EUMP2 =    -0.47231600436958D+03

 The electronic state is 1-A.
 Alpha  occ. eigenvalues --  -11.21586 -11.21555 -11.21545 -11.21542 -11.21381
 Alpha  occ. eigenvalues --  -11.21322 -11.21300 -11.21189 -11.21078 -11.21059
 Alpha  occ. eigenvalues --  -11.21030 -11.21002  -1.08415  -1.08345  -1.03522
 Alpha  occ. eigenvalues --   -1.03467  -0.95988  -0.95904  -0.87027  -0.86912
 Alpha  occ. eigenvalues --   -0.79676  -0.79488  -0.78298  -0.78041  -0.65065
 Alpha  occ. eigenvalues --   -0.64966  -0.60978  -0.60819  -0.59357  -0.59279
 Alpha  occ. eigenvalues --   -0.57612  -0.57501  -0.55258  -0.55212  -0.52746
 Alpha  occ. eigenvalues --   -0.52616  -0.52487  -0.52232  -0.49934  -0.49865
 Alpha  occ. eigenvalues --   -0.48100  -0.47723  -0.46708  -0.46476  -0.45966
 Alpha  occ. eigenvalues --   -0.45712  -0.45597  -0.45282  -0.43751  -0.43703
 Alpha virt. eigenvalues --    0.21631   0.23025   0.23486   0.24602   0.25782
 Alpha virt. eigenvalues --    0.25953   0.26777   0.27404   0.28017   0.29708
 Alpha virt. eigenvalues --    0.30252   0.31410   0.31725   0.31861   0.32365

 Mulliken charges:
               1
     1  C   -0.304288
     2  C   -0.299396
     3  C   -0.477555
     4  H    0.161022
     5  H    0.148693
     6  H    0.151364
     7  H    0.151487
     8  H    0.155650
     9  H    0.155361
    10  H    0.160269
    11  C   -0.297742
    12  C   -0.300054
    13  C   -0.475613
    14  H    0.148838
    15  H    0.148888
    16  H    0.152839
    17  H    0.151213
    18  H    0.155043
    19  H    0.155043
    20  H    0.159956
    21  C   -0.298381
    22  C   -0.300729
    23  C   -0.479383
    24  H    0.150130
    25  H    0.149202
    26  H    0.151356
    27  H    0.151551
    28  H    0.157790
    29  H    0.159145
    30  H    0.158452
    31  C   -0.298216
    32  C   -0.299633
    33  C   -0.475686
    34  H    0.149467
    35  H    0.149571
    36  H    0.152054
    37  H    0.151794
    38  H    0.155125
    39  H    0.155173
    40  H    0.160200
 Sum of Mulliken charges =  -0.00000

 Dipole moment (field-independent basis, Debye):
    X=              0.0076    Y=              0.0016    Z=              0.0071  Tot=              0.0105
 Quadrupole moment (field-independent basis, Debye-Ang):
   XX=            -87.0772   YY=            -84.6827   ZZ=            -83.3670
   XY=             -0.4353   XZ=             -0.1066   YZ=              0.3346

 Normal termination of Gaussian 16 at Thu May  6 03:51:49 2021.
