 Gaussian 16, Revision A.03,
 Gaussian 16:  EM64L-G16RevA.03 25-Dec-2016

 -------------
 #p 6-31g* mp2
 -------------

 ------------------------------------------------------
 Input file generated by CHIRIPA (05-May-2021 14:53:13)
 ------------------------------------------------------
 Symbolic Z-matrix:
 Charge =  0 Multiplicity = 1

                         Standard orientation:
 ---------------------------------------------------------------------
 Center     Atomic      Atomic             Coordinates (Angstroms)
 Number     Number       Type             X           Y           Z
 ---------------------------------------------------------------------
      1          6           0       -2.995529    0.884727   -0.007839
      2          6           0       -3.656015    2.263694    0.005980
      3          6           0       -2.658260    3.394556    0.257834
      4          1           0       -2.486312    0.719468    0.951500
      5          1           0       -2.216385    0.866804   -0.782441
      6          1           0       -4.434623    2.278568    0.779391
      7          1           0       -4.163880    2.425611   -0.953432
      8          1           0       -1.887368    3.408364   -0.519427
      9          1           0       -2.159648    3.260486    1.223242
     10          1           0       -3.151724    4.371449    0.263630
     11          6           0       -3.980121   -0.256099   -0.258483
     12          6           0       -3.319635   -1.635067   -0.272302
     13          6           0       -4.317390   -2.765929   -0.524156
     14          1           0       -4.759266   -0.238176    0.516119
     15          1           0       -4.489338   -0.090840   -1.217823
     16          1           0       -2.811770   -1.796984    0.687110
     17          1           0       -2.541028   -1.649941   -1.045713
     18          1           0       -4.816002   -2.631858   -1.489564
     19          1           0       -5.088283   -2.779737    0.253105
     20          1           0       -3.823926   -3.742821   -0.529952
     21          6           0        0.560351   -0.957481    1.187532
     22          6           0        1.695755   -0.733180    1.973069
     23          6           0        2.900379   -0.338447    1.383480
     24          6           0        2.934121   -0.176732   -0.000717
     25          6           0        1.820010   -0.392552   -0.810328
     26          6           0        0.625986   -0.786753   -0.199214
     27          1           0       -0.371314   -1.263912    1.653899
     28          1           0        1.647708   -0.864994    3.050269
     29          1           0        3.794478   -0.158044    1.967825
     30          1           0        1.898754   -0.252981   -1.881653
     31          1           0       -0.254201   -0.960241   -0.811765
     32          7           0        4.203791    0.240872   -0.636282
     33          8           0        4.207474    0.376445   -1.857856
     34          8           0        5.171237    0.424710    0.099171
 ---------------------------------------------------------------------

 SCF Done:  E(RHF) =  -669.534944367     A.U. after   15 cycles
 E2 =    -0.2092951238D+01 EUMP2 =    -0.67162789560554D+03

 The electronic state is 1-A.
 Alpha  occ. eigenvalues --  -20.60694 -20.60689 -15.85746 -11.31089 -11.27656
 Alpha  occ. eigenvalues --  -11.27636 -11.27362 -11.26671 -11.26589 -11.22965
 Alpha  occ. eigenvalues --  -11.22414 -11.22353 -11.22286 -11.22068 -11.21592
 Alpha  occ. eigenvalues --   -1.59770  -1.39324  -1.19253  -1.09441  -1.08645
 Alpha  occ. eigenvalues --   -1.04654  -1.04445  -0.96846  -0.95491  -0.87867
 Alpha  occ. eigenvalues --   -0.86057  -0.82327  -0.80575  -0.79269  -0.77368
 Alpha  occ. eigenvalues --   -0.71964  -0.71093  -0.70364  -0.66090  -0.64900
 Alpha  occ. eigenvalues --   -0.64653  -0.62038  -0.61824  -0.60233  -0.58475
 Alpha  occ. eigenvalues --   -0.56116  -0.55161  -0.53555  -0.53293  -0.52951
 Alpha  occ. eigenvalues --   -0.52762  -0.50797  -0.48861  -0.48724  -0.48715
 Alpha  occ. eigenvalues --   -0.47604  -0.46730  -0.46647  -0.44735  -0.44706
 Alpha  occ. eigenvalues --   -0.37213  -0.36247
 Alpha virt. eigenvalues --    0.05136   0.11334   0.16571   0.19177   0.22672
 Alpha virt. eigenvalues --    0.23263   0.23634   0.25246   0.27179   0.28376
 Alpha virt. eigenvalues --    0.29499   0.30221   0.31101   0.31389   0.31724

 Mulliken charges:
               1
     1  C   -0.300893
     2  C   -0.300546
     3  C   -0.476117
     4  H    0.146473
     5  H    0.147919
     6  H    0.153313
     7  H    0.154226
     8  H    0.157494
     9  H    0.155555
    10  H    0.162942
    11  C   -0.298307
    12  C   -0.306411
    13  C   -0.475376
    14  H    0.152980
    15  H    0.153894
    16  H    0.146120
    17  H    0.148120
    18  H    0.159421
    19  H    0.158568
    20  H    0.162483
    21  C   -0.175654
    22  C   -0.219204
    23  C   -0.171147
    24  C    0.158933
    25  C   -0.173607
    26  C   -0.221688
    27  H    0.228537
    28  H    0.222876
    29  H    0.275089
    30  H    0.275189
    31  H    0.232354
    32  N    0.488010
    33  O   -0.460782
    34  O   -0.460765
 Sum of Mulliken charges =  -0.00000

 Dipole moment (field-independent basis, Debye):
    X=             -4.7478    Y=             -1.4118    Z=              2.2065  Tot=              5.4225
 Quadrupole moment (field-independent basis, Debye-Ang):
   XX=           -120.0585   YY=            -95.4748   ZZ=            -89.8793
   XY=             -3.9653   XZ=              8.8042   YZ=             -0.4959

 Normal termination of Gaussian 16 at Thu May  6 17:02:27 2021.
