 Gaussian 16, Revision A.03,
 Gaussian 16:  EM64L-G16RevA.03 25-Dec-2016

 -------------
 #p 6-31g* mp2
 -------------

 ------------------------------------------------------
 Input file generated by CHIRIPA (05-May-2021 14:57:21)
 ------------------------------------------------------
 Symbolic Z-matrix:
 Charge =  0 Multiplicity = 1

                         Standard orientation:
 ---------------------------------------------------------------------
 Center     Atomic      Atomic             Coordinates (Angstroms)
 Number     Number       Type             X           Y           Z
 ---------------------------------------------------------------------
      1          6           0       -6.347891    0.728854    0.219120
      2          6           0       -5.991641   -0.126304   -0.828883
      3          6           0       -4.693644   -0.638026   -0.917734
      4          6           0       -3.773036   -0.272169    0.063040
      5          6           0       -4.097514    0.577739    1.119288
      6          6           0       -5.401360    1.077532    1.188152
      7          1           0       -7.358478    1.121739    0.280379
      8          1           0       -6.724653   -0.398800   -1.582861
      9          1           0       -4.390968   -1.301921   -1.718389
     10          1           0       -3.344938    0.831385    1.855977
     11          1           0       -5.675211    1.741465    2.003164
     12          7           0       -2.395809   -0.807592   -0.020443
     13          8           0       -1.603219   -0.470081    0.856212
     14          8           0       -2.135007   -1.554628   -0.960952
     15          6           0        6.360141   -0.515438    0.476952
     16          6           0        5.298602   -1.399829    0.694914
     17          6           0        3.986863   -1.023009    0.391771
     18          6           0        3.771851    0.251536   -0.130333
     19          6           0        4.808424    1.155207   -0.358782
     20          6           0        6.112101    0.757014   -0.048274
     21          1           0        7.376000   -0.816462    0.715301
     22          1           0        5.488263   -2.388659    1.102702
     23          1           0        3.146467   -1.687796    0.550552
     24          1           0        4.588060    2.134323   -0.766446
     25          1           0        6.934558    1.445928   -0.218591
     26          7           0        2.387439    0.661772   -0.455156
     27          8           0        2.224439    1.790219   -0.914151
     28          8           0        1.491551   -0.152899   -0.244605
 ---------------------------------------------------------------------

 SCF Done:  E(RHF) =  -868.335168847     A.U. after   16 cycles
 E2 =    -0.2600342787D+01 EUMP2 =    -0.87093551163369D+03

 The electronic state is 1-A.
 Alpha  occ. eigenvalues --  -20.59605 -20.59564 -20.59493 -20.59452 -15.84602
 Alpha  occ. eigenvalues --  -15.84574 -11.30332 -11.30302 -11.26953 -11.26950
 Alpha  occ. eigenvalues --  -11.26939 -11.26874 -11.26771 -11.26752 -11.26056
 Alpha  occ. eigenvalues --  -11.26044 -11.26042 -11.26001  -1.58615  -1.58580
 Alpha  occ. eigenvalues --   -1.38159  -1.38127  -1.18540  -1.18518  -1.07873
 Alpha  occ. eigenvalues --   -1.07847  -1.04001  -1.03972  -0.94665  -0.94595
 Alpha  occ. eigenvalues --   -0.85384  -0.85354  -0.81499  -0.81421  -0.76461
 Alpha  occ. eigenvalues --   -0.76430  -0.70933  -0.70660  -0.69963  -0.69904
 Alpha  occ. eigenvalues --   -0.69656  -0.69626  -0.64194  -0.64155  -0.64013
 Alpha  occ. eigenvalues --   -0.63981  -0.61348  -0.61310  -0.54501  -0.54476
 Alpha  occ. eigenvalues --   -0.52307  -0.52288  -0.52105  -0.52069  -0.47819
 Alpha  occ. eigenvalues --   -0.47562  -0.47551  -0.47285  -0.43552  -0.43368
 Alpha  occ. eigenvalues --   -0.36544  -0.36528  -0.35621  -0.35593
 Alpha virt. eigenvalues --    0.06055   0.06145   0.12028   0.12055   0.17478
 Alpha virt. eigenvalues --    0.17565   0.22092   0.22140   0.27975   0.28027
 Alpha virt. eigenvalues --    0.29017   0.29084   0.31609   0.31661   0.33279

 Mulliken charges:
               1
     1  C   -0.172079
     2  C   -0.218522
     3  C   -0.171356
     4  C    0.160288
     5  C   -0.170704
     6  C   -0.218521
     7  H    0.222554
     8  H    0.220694
     9  H    0.274534
    10  H    0.275595
    11  H    0.220863
    12  N    0.488654
    13  O   -0.449815
    14  O   -0.461721
    15  C   -0.172093
    16  C   -0.218926
    17  C   -0.171457
    18  C    0.158643
    19  C   -0.171977
    20  C   -0.218786
    21  H    0.222424
    22  H    0.221542
    23  H    0.280788
    24  H    0.273526
    25  H    0.220204
    26  N    0.486017
    27  O   -0.469652
    28  O   -0.440716
 Sum of Mulliken charges =  -0.00000

 Dipole moment (field-independent basis, Debye):
    X=             -0.0290    Y=              0.3007    Z=              1.4906  Tot=              1.5209
 Quadrupole moment (field-independent basis, Debye-Ang):
   XX=            -35.1885   YY=           -102.4982   ZZ=           -102.3517
   XY=             -8.0817   XZ=              2.9772   YZ=              1.4000

 Normal termination of Gaussian 16 at Wed May  5 20:56:04 2021.
