 Gaussian 16, Revision A.03,
 Gaussian 16:  EM64L-G16RevA.03 25-Dec-2016

 -------------
 #p 6-31g* mp2
 -------------

 ------------------------------------------------------
 Input file generated by CHIRIPA (05-May-2021 14:53:18)
 ------------------------------------------------------
 Symbolic Z-matrix:
 Charge =  0 Multiplicity = 1

                         Standard orientation:
 ---------------------------------------------------------------------
 Center     Atomic      Atomic             Coordinates (Angstroms)
 Number     Number       Type             X           Y           Z
 ---------------------------------------------------------------------
      1          6           0       -3.616973   -0.750483    0.610509
      2          6           0       -2.200961   -0.303345    0.975147
      3          6           0       -1.480940   -1.301681    1.882169
      4          1           0       -4.197440   -0.895790    1.531861
      5          1           0       -3.568401   -1.729522    0.114002
      6          1           0       -2.252072    0.675195    1.469579
      7          1           0       -1.623854   -0.158901    0.052813
      8          1           0       -1.400469   -2.277907    1.393181
      9          1           0       -2.032256   -1.439072    2.817998
     10          1           0       -0.470478   -0.962253    2.130392
     11          6           0       -4.349630    0.237183   -0.295834
     12          6           0       -5.765643   -0.209956   -0.660473
     13          6           0       -6.485664    0.788381   -1.567494
     14          1           0       -4.398202    1.216221    0.200672
     15          1           0       -3.769164    0.382489   -1.217186
     16          1           0       -6.342749   -0.354400    0.261861
     17          1           0       -5.714532   -1.188496   -1.154905
     18          1           0       -5.934348    0.925771   -2.503323
     19          1           0       -6.566134    1.764607   -1.078507
     20          1           0       -7.496126    0.448952   -1.815718
     21          6           0        2.237006    2.428636    0.674472
     22          6           0        3.368217    2.373964   -0.146438
     23          6           0        3.861817    1.144975   -0.594203
     24          6           0        3.196541   -0.014899   -0.200009
     25          6           0        2.067277    0.006813    0.617047
     26          6           0        1.591285    1.246969    1.052927
     27          1           0        1.860405    3.387682    1.017690
     28          1           0        3.871721    3.290048   -0.441937
     29          1           0        4.735611    1.073744   -1.230464
     30          1           0        1.586729   -0.923390    0.894919
     31          1           0        0.712567    1.286399    1.690380
     32          7           0        3.709773   -1.321886   -0.667746
     33          8           0        3.105622   -2.329379   -0.306365
     34          8           0        4.706476   -1.314061   -1.386884
 ---------------------------------------------------------------------

 SCF Done:  E(RHF) =  -669.535196570     A.U. after   15 cycles
 E2 =    -0.2091977665D+01 EUMP2 =    -0.67162717423464D+03

 The electronic state is 1-A.
 Alpha  occ. eigenvalues --  -20.60731 -20.60726 -15.85782 -11.31134 -11.27712
 Alpha  occ. eigenvalues --  -11.27669 -11.27450 -11.26729 -11.26693 -11.22330
 Alpha  occ. eigenvalues --  -11.21908 -11.21901 -11.21883 -11.21769 -11.21330
 Alpha  occ. eigenvalues --   -1.59806  -1.39359  -1.19310  -1.08921  -1.08707
 Alpha  occ. eigenvalues --   -1.04724  -1.04050  -0.96506  -0.95543  -0.87520
 Alpha  occ. eigenvalues --   -0.86109  -0.82381  -0.80124  -0.78706  -0.77432
 Alpha  occ. eigenvalues --   -0.72003  -0.71129  -0.70432  -0.65542  -0.64972
 Alpha  occ. eigenvalues --   -0.64717  -0.62232  -0.61427  -0.59814  -0.58084
 Alpha  occ. eigenvalues --   -0.55756  -0.55212  -0.53222  -0.53040  -0.52913
 Alpha  occ. eigenvalues --   -0.52792  -0.50408  -0.48760  -0.48756  -0.48438
 Alpha  occ. eigenvalues --   -0.47137  -0.46250  -0.46150  -0.44768  -0.44305
 Alpha  occ. eigenvalues --   -0.37293  -0.36306
 Alpha virt. eigenvalues --    0.05091   0.11333   0.16544   0.19772   0.22675
 Alpha virt. eigenvalues --    0.23818   0.25878   0.26230   0.26814   0.27926
 Alpha virt. eigenvalues --    0.29446   0.29640   0.30969   0.31410   0.31911

 Mulliken charges:
               1
     1  C   -0.298969
     2  C   -0.303381
     3  C   -0.481131
     4  H    0.150879
     5  H    0.153750
     6  H    0.146325
     7  H    0.155856
     8  H    0.165305
     9  H    0.160076
    10  H    0.149293
    11  C   -0.298799
    12  C   -0.300215
    13  C   -0.476002
    14  H    0.148096
    15  H    0.151137
    16  H    0.152332
    17  H    0.153815
    18  H    0.155922
    19  H    0.154601
    20  H    0.161579
    21  C   -0.171158
    22  C   -0.218756
    23  C   -0.170832
    24  C    0.159673
    25  C   -0.177607
    26  C   -0.221813
    27  H    0.225502
    28  H    0.223262
    29  H    0.275363
    30  H    0.280798
    31  H    0.227988
    32  N    0.488413
    33  O   -0.460617
    34  O   -0.460685
 Sum of Mulliken charges =  -0.00000

 Dipole moment (field-independent basis, Debye):
    X=             -1.9923    Y=              4.5258    Z=              1.5977  Tot=              5.1966
 Quadrupole moment (field-independent basis, Debye-Ang):
   XX=           -103.7840   YY=            -94.2670   ZZ=            -94.6466
   XY=             17.3556   XZ=              2.8617   YZ=             -1.5215

 Normal termination of Gaussian 16 at Thu May  6 18:59:33 2021.
