 Gaussian 16, Revision A.03,
 Gaussian 16:  EM64L-G16RevA.03 25-Dec-2016

 -------------
 #p 6-31g* mp2
 -------------

 ------------------------------------------------------
 Input file generated by CHIRIPA (05-May-2021 14:53:17)
 ------------------------------------------------------
 Symbolic Z-matrix:
 Charge =  0 Multiplicity = 1

                         Standard orientation:
 ---------------------------------------------------------------------
 Center     Atomic      Atomic             Coordinates (Angstroms)
 Number     Number       Type             X           Y           Z
 ---------------------------------------------------------------------
      1          6           0       -5.079284   -0.402829   -0.494022
      2          6           0       -6.422821   -0.464923    0.233326
      3          6           0       -7.385214   -1.477557   -0.388095
      4          1           0       -5.251872   -0.147477   -1.548514
      5          1           0       -4.619065   -1.400586   -0.485314
      6          1           0       -6.879730    0.532961    0.224453
      7          1           0       -6.246999   -0.719969    1.286253
      8          1           0       -6.953588   -2.483430   -0.365296
      9          1           0       -7.589914   -1.223381   -1.433128
     10          1           0       -8.339322   -1.505577    0.147398
     11          6           0       -4.106423    0.605012    0.115506
     12          6           0       -2.762885    0.667106   -0.611843
     13          6           0       -1.800492    1.679741    0.009579
     14          1           0       -4.566641    1.602769    0.106798
     15          1           0       -3.933834    0.349660    1.169998
     16          1           0       -2.938707    0.922153   -1.664769
     17          1           0       -2.305976   -0.330778   -0.602970
     18          1           0       -1.595792    1.425564    1.054612
     19          1           0       -2.232118    2.685613   -0.013221
     20          1           0       -0.846384    1.707761   -0.525914
     21          6           0        1.527639    0.732905    1.356575
     22          6           0        1.983921    1.408090    0.219714
     23          6           0        3.124486    0.967160   -0.457960
     24          6           0        3.787370   -0.157467    0.031004
     25          6           0        3.357548   -0.851551    1.160955
     26          6           0        2.214697   -0.392776    1.822746
     27          1           0        0.640734    1.082361    1.876839
     28          1           0        1.452346    2.282594   -0.144587
     29          1           0        3.499593    1.471002   -1.340489
     30          1           0        3.908548   -1.720293    1.500226
     31          1           0        1.862634   -0.919110    2.705394
     32          7           0        4.996046   -0.633706   -0.678011
     33          8           0        5.562236   -1.627042   -0.227070
     34          8           0        5.354328   -0.004627   -1.671254
 ---------------------------------------------------------------------

 SCF Done:  E(RHF) =  -669.534247293     A.U. after   15 cycles
 E2 =    -0.2092154711D+01 EUMP2 =    -0.67162640200393D+03

 The electronic state is 1-A.
 Alpha  occ. eigenvalues --  -20.60729 -20.60724 -15.85783 -11.31136 -11.27720
 Alpha  occ. eigenvalues --  -11.27711 -11.27399 -11.26710 -11.26680 -11.22429
 Alpha  occ. eigenvalues --  -11.22234 -11.22078 -11.22059 -11.21905 -11.21442
 Alpha  occ. eigenvalues --   -1.59805  -1.39359  -1.19314  -1.09082  -1.08703
 Alpha  occ. eigenvalues --   -1.04723  -1.04219  -0.96713  -0.95535  -0.87748
 Alpha  occ. eigenvalues --   -0.86109  -0.82379  -0.80301  -0.78853  -0.77430
 Alpha  occ. eigenvalues --   -0.72002  -0.71129  -0.70432  -0.65709  -0.64966
 Alpha  occ. eigenvalues --   -0.64767  -0.62115  -0.61622  -0.60052  -0.58288
 Alpha  occ. eigenvalues --   -0.56124  -0.55115  -0.53552  -0.53135  -0.52963
 Alpha  occ. eigenvalues --   -0.52689  -0.50614  -0.48773  -0.48756  -0.48579
 Alpha  occ. eigenvalues --   -0.47298  -0.46407  -0.46303  -0.44768  -0.44462
 Alpha  occ. eigenvalues --   -0.37251  -0.36317
 Alpha virt. eigenvalues --    0.05104   0.11207   0.16546   0.20457   0.22442
 Alpha virt. eigenvalues --    0.23984   0.25456   0.26287   0.26393   0.27307
 Alpha virt. eigenvalues --    0.28999   0.29488   0.31131   0.31638   0.32230

 Mulliken charges:
               1
     1  C   -0.298892
     2  C   -0.300001
     3  C   -0.476060
     4  H    0.151272
     5  H    0.150584
     6  H    0.152467
     7  H    0.151678
     8  H    0.155857
     9  H    0.156121
    10  H    0.161390
    11  C   -0.299066
    12  C   -0.299116
    13  C   -0.482391
    14  H    0.150637
    15  H    0.148189
    16  H    0.155662
    17  H    0.155168
    18  H    0.146924
    19  H    0.158300
    20  H    0.160734
    21  C   -0.168727
    22  C   -0.221888
    23  C   -0.171882
    24  C    0.158112
    25  C   -0.170572
    26  C   -0.220221
    27  H    0.230028
    28  H    0.225116
    29  H    0.275398
    30  H    0.275359
    31  H    0.222988
    32  N    0.488107
    33  O   -0.460660
    34  O   -0.460614
 Sum of Mulliken charges =  -0.00000

 Dipole moment (field-independent basis, Debye):
    X=             -4.4511    Y=              1.6475    Z=              2.4416  Tot=              5.3374
 Quadrupole moment (field-independent basis, Debye-Ang):
   XX=           -127.7332   YY=            -92.8714   ZZ=            -92.5810
   XY=              5.9291   XZ=              9.8995   YZ=             -3.9580

 Normal termination of Gaussian 16 at Wed May  5 17:13:13 2021.
