 Gaussian 16, Revision A.03,
 Gaussian 16:  EM64L-G16RevA.03 25-Dec-2016

 -------------
 #p 6-31g* mp2
 -------------

 ------------------------------------------------------
 Input file generated by CHIRIPA (05-May-2021 14:51:08)
 ------------------------------------------------------
 Symbolic Z-matrix:
 Charge =  0 Multiplicity = 1

                         Standard orientation:
 ---------------------------------------------------------------------
 Center     Atomic      Atomic             Coordinates (Angstroms)
 Number     Number       Type             X           Y           Z
 ---------------------------------------------------------------------
      1          6           0        5.478978    0.214323   -0.113555
      2          6           0        6.807297   -0.515105    0.090132
      3          6           0        8.017888    0.404131   -0.075005
      4          1           0        5.465182    0.664750   -1.115488
      5          1           0        5.410771    1.044340    0.603253
      6          1           0        6.872367   -1.344350   -0.625922
      7          1           0        6.817854   -0.964009    1.091626
      8          1           0        7.980287    1.224488    0.649013
      9          1           0        8.035109    0.841986   -1.078293
     10          1           0        8.956886   -0.137808    0.074807
     11          6           0        4.259450   -0.691372    0.048300
     12          6           0        2.931131    0.038056   -0.155387
     13          6           0        1.720540   -0.881180    0.009750
     14          1           0        4.327656   -1.521389   -0.668508
     15          1           0        4.273246   -1.141798    1.050233
     16          1           0        2.920573    0.486960   -1.156880
     17          1           0        2.866060    0.867302    0.560667
     18          1           0        1.703318   -1.319034    1.013038
     19          1           0        1.758141   -1.701537   -0.714268
     20          1           0        0.781541   -0.339241   -0.140062
     21          6           0       -5.536990    0.180521   -0.333627
     22          6           0       -6.558306   -0.688106    0.401482
     23          6           0       -7.889168   -0.794536   -0.343687
     24          1           0       -5.957638    1.184646   -0.481040
     25          1           0       -5.364949   -0.236482   -1.335579
     26          1           0       -6.727334   -0.270378    1.402256
     27          1           0       -6.135103   -1.690226    0.547331
     28          1           0       -7.741012   -1.232112   -1.336248
     29          1           0       -8.336606    0.195803   -0.476465
     30          1           0       -8.604501   -1.419951    0.199465
     31          6           0       -4.201438    0.296529    0.398882
     32          6           0       -3.180121    1.165155   -0.336226
     33          6           0       -1.849259    1.271584    0.408941
     34          1           0       -4.373479    0.713530    1.400833
     35          1           0       -3.780789   -0.707598    0.546295
     36          1           0       -3.603324    2.167274   -0.482076
     37          1           0       -3.011094    0.747427   -1.337001
     38          1           0       -1.401821    0.281246    0.541719
     39          1           0       -1.997416    1.709161    1.401502
     40          1           0       -1.133926    1.897000   -0.134209
 ---------------------------------------------------------------------

 SCF Done:  E(RHF) =  -470.733153348     A.U. after   11 cycles
 E2 =    -0.1582230659D+01 EUMP2 =    -0.47231538400703D+03

 The electronic state is 1-A.
 Alpha  occ. eigenvalues --  -11.21611 -11.21600 -11.21579 -11.21549 -11.21407
 Alpha  occ. eigenvalues --  -11.21370 -11.21347 -11.21310 -11.21079 -11.21069
 Alpha  occ. eigenvalues --  -11.21054 -11.20963  -1.08435  -1.08392  -1.03545
 Alpha  occ. eigenvalues --   -1.03480  -0.96018  -0.95912  -0.87060  -0.86907
 Alpha  occ. eigenvalues --   -0.79631  -0.79525  -0.78245  -0.78206  -0.65068
 Alpha  occ. eigenvalues --   -0.65022  -0.60971  -0.60882  -0.59410  -0.59267
 Alpha  occ. eigenvalues --   -0.57612  -0.57549  -0.55299  -0.55214  -0.52842
 Alpha  occ. eigenvalues --   -0.52579  -0.52402  -0.52272  -0.49921  -0.49859
 Alpha  occ. eigenvalues --   -0.47948  -0.47832  -0.46628  -0.46580  -0.45788
 Alpha  occ. eigenvalues --   -0.45748  -0.45710  -0.45673  -0.43826  -0.43669
 Alpha virt. eigenvalues --    0.22348   0.22989   0.23588   0.24852   0.26521
 Alpha virt. eigenvalues --    0.26690   0.27056   0.27464   0.27620   0.28858
 Alpha virt. eigenvalues --    0.30763   0.31446   0.31500   0.31792   0.32221

 Mulliken charges:
               1
     1  C   -0.298211
     2  C   -0.299600
     3  C   -0.475678
     4  H    0.149518
     5  H    0.149500
     6  H    0.151851
     7  H    0.151908
     8  H    0.155162
     9  H    0.155124
    10  H    0.160168
    11  C   -0.298366
    12  C   -0.298932
    13  C   -0.483724
    14  H    0.149327
    15  H    0.149564
    16  H    0.151446
    17  H    0.152140
    18  H    0.154463
    19  H    0.154184
    20  H    0.169310
    21  C   -0.298327
    22  C   -0.299679
    23  C   -0.475712
    24  H    0.149635
    25  H    0.149581
    26  H    0.151920
    27  H    0.152037
    28  H    0.155200
    29  H    0.155159
    30  H    0.160267
    31  C   -0.298681
    32  C   -0.299553
    33  C   -0.480987
    34  H    0.149534
    35  H    0.150171
    36  H    0.152010
    37  H    0.152073
    38  H    0.160232
    39  H    0.155555
    40  H    0.160414
 Sum of Mulliken charges =  -0.00000

 Dipole moment (field-independent basis, Debye):
    X=             -0.0366    Y=              0.0113    Z=              0.0068  Tot=              0.0389
 Quadrupole moment (field-independent basis, Debye-Ang):
   XX=            -86.7782   YY=            -84.4028   ZZ=            -83.7088
   XY=             -0.9523   XZ=             -0.5473   YZ=              0.6261

 Normal termination of Gaussian 16 at Thu May  6 06:51:22 2021.
