 Gaussian 16, Revision A.03,
 Gaussian 16:  EM64L-G16RevA.03 25-Dec-2016

 -------------
 #p 6-31g* mp2
 -------------

 ------------------------------------------------------
 Input file generated by CHIRIPA (05-May-2021 14:57:22)
 ------------------------------------------------------
 Symbolic Z-matrix:
 Charge =  0 Multiplicity = 1

                         Standard orientation:
 ---------------------------------------------------------------------
 Center     Atomic      Atomic             Coordinates (Angstroms)
 Number     Number       Type             X           Y           Z
 ---------------------------------------------------------------------
      1          6           0        4.056365    2.457843    0.060599
      2          6           0        4.709877    1.488317    0.828364
      3          6           0        4.261030    0.164281    0.831972
      4          6           0        3.150672   -0.156721    0.052644
      5          6           0        2.478268    0.786566   -0.722838
      6          6           0        2.944607    2.104496   -0.711191
      7          1           0        4.411834    3.484015    0.063721
      8          1           0        5.573532    1.759859    1.428705
      9          1           0        4.748167   -0.606303    1.417051
     10          1           0        1.619951    0.485622   -1.311177
     11          1           0        2.435112    2.855346   -1.308422
     12          7           0        2.666239   -1.555187    0.048389
     13          8           0        1.685803   -1.812445   -0.646737
     14          8           0        3.276150   -2.367566    0.740260
     15          6           0       -4.853925    1.716758    0.670873
     16          6           0       -4.793734    0.504056    1.365317
     17          6           0       -3.898091   -0.495139    0.972910
     18          6           0       -3.073567   -0.246864   -0.123359
     19          6           0       -3.109946    0.950933   -0.835574
     20          6           0       -4.013321    1.935939   -0.425423
     21          1           0       -5.552685    2.487446    0.982596
     22          1           0       -5.445357    0.331071    2.217085
     23          1           0       -3.830677   -1.443191    1.492593
     24          1           0       -2.447716    1.094233   -1.680757
     25          1           0       -4.057884    2.876774   -0.966616
     26          7           0       -2.121298   -1.297157   -0.548175
     27          8           0       -1.405579   -1.053825   -1.517284
     28          8           0       -2.108659   -2.343820    0.096008
 ---------------------------------------------------------------------

 SCF Done:  E(RHF) =  -868.335320149     A.U. after   16 cycles
 E2 =    -0.2600965030D+01 EUMP2 =    -0.87093628517928D+03

 The electronic state is 1-A.
 Alpha  occ. eigenvalues --  -20.60195 -20.60179 -20.59719 -20.59605 -15.85251
 Alpha  occ. eigenvalues --  -15.84716 -11.30958 -11.30479 -11.27605 -11.27525
 Alpha  occ. eigenvalues --  -11.27352 -11.27131 -11.27041 -11.26962 -11.26673
 Alpha  occ. eigenvalues --  -11.26618 -11.26230 -11.26219  -1.59231  -1.58752
 Alpha  occ. eigenvalues --   -1.38790  -1.38284  -1.19155  -1.18706  -1.08480
 Alpha  occ. eigenvalues --   -1.08037  -1.04611  -1.04164  -0.95260  -0.94792
 Alpha  occ. eigenvalues --   -0.85992  -0.85542  -0.82099  -0.81612  -0.77096
 Alpha  occ. eigenvalues --   -0.76584  -0.71474  -0.70934  -0.70535  -0.70261
 Alpha  occ. eigenvalues --   -0.70094  -0.69805  -0.64802  -0.64615  -0.64339
 Alpha  occ. eigenvalues --   -0.64177  -0.61960  -0.61490  -0.55090  -0.54671
 Alpha  occ. eigenvalues --   -0.52918  -0.52708  -0.52484  -0.52258  -0.48232
 Alpha  occ. eigenvalues --   -0.48187  -0.47726  -0.47628  -0.44122  -0.43580
 Alpha  occ. eigenvalues --   -0.37147  -0.36727  -0.36232  -0.35791
 Alpha virt. eigenvalues --    0.05421   0.05949   0.11416   0.11857   0.16847
 Alpha virt. eigenvalues --    0.17349   0.21440   0.21980   0.27263   0.27746
 Alpha virt. eigenvalues --    0.28301   0.29032   0.30876   0.31547   0.32451

 Mulliken charges:
               1
     1  C   -0.171983
     2  C   -0.219022
     3  C   -0.171607
     4  C    0.157466
     5  C   -0.175654
     6  C   -0.219424
     7  H    0.222041
     8  H    0.220763
     9  H    0.274605
    10  H    0.285881
    11  H    0.218928
    12  N    0.485502
    13  O   -0.442770
    14  O   -0.466703
    15  C   -0.171918
    16  C   -0.218271
    17  C   -0.171090
    18  C    0.159832
    19  C   -0.172750
    20  C   -0.218307
    21  H    0.224216
    22  H    0.223122
    23  H    0.277302
    24  H    0.270814
    25  H    0.220709
    26  N    0.488541
    27  O   -0.457753
    28  O   -0.452470
 Sum of Mulliken charges =  -0.00000

 Dipole moment (field-independent basis, Debye):
    X=             -1.8331    Y=              8.2731    Z=              1.4331  Tot=              8.5941
 Quadrupole moment (field-independent basis, Debye-Ang):
   XX=            -72.7726   YY=           -107.3789   ZZ=           -101.3846
   XY=              4.8040   XZ=             -3.1912   YZ=             -3.8428

 Normal termination of Gaussian 16 at Thu May  6 11:13:31 2021.
