 Gaussian 16, Revision A.03,
 Gaussian 16:  EM64L-G16RevA.03 25-Dec-2016

 -------------
 #p 6-31g* mp2
 -------------

 ------------------------------------------------------
 Input file generated by CHIRIPA (05-May-2021 14:57:24)
 ------------------------------------------------------
 Symbolic Z-matrix:
 Charge =  0 Multiplicity = 1

                         Standard orientation:
 ---------------------------------------------------------------------
 Center     Atomic      Atomic             Coordinates (Angstroms)
 Number     Number       Type             X           Y           Z
 ---------------------------------------------------------------------
      1          6           0       -1.701331   -1.300425    0.893624
      2          6           0       -1.887098    0.080386    1.017608
      3          6           0       -3.062711    0.682593    0.559537
      4          6           0       -4.036110   -0.129776   -0.019980
      5          6           0       -3.880512   -1.508220   -0.157719
      6          6           0       -2.696875   -2.088931    0.307390
      7          1           0       -0.784970   -1.759885    1.252199
      8          1           0       -1.115655    0.695225    1.472464
      9          1           0       -3.232544    1.749182    0.642983
     10          1           0       -4.667542   -2.095041   -0.615587
     11          1           0       -2.555333   -3.161537    0.209788
     12          7           0       -5.284926    0.496376   -0.508645
     13          8           0       -6.127281   -0.241341   -1.015447
     14          8           0       -5.397746    1.713014   -0.375605
     15          6           0        5.126037   -1.900624   -0.427605
     16          6           0        5.697615   -0.668333   -0.761186
     17          6           0        4.988887    0.520207   -0.562126
     18          6           0        3.705022    0.439242   -0.025073
     19          6           0        3.108298   -0.773181    0.317334
     20          6           0        3.835478   -1.949031    0.109644
     21          1           0        5.683761   -2.818981   -0.585591
     22          1           0        6.699699   -0.627712   -1.178584
     23          1           0        5.407341    1.487742   -0.811505
     24          1           0        2.107470   -0.781768    0.731683
     25          1           0        3.389064   -2.904626    0.369637
     26          7           0        2.944956    1.690778    0.190231
     27          8           0        1.815475    1.592511    0.664840
     28          8           0        3.493089    2.746302   -0.119698
 ---------------------------------------------------------------------

 SCF Done:  E(RHF) =  -868.338471315     A.U. after   16 cycles
 E2 =    -0.2599268862D+01 EUMP2 =    -0.87093774017745D+03

 The electronic state is 1-A.
 Alpha  occ. eigenvalues --  -20.61656 -20.61604 -20.60417 -20.60402 -15.86686
 Alpha  occ. eigenvalues --  -15.85459 -11.31961 -11.30802 -11.28604 -11.28462
 Alpha  occ. eigenvalues --  -11.28207 -11.27544 -11.27453 -11.27383 -11.27242
 Alpha  occ. eigenvalues --  -11.27170 -11.26483 -11.26202  -1.60691  -1.59486
 Alpha  occ. eigenvalues --   -1.40254  -1.39040  -1.20115  -1.18956  -1.09516
 Alpha  occ. eigenvalues --   -1.08383  -1.05516  -1.04326  -0.96375  -0.95226
 Alpha  occ. eigenvalues --   -0.86914  -0.85738  -0.83222  -0.82033  -0.78290
 Alpha  occ. eigenvalues --   -0.77061  -0.72918  -0.71999  -0.71680  -0.71228
 Alpha  occ. eigenvalues --   -0.70807  -0.70142  -0.65777  -0.65519  -0.64611
 Alpha  occ. eigenvalues --   -0.64299  -0.62881  -0.61645  -0.55997  -0.54938
 Alpha  occ. eigenvalues --   -0.53830  -0.53610  -0.52689  -0.52395  -0.49677
 Alpha  occ. eigenvalues --   -0.49630  -0.48438  -0.48433  -0.45677  -0.44450
 Alpha  occ. eigenvalues --   -0.38066  -0.37110  -0.36986  -0.35909
 Alpha virt. eigenvalues --    0.04268   0.05418   0.10551   0.11712   0.15787
 Alpha virt. eigenvalues --    0.16885   0.19035   0.21920   0.25194   0.26978
 Alpha virt. eigenvalues --    0.28022   0.29150   0.30770   0.31048   0.32522

 Mulliken charges:
               1
     1  C   -0.174093
     2  C   -0.219916
     3  C   -0.172074
     4  C    0.159062
     5  C   -0.172601
     6  C   -0.217887
     7  H    0.215181
     8  H    0.243637
     9  H    0.278574
    10  H    0.273744
    11  H    0.219121
    12  N    0.487922
    13  O   -0.462320
    14  O   -0.459094
    15  C   -0.169972
    16  C   -0.218118
    17  C   -0.169729
    18  C    0.159230
    19  C   -0.169870
    20  C   -0.217843
    21  H    0.227989
    22  H    0.226345
    23  H    0.277880
    24  H    0.267000
    25  H    0.221887
    26  N    0.492419
    27  O   -0.471898
    28  O   -0.454575
 Sum of Mulliken charges =  -0.00000

 Dipole moment (field-independent basis, Debye):
    X=              7.4227    Y=             -6.3877    Z=              0.9132  Tot=              9.8353
 Quadrupole moment (field-independent basis, Debye-Ang):
   XX=           -116.7834   YY=           -103.2564   ZZ=           -105.3242
   XY=             -3.3106   XZ=            -11.4576   YZ=              0.1600

 Normal termination of Gaussian 16 at Thu May  6 17:59:43 2021.
