 Gaussian 16, Revision A.03,
 Gaussian 16:  EM64L-G16RevA.03 25-Dec-2016

 -------------
 #p 6-31g* mp2
 -------------

 ------------------------------------------------------
 Input file generated by CHIRIPA (05-May-2021 14:51:09)
 ------------------------------------------------------
 Symbolic Z-matrix:
 Charge =  0 Multiplicity = 1

                         Standard orientation:
 ---------------------------------------------------------------------
 Center     Atomic      Atomic             Coordinates (Angstroms)
 Number     Number       Type             X           Y           Z
 ---------------------------------------------------------------------
      1          6           0        2.784649   -0.297229   -0.133433
      2          6           0        3.630691   -1.133258   -1.094294
      3          6           0        3.471845   -2.636832   -0.866642
      4          1           0        3.063013   -0.544451    0.900172
      5          1           0        1.728180   -0.576767   -0.247999
      6          1           0        4.685099   -0.851246   -0.978934
      7          1           0        3.350415   -0.883877   -2.125736
      8          1           0        2.428187   -2.938758   -1.001620
      9          1           0        3.770454   -2.905941    0.151697
     10          1           0        4.085358   -3.215513   -1.564202
     11          6           0        2.932735    1.207928   -0.348607
     12          6           0        2.086693    2.043957    0.612254
     13          6           0        2.245539    3.547532    0.384602
     14          1           0        3.989204    1.487466   -0.234041
     15          1           0        2.654371    1.455150   -1.382213
     16          1           0        2.366969    1.794576    1.643696
     17          1           0        1.032285    1.761945    0.496894
     18          1           0        1.946930    3.816641   -0.633737
     19          1           0        3.289197    3.849457    0.519580
     20          1           0        1.632026    4.126212    1.082162
     21          6           0       -3.197037   -0.137954   -0.365787
     22          6           0       -4.679664    0.163555   -0.144664
     23          6           0       -5.342628    0.798279   -1.367528
     24          1           0       -2.674899    0.792996   -0.625885
     25          1           0       -3.091213   -0.807738   -1.230418
     26          1           0       -4.782758    0.831463    0.720140
     27          1           0       -5.198299   -0.768188    0.115126
     28          1           0       -5.269289    0.133277   -2.234128
     29          1           0       -4.851387    1.742017   -1.625676
     30          1           0       -6.402136    1.005441   -1.187564
     31          6           0       -2.520347   -0.772746    0.847827
     32          6           0       -1.037720   -1.074254    0.626703
     33          6           0       -0.374757   -1.708978    1.849568
     34          1           0       -2.626171   -0.102961    1.712457
     35          1           0       -3.042484   -1.703695    1.107925
     36          1           0       -0.519086   -0.142511    0.366913
     37          1           0       -0.934627   -1.742162   -0.238100
     38          1           0       -0.865997   -2.652717    2.107717
     39          1           0       -0.448096   -1.043976    2.716168
     40          1           0        0.684752   -1.916140    1.669604
 ---------------------------------------------------------------------

 SCF Done:  E(RHF) =  -470.732136431     A.U. after   11 cycles
 E2 =    -0.1584760261D+01 EUMP2 =    -0.47231689669204D+03

 The electronic state is 1-A.
 Alpha  occ. eigenvalues --  -11.21630 -11.21619 -11.21603 -11.21583 -11.21424
 Alpha  occ. eigenvalues --  -11.21385 -11.21363 -11.21279 -11.21100 -11.21087
 Alpha  occ. eigenvalues --  -11.21082 -11.20984  -1.08491  -1.08390  -1.03553
 Alpha  occ. eigenvalues --   -1.03527  -0.96026  -0.95939  -0.87024  -0.86972
 Alpha  occ. eigenvalues --   -0.79640  -0.79598  -0.78437  -0.78096  -0.65215
 Alpha  occ. eigenvalues --   -0.64954  -0.61026  -0.60859  -0.59460  -0.59275
 Alpha  occ. eigenvalues --   -0.57761  -0.57447  -0.55300  -0.55227  -0.52736
 Alpha  occ. eigenvalues --   -0.52649  -0.52495  -0.52289  -0.49937  -0.49918
 Alpha  occ. eigenvalues --   -0.48056  -0.47840  -0.46867  -0.46567  -0.46100
 Alpha  occ. eigenvalues --   -0.45767  -0.45728  -0.45114  -0.43781  -0.43772
 Alpha virt. eigenvalues --    0.21066   0.22810   0.23460   0.24257   0.25819
 Alpha virt. eigenvalues --    0.26413   0.26905   0.27657   0.27899   0.29790
 Alpha virt. eigenvalues --    0.30359   0.30939   0.31623   0.31950   0.32057

 Mulliken charges:
               1
     1  C   -0.309571
     2  C   -0.298707
     3  C   -0.476911
     4  H    0.149251
     5  H    0.163773
     6  H    0.151612
     7  H    0.151688
     8  H    0.155525
     9  H    0.155054
    10  H    0.160537
    11  C   -0.297547
    12  C   -0.305269
    13  C   -0.475361
    14  H    0.149438
    15  H    0.149218
    16  H    0.152326
    17  H    0.156055
    18  H    0.155140
    19  H    0.155516
    20  H    0.160037
    21  C   -0.298338
    22  C   -0.299649
    23  C   -0.475727
    24  H    0.148912
    25  H    0.149393
    26  H    0.152046
    27  H    0.152094
    28  H    0.155147
    29  H    0.155152
    30  H    0.160362
    31  C   -0.297039
    32  C   -0.308808
    33  C   -0.479231
    34  H    0.149706
    35  H    0.149815
    36  H    0.158168
    37  H    0.150747
    38  H    0.154757
    39  H    0.154874
    40  H    0.165818
 Sum of Mulliken charges =  -0.00000

 Dipole moment (field-independent basis, Debye):
    X=              0.0043    Y=              0.0006    Z=              0.0023  Tot=              0.0049
 Quadrupole moment (field-independent basis, Debye-Ang):
   XX=            -84.6002   YY=            -85.4158   ZZ=            -84.8716
   XY=              0.5019   XZ=              0.1355   YZ=              0.7762

 Normal termination of Gaussian 16 at Thu May  6 02:09:17 2021.
