 Gaussian 16, Revision A.03,
 Gaussian 16:  EM64L-G16RevA.03 25-Dec-2016

 -------------
 #p 6-31g* mp2
 -------------

 ------------------------------------------------------
 Input file generated by CHIRIPA (05-May-2021 14:51:08)
 ------------------------------------------------------
 Symbolic Z-matrix:
 Charge =  0 Multiplicity = 1

                         Standard orientation:
 ---------------------------------------------------------------------
 Center     Atomic      Atomic             Coordinates (Angstroms)
 Number     Number       Type             X           Y           Z
 ---------------------------------------------------------------------
      1          6           0       -2.108311   -0.406593    0.485066
      2          6           0       -1.628807   -1.667878    1.204248
      3          6           0       -0.157297   -1.592270    1.612581
      4          1           0       -1.487087   -0.241620   -0.405893
      5          1           0       -1.952685    0.462005    1.139828
      6          1           0       -1.786570   -2.534016    0.548862
      7          1           0       -2.251368   -1.829974    2.093493
      8          1           0        0.012513   -0.746340    2.286500
      9          1           0        0.479953   -1.454382    0.733092
     10          1           0        0.164491   -2.504224    2.125079
     11          6           0       -3.577409   -0.467037    0.070547
     12          6           0       -4.056914    0.794247   -0.648634
     13          6           0       -5.528424    0.718640   -1.056968
     14          1           0       -3.733036   -1.335635   -0.584215
     15          1           0       -4.198634   -0.632011    0.961506
     16          1           0       -3.434352    0.956344   -1.537880
     17          1           0       -3.899151    1.660386    0.006752
     18          1           0       -6.165673    0.580752   -0.177479
     19          1           0       -5.698234   -0.127291   -1.730887
     20          1           0       -5.850212    1.630593   -1.569466
     21          6           0        3.140483   -0.248377   -0.118542
     22          6           0        2.922465   -1.277053   -1.228623
     23          6           0        3.523534   -2.642850   -0.895296
     24          1           0        4.218033   -0.141027    0.066675
     25          1           0        2.699180   -0.626504    0.814017
     26          1           0        3.362834   -0.896485   -2.159138
     27          1           0        1.845317   -1.381825   -1.411352
     28          1           0        3.076945   -3.047595    0.018674
     29          1           0        4.603085   -2.559497   -0.733361
     30          1           0        3.356137   -3.362917   -1.702353
     31          6           0        2.545238    1.122007   -0.437071
     32          6           0        2.763256    2.150684    0.673010
     33          6           0        2.162187    3.516481    0.339682
     34          1           0        2.986541    1.500135   -1.369630
     35          1           0        1.467688    1.014658   -0.622289
     36          1           0        3.840405    2.255456    0.855739
     37          1           0        2.322887    1.770116    1.603525
     38          1           0        1.082635    3.433129    0.177747
     39          1           0        2.608775    3.921226   -0.574288
     40          1           0        2.329584    4.236549    1.146739
 ---------------------------------------------------------------------

 SCF Done:  E(RHF) =  -470.732796767     A.U. after   11 cycles
 E2 =    -0.1584142177D+01 EUMP2 =    -0.47231693894409D+03

 The electronic state is 1-A.
 Alpha  occ. eigenvalues --  -11.21676 -11.21642 -11.21604 -11.21557 -11.21481
 Alpha  occ. eigenvalues --  -11.21413 -11.21339 -11.21260 -11.21138 -11.21100
 Alpha  occ. eigenvalues --  -11.21052 -11.21034  -1.08506  -1.08385  -1.03602
 Alpha  occ. eigenvalues --   -1.03495  -0.96057  -0.95935  -0.87091  -0.86943
 Alpha  occ. eigenvalues --   -0.79670  -0.79562  -0.78312  -0.78200  -0.65269
 Alpha  occ. eigenvalues --   -0.64953  -0.61156  -0.60754  -0.59414  -0.59309
 Alpha  occ. eigenvalues --   -0.57663  -0.57544  -0.55342  -0.55216  -0.52741
 Alpha  occ. eigenvalues --   -0.52644  -0.52490  -0.52349  -0.50110  -0.49756
 Alpha  occ. eigenvalues --   -0.48005  -0.47854  -0.46691  -0.46607  -0.45997
 Alpha  occ. eigenvalues --   -0.45810  -0.45624  -0.45505  -0.43845  -0.43745
 Alpha virt. eigenvalues --    0.19956   0.23067   0.23848   0.24573   0.25207
 Alpha virt. eigenvalues --    0.25991   0.27162   0.27874   0.28515   0.29974
 Alpha virt. eigenvalues --    0.30407   0.30959   0.31614   0.31981   0.32333

 Mulliken charges:
               1
     1  C   -0.299688
     2  C   -0.299915
     3  C   -0.484499
     4  H    0.149873
     5  H    0.149567
     6  H    0.152233
     7  H    0.152296
     8  H    0.154994
     9  H    0.165385
    10  H    0.160486
    11  C   -0.298312
    12  C   -0.299795
    13  C   -0.475758
    14  H    0.149771
    15  H    0.150002
    16  H    0.152084
    17  H    0.151985
    18  H    0.155252
    19  H    0.155284
    20  H    0.160473
    21  C   -0.304603
    22  C   -0.301763
    23  C   -0.476311
    24  H    0.150149
    25  H    0.156369
    26  H    0.152654
    27  H    0.150654
    28  H    0.156337
    29  H    0.155411
    30  H    0.159919
    31  C   -0.299540
    32  C   -0.299734
    33  C   -0.475900
    34  H    0.149237
    35  H    0.150814
    36  H    0.151783
    37  H    0.152338
    38  H    0.155517
    39  H    0.155013
    40  H    0.159937
 Sum of Mulliken charges =  -0.00000

 Dipole moment (field-independent basis, Debye):
    X=             -0.0199    Y=             -0.0155    Z=              0.0194  Tot=              0.0318
 Quadrupole moment (field-independent basis, Debye-Ang):
   XX=            -85.1350   YY=            -85.6683   ZZ=            -83.9452
   XY=              0.6005   XZ=             -0.9914   YZ=              0.3607

 Normal termination of Gaussian 16 at Thu May  6 14:51:02 2021.
