 Gaussian 16, Revision A.03,
 Gaussian 16:  EM64L-G16RevA.03 25-Dec-2016

 -------------
 #p 6-31g* mp2
 -------------

 ------------------------------------------------------
 Input file generated by CHIRIPA (05-May-2021 14:53:12)
 ------------------------------------------------------
 Symbolic Z-matrix:
 Charge =  0 Multiplicity = 1

                         Standard orientation:
 ---------------------------------------------------------------------
 Center     Atomic      Atomic             Coordinates (Angstroms)
 Number     Number       Type             X           Y           Z
 ---------------------------------------------------------------------
      1          6           0        3.686513   -0.154619   -0.507615
      2          6           0        5.186387   -0.333089   -0.269894
      3          6           0        5.718802   -1.656487   -0.820300
      4          1           0        3.146046   -0.990605   -0.042892
      5          1           0        3.483850   -0.212328   -1.586036
      6          1           0        5.386341   -0.273680    0.807652
      7          1           0        5.723333    0.503520   -0.735072
      8          1           0        5.548258   -1.721211   -1.899803
      9          1           0        5.209352   -2.502826   -0.348313
     10          1           0        6.792931   -1.763376   -0.639517
     11          6           0        3.139459    1.163653    0.037012
     12          6           0        1.639585    1.342123   -0.200709
     13          6           0        1.107170    2.665521    0.349697
     14          1           0        3.342122    1.221361    1.115433
     15          1           0        3.679926    1.999639   -0.427711
     16          1           0        1.102640    0.505514    0.264469
     17          1           0        1.439631    1.282713   -1.278255
     18          1           0        1.616620    3.511860   -0.122290
     19          1           0        1.277714    2.730244    1.429200
     20          1           0        0.033041    2.772409    0.168914
     21          6           0       -0.872631   -1.108557    1.808009
     22          6           0       -1.254159    0.235067    1.732959
     23          6           0       -2.246905    0.642257    0.836746
     24          6           0       -2.839810   -0.325087    0.026810
     25          6           0       -2.481472   -1.671285    0.078182
     26          6           0       -1.486424   -2.055774    0.981838
     27          1           0       -0.100547   -1.416056    2.507100
     28          1           0       -0.779202    0.972871    2.373354
     29          1           0       -2.561496    1.675818    0.757996
     30          1           0       -2.973091   -2.383756   -0.573057
     31          1           0       -1.192140   -3.099945    1.037958
     32          7           0       -3.892005    0.093971   -0.925910
     33          8           0       -4.399024   -0.777687   -1.628606
     34          8           0       -4.189774    1.286151   -0.951915
 ---------------------------------------------------------------------

 SCF Done:  E(RHF) =  -669.534040661     A.U. after   15 cycles
 E2 =    -0.2094107914D+01 EUMP2 =    -0.67162814857510D+03

 The electronic state is 1-A.
 Alpha  occ. eigenvalues --  -20.60814 -20.60809 -15.85866 -11.31263 -11.27804
 Alpha  occ. eigenvalues --  -11.27790 -11.27549 -11.26858 -11.26809 -11.22000
 Alpha  occ. eigenvalues --  -11.21879 -11.21831 -11.21773 -11.21647 -11.21444
 Alpha  occ. eigenvalues --   -1.59888  -1.39440  -1.19434  -1.08892  -1.08792
 Alpha  occ. eigenvalues --   -1.04850  -1.03943  -0.96436  -0.95657  -0.87451
 Alpha  occ. eigenvalues --   -0.86236  -0.82481  -0.80008  -0.78659  -0.77525
 Alpha  occ. eigenvalues --   -0.72085  -0.71210  -0.70540  -0.65543  -0.65084
 Alpha  occ. eigenvalues --   -0.64819  -0.62233  -0.61345  -0.59803  -0.58051
 Alpha  occ. eigenvalues --   -0.55776  -0.55323  -0.53289  -0.52986  -0.52908
 Alpha  occ. eigenvalues --   -0.52830  -0.50374  -0.48845  -0.48838  -0.48321
 Alpha  occ. eigenvalues --   -0.47041  -0.46197  -0.46138  -0.44839  -0.44213
 Alpha  occ. eigenvalues --   -0.37354  -0.36356
 Alpha virt. eigenvalues --    0.04957   0.11146   0.16368   0.20293   0.22781
 Alpha virt. eigenvalues --    0.23951   0.26089   0.26264   0.26906   0.27639
 Alpha virt. eigenvalues --    0.28884   0.30066   0.31222   0.31399   0.31828

 Mulliken charges:
               1
     1  C   -0.297329
     2  C   -0.299765
     3  C   -0.475615
     4  H    0.145119
     5  H    0.152217
     6  H    0.150505
     7  H    0.153697
     8  H    0.156697
     9  H    0.153272
    10  H    0.161326
    11  C   -0.297773
    12  C   -0.306736
    13  C   -0.478364
    14  H    0.144989
    15  H    0.151409
    16  H    0.158047
    17  H    0.155566
    18  H    0.160077
    19  H    0.146750
    20  H    0.159233
    21  C   -0.173437
    22  C   -0.215485
    23  C   -0.171164
    24  C    0.158965
    25  C   -0.171392
    26  C   -0.217209
    27  H    0.225880
    28  H    0.227298
    29  H    0.275728
    30  H    0.275865
    31  H    0.223881
    32  N    0.488017
    33  O   -0.460101
    34  O   -0.460167
 Sum of Mulliken charges =  -0.00000

 Dipole moment (field-independent basis, Debye):
    X=              3.6787    Y=             -1.5093    Z=              3.2888  Tot=              5.1601
 Quadrupole moment (field-independent basis, Debye-Ang):
   XX=           -116.7794   YY=            -90.0769   ZZ=            -94.0542
   XY=              4.1145   XZ=             -9.5526   YZ=             -0.3364

 Normal termination of Gaussian 16 at Thu May  6 02:30:13 2021.
