 Gaussian 16, Revision A.03,
 Gaussian 16:  EM64L-G16RevA.03 25-Dec-2016

 -------------
 #p 6-31g* mp2
 -------------

 ------------------------------------------------------
 Input file generated by CHIRIPA (05-May-2021 14:53:16)
 ------------------------------------------------------
 Symbolic Z-matrix:
 Charge =  0 Multiplicity = 1

                         Standard orientation:
 ---------------------------------------------------------------------
 Center     Atomic      Atomic             Coordinates (Angstroms)
 Number     Number       Type             X           Y           Z
 ---------------------------------------------------------------------
      1          6           0        3.197667   -0.359736   -0.385105
      2          6           0        3.758202   -1.571133    0.360753
      3          6           0        4.241570   -2.673869   -0.581650
      4          1           0        2.367973   -0.684542   -1.027798
      5          1           0        3.972247    0.041249   -1.053410
      6          1           0        2.983242   -1.968874    1.028477
      7          1           0        4.586533   -1.243373    1.001889
      8          1           0        5.032651   -2.299256   -1.239264
      9          1           0        3.420250   -3.028878   -1.212525
     10          1           0        4.638272   -3.530236   -0.027463
     11          6           0        2.710378    0.751158    0.543438
     12          6           0        2.149843    1.962555   -0.202419
     13          6           0        1.666475    3.065292    0.739983
     14          1           0        1.935798    0.350174    1.211744
     15          1           0        3.540072    1.075964    1.186131
     16          1           0        1.321512    1.634796   -0.843556
     17          1           0        2.924803    2.360297   -0.870143
     18          1           0        2.487795    3.420301    1.370859
     19          1           0        0.875394    2.690678    1.397597
     20          1           0        1.269773    3.921659    0.185797
     21          6           0       -2.824521   -2.539485    0.573102
     22          6           0       -2.746356   -2.175058   -0.775083
     23          6           0       -2.460711   -0.855637   -1.138514
     24          6           0       -2.257879    0.077827   -0.123234
     25          6           0       -2.329050   -0.254327    1.228764
     26          6           0       -2.615987   -1.579648    1.568967
     27          1           0       -3.046919   -3.566735    0.846401
     28          1           0       -2.907850   -2.918367   -1.550620
     29          1           0       -2.394279   -0.546215   -2.174498
     30          1           0       -2.163254    0.508905    1.979369
     31          1           0       -2.676071   -1.859806    2.616797
     32          7           0       -1.954795    1.477762   -0.495687
     33          8           0       -1.780161    2.281348    0.417763
     34          8           0       -1.897611    1.744938   -1.694012
 ---------------------------------------------------------------------

 SCF Done:  E(RHF) =  -669.535985495     A.U. after   15 cycles
 E2 =    -0.2092295421D+01 EUMP2 =    -0.67162828091589D+03

 The electronic state is 1-A.
 Alpha  occ. eigenvalues --  -20.60976 -20.60961 -15.85991 -11.31327 -11.27889
 Alpha  occ. eigenvalues --  -11.27881 -11.27618 -11.26893 -11.26883 -11.21452
 Alpha  occ. eigenvalues --  -11.21067 -11.21015 -11.20879 -11.20716 -11.19784
 Alpha  occ. eigenvalues --   -1.60027  -1.39583  -1.19492  -1.08894  -1.07981
 Alpha  occ. eigenvalues --   -1.04887  -1.02971  -0.95739  -0.95401  -0.86428
 Alpha  occ. eigenvalues --   -0.86286  -0.82567  -0.79081  -0.77752  -0.77615
 Alpha  occ. eigenvalues --   -0.72214  -0.71360  -0.70597  -0.65147  -0.64888
 Alpha  occ. eigenvalues --   -0.64618  -0.62234  -0.60362  -0.58844  -0.56994
 Alpha  occ. eigenvalues --   -0.55388  -0.54703  -0.53214  -0.52978  -0.52067
 Alpha  occ. eigenvalues --   -0.51840  -0.49402  -0.48977  -0.48946  -0.47370
 Alpha  occ. eigenvalues --   -0.46186  -0.45324  -0.45277  -0.44764  -0.43232
 Alpha  occ. eigenvalues --   -0.37468  -0.36489
 Alpha virt. eigenvalues --    0.04878   0.11149   0.16337   0.21247   0.23143
 Alpha virt. eigenvalues --    0.24745   0.26845   0.27207   0.27854   0.28076
 Alpha virt. eigenvalues --    0.28817   0.30752   0.31816   0.32003   0.32483

 Mulliken charges:
               1
     1  C   -0.297153
     2  C   -0.298745
     3  C   -0.475103
     4  H    0.147654
     5  H    0.150031
     6  H    0.148839
     7  H    0.151961
     8  H    0.155991
     9  H    0.153059
    10  H    0.158412
    11  C   -0.297485
    12  C   -0.302133
    13  C   -0.473598
    14  H    0.144357
    15  H    0.148249
    16  H    0.154820
    17  H    0.149600
    18  H    0.144999
    19  H    0.163063
    20  H    0.168163
    21  C   -0.170592
    22  C   -0.218518
    23  C   -0.171150
    24  C    0.157929
    25  C   -0.171375
    26  C   -0.218492
    27  H    0.226225
    28  H    0.224043
    29  H    0.276033
    30  H    0.275698
    31  H    0.224075
    32  N    0.488687
    33  O   -0.458063
    34  O   -0.459484
 Sum of Mulliken charges =  -0.00000

 Dipole moment (field-independent basis, Debye):
    X=             -1.2886    Y=             -4.8352    Z=              1.2757  Tot=              5.1640
 Quadrupole moment (field-independent basis, Debye-Ang):
   XX=            -90.4940   YY=            -96.2268   ZZ=            -90.7790
   XY=             12.0936   XZ=             -2.5306   YZ=              1.4694

 Normal termination of Gaussian 16 at Thu May  6 09:04:17 2021.
