 Gaussian 16, Revision A.03,
 Gaussian 16:  EM64L-G16RevA.03 25-Dec-2016

 -------------
 #p 6-31g* mp2
 -------------

 ------------------------------------------------------
 Input file generated by CHIRIPA (05-May-2021 14:55:22)
 ------------------------------------------------------
 Symbolic Z-matrix:
 Charge =  0 Multiplicity = 1

                         Standard orientation:
 ---------------------------------------------------------------------
 Center     Atomic      Atomic             Coordinates (Angstroms)
 Number     Number       Type             X           Y           Z
 ---------------------------------------------------------------------
      1          6           0        1.951681    2.030732   -0.379723
      2          6           0        3.319510    2.083737   -0.092052
      3          6           0        4.055557    0.907252    0.077255
      4          6           0        3.388810   -0.310490   -0.048622
      5          6           0        2.027131   -0.396119   -0.334604
      6          6           0        1.310986    0.793155   -0.499870
      7          1           0        1.387632    2.949622   -0.509675
      8          1           0        3.819709    3.043441    0.001826
      9          1           0        5.115475    0.919328    0.300518
     10          1           0        1.556192   -1.367698   -0.422172
     11          1           0        0.248816    0.748956   -0.723221
     12          7           0        4.157495   -1.562752    0.128476
     13          8           0        3.546718   -2.623005    0.012501
     14          8           0        5.356213   -1.460309    0.379908
     15          6           0       -4.077297    0.871641   -0.069415
     16          6           0       -2.824680    1.477398    0.564612
     17          6           0       -2.641896    2.955148    0.217281
     18          1           0       -4.021843    0.989230   -1.160305
     19          1           0       -4.958270    1.438771    0.261713
     20          1           0       -1.946472    0.908435    0.233480
     21          1           0       -2.883033    1.358182    1.654107
     22          1           0       -3.499862    3.541026    0.562597
     23          1           0       -2.557979    3.088723   -0.866101
     24          1           0       -1.740491    3.367994    0.680841
     25          6           0       -4.273735   -0.605140    0.268608
     26          6           0       -5.526352   -1.210897   -0.365420
     27          6           0       -5.709135   -2.688648   -0.018089
     28          1           0       -3.392762   -1.172271   -0.062521
     29          1           0       -4.329190   -0.722729    1.359499
     30          1           0       -5.467999   -1.091682   -1.454914
     31          1           0       -6.404560   -0.641934   -0.034287
     32          1           0       -5.793053   -2.822222    1.065293
     33          1           0       -4.851170   -3.274525   -0.363405
     34          1           0       -6.610541   -3.101491   -0.481649
 ---------------------------------------------------------------------

 SCF Done:  E(RHF) =  -669.535514491     A.U. after   15 cycles
 E2 =    -0.2091158851D+01 EUMP2 =    -0.67162667334139D+03

 The electronic state is 1-A.
 Alpha  occ. eigenvalues --  -20.60745 -20.60740 -15.85799 -11.31163 -11.27735
 Alpha  occ. eigenvalues --  -11.27730 -11.27469 -11.26746 -11.26722 -11.22601
 Alpha  occ. eigenvalues --  -11.22138 -11.22122 -11.22062 -11.21966 -11.21406
 Alpha  occ. eigenvalues --   -1.59821  -1.39375  -1.19335  -1.09140  -1.08728
 Alpha  occ. eigenvalues --   -1.04741  -1.04238  -0.96676  -0.95564  -0.87692
 Alpha  occ. eigenvalues --   -0.86139  -0.82400  -0.80321  -0.78913  -0.77447
 Alpha  occ. eigenvalues --   -0.72017  -0.71144  -0.70440  -0.65817  -0.64987
 Alpha  occ. eigenvalues --   -0.64742  -0.62154  -0.61577  -0.60069  -0.58271
 Alpha  occ. eigenvalues --   -0.55957  -0.55239  -0.53386  -0.53097  -0.53063
 Alpha  occ. eigenvalues --   -0.52843  -0.50614  -0.48793  -0.48772  -0.48600
 Alpha  occ. eigenvalues --   -0.47350  -0.46450  -0.46361  -0.44781  -0.44482
 Alpha  occ. eigenvalues --   -0.37312  -0.36340
 Alpha virt. eigenvalues --    0.05088   0.11261   0.16555   0.19178   0.22671
 Alpha virt. eigenvalues --    0.23889   0.25017   0.26392   0.26605   0.28241
 Alpha virt. eigenvalues --    0.29063   0.29652   0.31008   0.31560   0.32423

 Mulliken charges:
               1
     1  C   -0.173327
     2  C   -0.218574
     3  C   -0.170978
     4  C    0.158710
     5  C   -0.172425
     6  C   -0.223196
     7  H    0.226890
     8  H    0.223356
     9  H    0.275525
    10  H    0.275446
    11  H    0.231457
    12  N    0.488085
    13  O   -0.460506
    14  O   -0.460538
    15  C   -0.298637
    16  C   -0.303587
    17  C   -0.478234
    18  H    0.149431
    19  H    0.152641
    20  H    0.144617
    21  H    0.157735
    22  H    0.161383
    23  H    0.153718
    24  H    0.156663
    25  C   -0.298275
    26  C   -0.300243
    27  C   -0.476218
    28  H    0.147380
    29  H    0.152014
    30  H    0.152231
    31  H    0.152986
    32  H    0.156360
    33  H    0.156194
    34  H    0.161913
 Sum of Mulliken charges =  -0.00000

 Dipole moment (field-independent basis, Debye):
    X=             -2.9143    Y=              4.4110    Z=             -0.5737  Tot=              5.3178
 Quadrupole moment (field-independent basis, Debye-Ang):
   XX=           -108.7043   YY=            -97.4589   ZZ=            -94.7332
   XY=             18.0513   XZ=             -1.7726   YZ=              0.9522

 Normal termination of Gaussian 16 at Wed May  5 22:16:55 2021.
