 Gaussian 16, Revision A.03,
 Gaussian 16:  EM64L-G16RevA.03 25-Dec-2016

 -------------
 #p 6-31g* mp2
 -------------

 ------------------------------------------------------
 Input file generated by CHIRIPA (05-May-2021 14:53:13)
 ------------------------------------------------------
 Symbolic Z-matrix:
 Charge =  0 Multiplicity = 1

                         Standard orientation:
 ---------------------------------------------------------------------
 Center     Atomic      Atomic             Coordinates (Angstroms)
 Number     Number       Type             X           Y           Z
 ---------------------------------------------------------------------
      1          6           0        3.481056   -0.338592   -0.349042
      2          6           0        4.209504   -1.556558    0.220086
      3          6           0        3.918660   -2.837962   -0.561711
      4          1           0        2.399730   -0.532701   -0.348496
      5          1           0        3.773711   -0.202780   -1.399425
      6          1           0        3.916620   -1.689211    1.269485
      7          1           0        5.289209   -1.359451    0.218362
      8          1           0        4.227458   -2.730265   -1.606530
      9          1           0        2.847070   -3.061897   -0.549435
     10          1           0        4.449457   -3.696106   -0.137797
     11          6           0        3.761796    0.950073    0.421838
     12          6           0        3.033349    2.168039   -0.147290
     13          6           0        3.324193    3.449443    0.634507
     14          1           0        3.469142    0.814261    1.472221
     15          1           0        4.843123    1.144182    0.421292
     16          1           0        1.953644    1.970933   -0.145566
     17          1           0        3.326233    2.300692   -1.196689
     18          1           0        4.395782    3.673379    0.622231
     19          1           0        3.015395    3.341746    1.679326
     20          1           0        2.793396    4.307587    0.210593
     21          6           0       -0.561585   -1.343438    0.031360
     22          6           0       -1.609412   -1.853777    0.804751
     23          6           0       -2.870035   -1.249841    0.779447
     24          6           0       -3.048468   -0.132073   -0.034217
     25          6           0       -2.024354    0.399931   -0.816170
     26          6           0       -0.772029   -0.220192   -0.775209
     27          1           0        0.414473   -1.818877    0.057099
     28          1           0       -1.448868   -2.725980    1.432073
     29          1           0       -3.698754   -1.624157    1.368115
     30          1           0       -2.214834    1.270701   -1.431714
     31          1           0        0.039891    0.178322   -1.376889
     32          7           0       -4.378640    0.515856   -0.069292
     33          8           0       -4.510138    1.499500   -0.794406
     34          8           0       -5.264543    0.027789    0.628993
 ---------------------------------------------------------------------

 SCF Done:  E(RHF) =  -669.535176142     A.U. after   15 cycles
 E2 =    -0.2092605622D+01 EUMP2 =    -0.67162778176370D+03

 The electronic state is 1-A.
 Alpha  occ. eigenvalues --  -20.60757 -20.60752 -15.85811 -11.31182 -11.27755
 Alpha  occ. eigenvalues --  -11.27748 -11.27476 -11.26765 -11.26738 -11.22661
 Alpha  occ. eigenvalues --  -11.22559 -11.22416 -11.22257 -11.22195 -11.21659
 Alpha  occ. eigenvalues --   -1.59833  -1.39386  -1.19355  -1.09429  -1.08748
 Alpha  occ. eigenvalues --   -1.04757  -1.04450  -0.96899  -0.95587  -0.87908
 Alpha  occ. eigenvalues --   -0.86158  -0.82418  -0.80526  -0.79261  -0.77456
 Alpha  occ. eigenvalues --   -0.72029  -0.71156  -0.70506  -0.66096  -0.65003
 Alpha  occ. eigenvalues --   -0.64724  -0.62105  -0.61848  -0.60274  -0.58505
 Alpha  occ. eigenvalues --   -0.56202  -0.55274  -0.53557  -0.53320  -0.53084
 Alpha  occ. eigenvalues --   -0.52846  -0.50845  -0.48840  -0.48786  -0.48777
 Alpha  occ. eigenvalues --   -0.47564  -0.46765  -0.46671  -0.44790  -0.44715
 Alpha  occ. eigenvalues --   -0.37327  -0.36356
 Alpha virt. eigenvalues --    0.05062   0.11181   0.16508   0.18687   0.22428
 Alpha virt. eigenvalues --    0.22836   0.25054   0.25666   0.26474   0.27985
 Alpha virt. eigenvalues --    0.29273   0.30601   0.31037   0.31274   0.32005

 Mulliken charges:
               1
     1  C   -0.304520
     2  C   -0.301279
     3  C   -0.477271
     4  H    0.141489
     5  H    0.152450
     6  H    0.152638
     7  H    0.157490
     8  H    0.159306
     9  H    0.146776
    10  H    0.165301
    11  C   -0.297783
    12  C   -0.303285
    13  C   -0.476155
    14  H    0.151877
    15  H    0.153485
    16  H    0.149938
    17  H    0.152225
    18  H    0.156929
    19  H    0.157531
    20  H    0.163044
    21  C   -0.176782
    22  C   -0.219719
    23  C   -0.170510
    24  C    0.158248
    25  C   -0.171167
    26  C   -0.222881
    27  H    0.232553
    28  H    0.223696
    29  H    0.275601
    30  H    0.275773
    31  H    0.227742
    32  N    0.488044
    33  O   -0.460362
    34  O   -0.460420
 Sum of Mulliken charges =  -0.00000

 Dipole moment (field-independent basis, Debye):
    X=              4.9158    Y=             -2.2163    Z=              0.1644  Tot=              5.3948
 Quadrupole moment (field-independent basis, Debye-Ang):
   XX=           -121.5812   YY=            -92.9044   ZZ=            -92.9234
   XY=              7.7938   XZ=             -2.2991   YZ=             -3.0382

 Normal termination of Gaussian 16 at Thu May  6 08:54:39 2021.
