 Gaussian 16, Revision A.03,
 Gaussian 16:  EM64L-G16RevA.03 25-Dec-2016

 -------------
 #p 6-31g* mp2
 -------------

 ------------------------------------------------------
 Input file generated by CHIRIPA (05-May-2021 14:51:13)
 ------------------------------------------------------
 Symbolic Z-matrix:
 Charge =  0 Multiplicity = 1

                         Standard orientation:
 ---------------------------------------------------------------------
 Center     Atomic      Atomic             Coordinates (Angstroms)
 Number     Number       Type             X           Y           Z
 ---------------------------------------------------------------------
      1          6           0       -4.010995    0.464318    0.129592
      2          6           0       -3.787873    1.976050    0.076050
      3          6           0       -4.944855    2.766411    0.688028
      4          1           0       -4.943535    0.218856   -0.396776
      5          1           0       -4.152560    0.158410    1.175429
      6          1           0       -3.645393    2.278816   -0.969248
      7          1           0       -2.855657    2.217921    0.602441
      8          1           0       -5.084916    2.492982    1.738847
      9          1           0       -5.879140    2.554223    0.158228
     10          1           0       -4.764541    3.844819    0.639207
     11          6           0       -2.862928   -0.339415   -0.478424
     12          6           0       -3.086050   -1.851147   -0.424883
     13          6           0       -1.929068   -2.641508   -1.036861
     14          1           0       -2.721363   -0.033507   -1.524261
     15          1           0       -1.930388   -0.093953    0.047943
     16          1           0       -4.018266   -2.093018   -0.951274
     17          1           0       -3.228529   -2.153913    0.620416
     18          1           0       -0.994783   -2.429320   -0.507060
     19          1           0       -1.789006   -2.368079   -2.087680
     20          1           0       -2.109382   -3.719916   -0.988040
     21          6           0        3.543237    0.584978   -0.216701
     22          6           0        4.902263    1.235156    0.044646
     23          6           0        5.099997    2.529465   -0.744948
     24          1           0        3.442713    0.379630   -1.291257
     25          1           0        2.747851    1.297955    0.041022
     26          1           0        5.694832    0.520672   -0.212186
     27          1           0        4.999642    1.438805    1.118732
     28          1           0        4.330299    3.262383   -0.482275
     29          1           0        5.029440    2.339032   -1.820754
     30          1           0        6.077985    2.977428   -0.543135
     31          6           0        3.330686   -0.709881    0.565534
     32          6           0        1.971660   -1.360059    0.304187
     33          6           0        1.773925   -2.654368    1.093781
     34          1           0        4.126072   -1.422858    0.307811
     35          1           0        3.431210   -0.504533    1.640090
     36          1           0        1.874281   -1.563708   -0.769900
     37          1           0        1.179091   -0.645574    0.561018
     38          1           0        1.844484   -2.463935    2.169587
     39          1           0        2.543623   -3.387286    0.831107
     40          1           0        0.795938   -3.102331    0.891968
 ---------------------------------------------------------------------

 SCF Done:  E(RHF) =  -470.733203169     A.U. after   11 cycles
 E2 =    -0.1582911650D+01 EUMP2 =    -0.47231611481896D+03

 The electronic state is 1-A.
 Alpha  occ. eigenvalues --  -11.21631 -11.21607 -11.21606 -11.21589 -11.21420
 Alpha  occ. eigenvalues --  -11.21402 -11.21359 -11.21342 -11.21075 -11.21074
 Alpha  occ. eigenvalues --  -11.21072 -11.21024  -1.08451  -1.08420  -1.03570
 Alpha  occ. eigenvalues --   -1.03501  -0.96033  -0.95936  -0.87044  -0.86957
 Alpha  occ. eigenvalues --   -0.79621  -0.79577  -0.78285  -0.78209  -0.65090
 Alpha  occ. eigenvalues --   -0.65047  -0.60981  -0.60932  -0.59409  -0.59314
 Alpha  occ. eigenvalues --   -0.57755  -0.57466  -0.55276  -0.55243  -0.52760
 Alpha  occ. eigenvalues --   -0.52644  -0.52501  -0.52262  -0.49932  -0.49875
 Alpha  occ. eigenvalues --   -0.47925  -0.47890  -0.46658  -0.46594  -0.45876
 Alpha  occ. eigenvalues --   -0.45745  -0.45736  -0.45623  -0.43810  -0.43765
 Alpha virt. eigenvalues --    0.20998   0.23118   0.23437   0.25041   0.25628
 Alpha virt. eigenvalues --    0.26543   0.27111   0.27179   0.28178   0.29052
 Alpha virt. eigenvalues --    0.30817   0.30896   0.31599   0.31754   0.31952

 Mulliken charges:
               1
     1  C   -0.298336
     2  C   -0.299567
     3  C   -0.475704
     4  H    0.149747
     5  H    0.149468
     6  H    0.152035
     7  H    0.151619
     8  H    0.155151
     9  H    0.155235
    10  H    0.160227
    11  C   -0.299518
    12  C   -0.299207
    13  C   -0.485160
    14  H    0.149701
    15  H    0.150558
    16  H    0.151927
    17  H    0.151695
    18  H    0.165712
    19  H    0.155172
    20  H    0.159721
    21  C   -0.298320
    22  C   -0.299689
    23  C   -0.475711
    24  H    0.149908
    25  H    0.149502
    26  H    0.151972
    27  H    0.151889
    28  H    0.155206
    29  H    0.155246
    30  H    0.160265
    31  C   -0.298494
    32  C   -0.301392
    33  C   -0.481062
    34  H    0.149832
    35  H    0.149605
    36  H    0.153434
    37  H    0.151993
    38  H    0.155073
    39  H    0.155794
    40  H    0.164474
 Sum of Mulliken charges =  -0.00000

 Dipole moment (field-independent basis, Debye):
    X=              0.0183    Y=             -0.0023    Z=             -0.0097  Tot=              0.0209
 Quadrupole moment (field-independent basis, Debye-Ang):
   XX=            -85.0875   YY=            -85.9292   ZZ=            -83.7619
   XY=             -0.0225   XZ=              0.5346   YZ=              0.5739

 Normal termination of Gaussian 16 at Thu May  6 07:08:54 2021.
