 Gaussian 16, Revision A.03,
 Gaussian 16:  EM64L-G16RevA.03 25-Dec-2016

 -------------
 #p 6-31g* mp2
 -------------

 ------------------------------------------------------
 Input file generated by CHIRIPA (05-May-2021 14:57:23)
 ------------------------------------------------------
 Symbolic Z-matrix:
 Charge =  0 Multiplicity = 1

                         Standard orientation:
 ---------------------------------------------------------------------
 Center     Atomic      Atomic             Coordinates (Angstroms)
 Number     Number       Type             X           Y           Z
 ---------------------------------------------------------------------
      1          6           0        5.630110    0.732153   -0.743111
      2          6           0        5.252601   -0.550071   -1.155310
      3          6           0        4.061268   -1.120954   -0.697747
      4          6           0        3.267839   -0.378132    0.175166
      5          6           0        3.616702    0.901576    0.604039
      6          6           0        4.812398    1.452614    0.133702
      7          1           0        6.557261    1.167921   -1.103519
      8          1           0        5.885680   -1.111904   -1.836193
      9          1           0        3.744960   -2.111672   -1.000808
     10          1           0        2.964880    1.437266    1.283438
     11          1           0        5.103055    2.448610    0.455504
     12          7           0        2.004319   -0.971995    0.666329
     13          8           0        1.322816   -0.296990    1.434807
     14          8           0        1.719399   -2.101226    0.273525
     15          6           0       -4.824597   -1.846612   -0.248713
     16          6           0       -5.412437   -0.619846   -0.574305
     17          6           0       -4.674777    0.564929   -0.492352
     18          6           0       -3.345714    0.485873   -0.079280
     19          6           0       -2.731772   -0.721070    0.251862
     20          6           0       -3.488496   -1.893226    0.162607
     21          1           0       -5.405033   -2.762072   -0.315212
     22          1           0       -6.449873   -0.580628   -0.894042
     23          1           0       -5.104927    1.528163   -0.738462
     24          1           0       -1.695532   -0.728381    0.567411
     25          1           0       -3.029358   -2.844533    0.416091
     26          7           0       -2.554695    1.733462    0.011346
     27          8           0       -1.385538    1.636981    0.377948
     28          8           0       -3.118832    2.784179   -0.285942
 ---------------------------------------------------------------------

 SCF Done:  E(RHF) =  -868.339910023     A.U. after   16 cycles
 E2 =    -0.2599358075D+01 EUMP2 =    -0.87093926809867D+03

 The electronic state is 1-A.
 Alpha  occ. eigenvalues --  -20.60816 -20.60677 -20.59843 -20.59795 -15.85734
 Alpha  occ. eigenvalues --  -15.84867 -11.30944 -11.30156 -11.27546 -11.27437
 Alpha  occ. eigenvalues --  -11.27252 -11.26835 -11.26557 -11.26537 -11.26525
 Alpha  occ. eigenvalues --  -11.26455 -11.25849 -11.25670  -1.59795  -1.58911
 Alpha  occ. eigenvalues --   -1.39343  -1.38455  -1.19110  -1.18353  -1.08546
 Alpha  occ. eigenvalues --   -1.07785  -1.04488  -1.03726  -0.95402  -0.94612
 Alpha  occ. eigenvalues --   -0.85896  -0.85137  -0.82234  -0.81427  -0.77293
 Alpha  occ. eigenvalues --   -0.76459  -0.71967  -0.71171  -0.70983  -0.70240
 Alpha  occ. eigenvalues --   -0.70227  -0.69463  -0.64768  -0.64501  -0.64001
 Alpha  occ. eigenvalues --   -0.63732  -0.61831  -0.61033  -0.55022  -0.54286
 Alpha  occ. eigenvalues --   -0.52828  -0.52582  -0.52101  -0.51806  -0.48757
 Alpha  occ. eigenvalues --   -0.48726  -0.47875  -0.47823  -0.44751  -0.43881
 Alpha  occ. eigenvalues --   -0.37094  -0.36387  -0.36080  -0.35336
 Alpha virt. eigenvalues --    0.05210   0.06030   0.11577   0.12306   0.16714
 Alpha virt. eigenvalues --    0.17509   0.21685   0.22474   0.27621   0.28384
 Alpha virt. eigenvalues --    0.28593   0.29439   0.31232   0.31959   0.32867

 Mulliken charges:
               1
     1  C   -0.170251
     2  C   -0.219003
     3  C   -0.171097
     4  C    0.158309
     5  C   -0.167901
     6  C   -0.218994
     7  H    0.225137
     8  H    0.222093
     9  H    0.273271
    10  H    0.282213
    11  H    0.224755
    12  N    0.488465
    13  O   -0.452156
    14  O   -0.470080
    15  C   -0.171242
    16  C   -0.219904
    17  C   -0.172078
    18  C    0.155016
    19  C   -0.177445
    20  C   -0.221441
    21  H    0.222167
    22  H    0.219203
    23  H    0.271816
    24  H    0.297404
    25  H    0.227273
    26  N    0.486725
    27  O   -0.454482
    28  O   -0.467774
 Sum of Mulliken charges =  -0.00000

 Dipole moment (field-independent basis, Debye):
    X=              2.0423    Y=             -2.2507    Z=             -1.8785  Tot=              3.5728
 Quadrupole moment (field-independent basis, Debye-Ang):
   XX=            -56.2993   YY=           -107.0046   ZZ=           -104.8742
   XY=             16.3144   XZ=             -3.0107   YZ=              2.9483

 Normal termination of Gaussian 16 at Thu May  6 00:14:25 2021.
