 Gaussian 16, Revision A.03,
 Gaussian 16:  EM64L-G16RevA.03 25-Dec-2016

 -------------
 #p 6-31g* mp2
 -------------

 ------------------------------------------------------
 Input file generated by CHIRIPA (05-May-2021 14:57:25)
 ------------------------------------------------------
 Symbolic Z-matrix:
 Charge =  0 Multiplicity = 1

                         Standard orientation:
 ---------------------------------------------------------------------
 Center     Atomic      Atomic             Coordinates (Angstroms)
 Number     Number       Type             X           Y           Z
 ---------------------------------------------------------------------
      1          6           0       -1.197814   -1.529381    0.899677
      2          6           0       -1.298470   -1.094541   -0.425956
      3          6           0       -2.451881   -0.443901   -0.874127
      4          6           0       -3.490110   -0.243745    0.034339
      5          6           0       -3.419884   -0.665267    1.361244
      6          6           0       -2.256975   -1.313736    1.787481
      7          1           0       -0.298128   -2.033970    1.239308
      8          1           0       -0.477488   -1.260655   -1.117649
      9          1           0       -2.556331   -0.096922   -1.894967
     10          1           0       -4.254887   -0.485353    2.027442
     11          1           0       -2.181585   -1.650353    2.817554
     12          7           0       -4.716202    0.443910   -0.428510
     13          8           0       -5.616862    0.608154    0.391534
     14          8           0       -4.753337    0.805628   -1.602570
     15          6           0        2.120065    2.556036    0.297243
     16          6           0        1.604004    1.652059   -0.637117
     17          6           0        2.242834    0.430738   -0.871246
     18          6           0        3.400950    0.144492   -0.150053
     19          6           0        3.939686    1.024364    0.787434
     20          6           0        3.284206    2.239861    1.005288
     21          1           0        1.617338    3.502527    0.472798
     22          1           0        0.700077    1.894945   -1.188451
     23          1           0        1.864998   -0.287430   -1.588808
     24          1           0        4.842467    0.754206    1.321680
     25          1           0        3.687258    2.939978    1.731531
     26          7           0        4.086064   -1.145384   -0.389300
     27          8           0        5.104928   -1.373897    0.259033
     28          8           0        3.591220   -1.903452   -1.220624
 ---------------------------------------------------------------------

 SCF Done:  E(RHF) =  -868.337699843     A.U. after   16 cycles
 E2 =    -0.2600420792D+01 EUMP2 =    -0.87093812063531D+03

 The electronic state is 1-A.
 Alpha  occ. eigenvalues --  -20.61544 -20.61516 -20.61125 -20.61116 -15.86583
 Alpha  occ. eigenvalues --  -15.86179 -11.31924 -11.31552 -11.28531 -11.28413
 Alpha  occ. eigenvalues --  -11.28159 -11.28103 -11.28101 -11.27794 -11.27447
 Alpha  occ. eigenvalues --  -11.27410 -11.27154 -11.27077  -1.60611  -1.60201
 Alpha  occ. eigenvalues --   -1.40166  -1.39754  -1.20065  -1.19721  -1.09445
 Alpha  occ. eigenvalues --   -1.09094  -1.05470  -1.05130  -0.96298  -0.95930
 Alpha  occ. eigenvalues --   -0.86855  -0.86517  -0.83134  -0.82771  -0.78222
 Alpha  occ. eigenvalues --   -0.77824  -0.72793  -0.72392  -0.71942  -0.71529
 Alpha  occ. eigenvalues --   -0.71155  -0.70777  -0.65714  -0.65488  -0.65360
 Alpha  occ. eigenvalues --   -0.65107  -0.62895  -0.62399  -0.55910  -0.55560
 Alpha  occ. eigenvalues --   -0.53846  -0.53595  -0.53387  -0.53160  -0.49565
 Alpha  occ. eigenvalues --   -0.49542  -0.49154  -0.49148  -0.45576  -0.45159
 Alpha  occ. eigenvalues --   -0.38009  -0.37758  -0.37136  -0.36565
 Alpha virt. eigenvalues --    0.04298   0.04699   0.10530   0.10903   0.15803
 Alpha virt. eigenvalues --    0.16219   0.19327   0.21814   0.24886   0.27070
 Alpha virt. eigenvalues --    0.28023   0.28852   0.29858   0.30938   0.31814

 Mulliken charges:
               1
     1  C   -0.169984
     2  C   -0.220701
     3  C   -0.176126
     4  C    0.158585
     5  C   -0.170927
     6  C   -0.219049
     7  H    0.231739
     8  H    0.223264
     9  H    0.273878
    10  H    0.276386
    11  H    0.225385
    12  N    0.487950
    13  O   -0.459342
    14  O   -0.461225
    15  C   -0.171071
    16  C   -0.214041
    17  C   -0.178455
    18  C    0.158121
    19  C   -0.171637
    20  C   -0.217945
    21  H    0.229847
    22  H    0.225823
    23  H    0.269733
    24  H    0.277005
    25  H    0.226180
    26  N    0.487463
    27  O   -0.457281
    28  O   -0.463574
 Sum of Mulliken charges =  -0.00000

 Dipole moment (field-independent basis, Debye):
    X=              1.9813    Y=              2.2176    Z=              2.6751  Tot=              3.9999
 Quadrupole moment (field-independent basis, Debye-Ang):
   XX=           -148.9571   YY=           -102.8614   ZZ=            -99.0000
   XY=             24.2037   XZ=             -1.6178   YZ=             -0.6593

 Normal termination of Gaussian 16 at Fri May  7 01:56:25 2021.
