 Gaussian 16, Revision A.03,
 Gaussian 16:  EM64L-G16RevA.03 25-Dec-2016

 -------------
 #p 6-31g* mp2
 -------------

 ------------------------------------------------------
 Input file generated by CHIRIPA (05-May-2021 14:51:14)
 ------------------------------------------------------
 Symbolic Z-matrix:
 Charge =  0 Multiplicity = 1

                         Standard orientation:
 ---------------------------------------------------------------------
 Center     Atomic      Atomic             Coordinates (Angstroms)
 Number     Number       Type             X           Y           Z
 ---------------------------------------------------------------------
      1          6           0        2.780488   -0.362242   -0.312047
      2          6           0        2.039882   -1.186485   -1.365665
      3          6           0        2.887895   -2.328651   -1.926133
      4          1           0        3.700235    0.044769   -0.754034
      5          1           0        3.093719   -1.023878    0.507416
      6          1           0        1.726933   -0.523245   -2.182238
      7          1           0        1.121694   -1.591423   -0.921174
      8          1           0        3.188723   -3.013350   -1.126576
      9          1           0        3.797400   -1.939104   -2.394806
     10          1           0        2.339067   -2.904823   -2.677582
     11          6           0        1.945758    0.783339    0.257689
     12          6           0        2.686364    1.607582    1.311307
     13          6           0        1.838351    2.749748    1.871775
     14          1           0        1.632527    1.444975   -0.561774
     15          1           0        1.026011    0.376328    0.699676
     16          1           0        3.604552    2.012520    0.866816
     17          1           0        2.999313    0.944343    2.127880
     18          1           0        0.928846    2.360201    2.340448
     19          1           0        1.537523    3.434447    1.072218
     20          1           0        2.387178    3.325920    2.623224
     21          6           0       -2.674974    0.456644   -0.175395
     22          6           0       -2.293217    0.900386   -1.587959
     23          6           0       -2.924826    2.236865   -1.978714
     24          1           0       -3.768723    0.381574   -0.104528
     25          1           0       -2.367826    1.231635    0.540457
     26          1           0       -2.599751    0.124163   -2.300792
     27          1           0       -1.200240    0.974222   -1.655526
     28          1           0       -2.609593    3.027790   -1.290481
     29          1           0       -4.017056    2.172902   -1.939414
     30          1           0       -2.638696    2.535073   -2.992154
     31          6           0       -2.051272   -0.877740    0.229752
     32          6           0       -2.433029   -1.321483    1.642317
     33          6           0       -1.801419   -2.657961    2.033072
     34          1           0       -2.358420   -1.652733   -0.486099
     35          1           0       -0.957523   -0.802672    0.158887
     36          1           0       -3.526006   -1.395319    1.709884
     37          1           0       -2.126494   -0.545260    2.355150
     38          1           0       -0.709191   -2.593999    1.993772
     39          1           0       -2.116653   -3.448887    1.344839
     40          1           0       -2.087550   -2.956170    3.046513
 ---------------------------------------------------------------------

 SCF Done:  E(RHF) =  -470.732885197     A.U. after   11 cycles
 E2 =    -0.1584627913D+01 EUMP2 =    -0.47231751311069D+03

 The electronic state is 1-A.
 Alpha  occ. eigenvalues --  -11.21678 -11.21623 -11.21614 -11.21540 -11.21484
 Alpha  occ. eigenvalues --  -11.21417 -11.21366 -11.21304 -11.21148 -11.21121
 Alpha  occ. eigenvalues --  -11.21084 -11.21036  -1.08524  -1.08394  -1.03582
 Alpha  occ. eigenvalues --   -1.03521  -0.96039  -0.95971  -0.87051  -0.86990
 Alpha  occ. eigenvalues --   -0.79651  -0.79580  -0.78506  -0.78063  -0.65317
 Alpha  occ. eigenvalues --   -0.64891  -0.60984  -0.60915  -0.59404  -0.59339
 Alpha  occ. eigenvalues --   -0.57654  -0.57578  -0.55380  -0.55221  -0.52735
 Alpha  occ. eigenvalues --   -0.52662  -0.52461  -0.52402  -0.50002  -0.49910
 Alpha  occ. eigenvalues --   -0.47992  -0.47904  -0.46784  -0.46658  -0.46457
 Alpha  occ. eigenvalues --   -0.45739  -0.45721  -0.44930  -0.43837  -0.43765
 Alpha virt. eigenvalues --    0.20009   0.23108   0.23434   0.23943   0.25197
 Alpha virt. eigenvalues --    0.26318   0.26973   0.27795   0.28134   0.30759
 Alpha virt. eigenvalues --    0.31164   0.31504   0.31531   0.31968   0.32045

 Mulliken charges:
               1
     1  C   -0.298180
     2  C   -0.305939
     3  C   -0.475399
     4  H    0.149979
     5  H    0.149298
     6  H    0.152326
     7  H    0.157924
     8  H    0.155205
     9  H    0.155109
    10  H    0.160638
    11  C   -0.305743
    12  C   -0.299217
    13  C   -0.475807
    14  H    0.150418
    15  H    0.154966
    16  H    0.152434
    17  H    0.152179
    18  H    0.154591
    19  H    0.155291
    20  H    0.160791
    21  C   -0.297414
    22  C   -0.302551
    23  C   -0.475782
    24  H    0.149501
    25  H    0.149431
    26  H    0.151538
    27  H    0.155426
    28  H    0.155257
    29  H    0.155024
    30  H    0.159834
    31  C   -0.311139
    32  C   -0.299251
    33  C   -0.475826
    34  H    0.149371
    35  H    0.162364
    36  H    0.152352
    37  H    0.151099
    38  H    0.153764
    39  H    0.155556
    40  H    0.160584
 Sum of Mulliken charges =  -0.00000

 Dipole moment (field-independent basis, Debye):
    X=              0.0315    Y=             -0.0019    Z=             -0.0059  Tot=              0.0321
 Quadrupole moment (field-independent basis, Debye-Ang):
   XX=            -84.4020   YY=            -85.8098   ZZ=            -84.5649
   XY=              1.4565   XZ=              0.1206   YZ=             -0.2611

 Normal termination of Gaussian 16 at Wed May  5 20:00:44 2021.
