 Gaussian 16, Revision A.03,
 Gaussian 16:  EM64L-G16RevA.03 25-Dec-2016

 -------------
 #p 6-31g* mp2
 -------------

 ------------------------------------------------------
 Input file generated by CHIRIPA (05-May-2021 14:57:25)
 ------------------------------------------------------
 Symbolic Z-matrix:
 Charge =  0 Multiplicity = 1

                         Standard orientation:
 ---------------------------------------------------------------------
 Center     Atomic      Atomic             Coordinates (Angstroms)
 Number     Number       Type             X           Y           Z
 ---------------------------------------------------------------------
      1          6           0        1.242459   -0.696266    0.328244
      2          6           0        1.602558    0.447845   -0.391381
      3          6           0        2.948241    0.741847   -0.630648
      4          6           0        3.912093   -0.134011   -0.133503
      5          6           0        3.585027   -1.281750    0.586922
      6          6           0        2.233096   -1.555896    0.814242
      7          1           0        0.194673   -0.916941    0.509472
      8          1           0        0.835356    1.117238   -0.770010
      9          1           0        3.254997    1.620667   -1.184718
     10          1           0        4.372368   -1.930141    0.951754
     11          1           0        1.956372   -2.445152    1.373431
     12          7           0        5.340014    0.166726   -0.380481
     13          8           0        6.170127   -0.620856    0.068145
     14          8           0        5.602069    1.184331   -1.018011
     15          6           0       -5.062592   -1.625913   -0.989388
     16          6           0       -4.156415   -1.950791    0.025411
     17          6           0       -3.383373   -0.956374    0.632115
     18          6           0       -3.542776    0.358510    0.197420
     19          6           0       -4.437097    0.713814   -0.811163
     20          6           0       -5.199800   -0.296990   -1.403706
     21          1           0       -5.659094   -2.404764   -1.455190
     22          1           0       -4.047758   -2.982003    0.349201
     23          1           0       -2.674316   -1.179983    1.419932
     24          1           0       -4.523287    1.750699   -1.112590
     25          1           0       -5.902760   -0.041762   -2.191582
     26          7           0       -2.729865    1.419929    0.832215
     27          8           0       -2.888978    2.570812    0.431229
     28          8           0       -1.948984    1.080889    1.718733
 ---------------------------------------------------------------------

 SCF Done:  E(RHF) =  -868.338566502     A.U. after   16 cycles
 E2 =    -0.2599536611D+01 EUMP2 =    -0.87093810311392D+03

 The electronic state is 1-A.
 Alpha  occ. eigenvalues --  -20.61936 -20.61904 -20.60330 -20.60321 -15.86946
 Alpha  occ. eigenvalues --  -15.85379 -11.32218 -11.30649 -11.28807 -11.28701
 Alpha  occ. eigenvalues --  -11.28408 -11.27743 -11.27682 -11.27248 -11.27183
 Alpha  occ. eigenvalues --  -11.26911 -11.26250 -11.26134  -1.60993  -1.59406
 Alpha  occ. eigenvalues --   -1.40547  -1.38962  -1.20358  -1.18812  -1.09761
 Alpha  occ. eigenvalues --   -1.08216  -1.05738  -1.04206  -0.96616  -0.95070
 Alpha  occ. eigenvalues --   -0.87138  -0.85606  -0.83445  -0.81910  -0.78527
 Alpha  occ. eigenvalues --   -0.76976  -0.73151  -0.72334  -0.71600  -0.71440
 Alpha  occ. eigenvalues --   -0.70727  -0.69904  -0.65999  -0.65719  -0.64465
 Alpha  occ. eigenvalues --   -0.64211  -0.63090  -0.61563  -0.56204  -0.54709
 Alpha  occ. eigenvalues --   -0.54067  -0.53809  -0.52529  -0.52300  -0.49929
 Alpha  occ. eigenvalues --   -0.49900  -0.48360  -0.48350  -0.45955  -0.44389
 Alpha  occ. eigenvalues --   -0.38310  -0.37337  -0.36757  -0.35807
 Alpha virt. eigenvalues --    0.03954   0.05568   0.10213   0.11855   0.15511
 Alpha virt. eigenvalues --    0.17093   0.20061   0.21822   0.25724   0.26962
 Alpha virt. eigenvalues --    0.27765   0.28607   0.30493   0.30836   0.32895

 Mulliken charges:
               1
     1  C   -0.165824
     2  C   -0.216516
     3  C   -0.171482
     4  C    0.157834
     5  C   -0.171314
     6  C   -0.219722
     7  H    0.224353
     8  H    0.226693
     9  H    0.275161
    10  H    0.273400
    11  H    0.218951
    12  N    0.488181
    13  O   -0.462381
    14  O   -0.461035
    15  C   -0.170034
    16  C   -0.217408
    17  C   -0.177214
    18  C    0.157512
    19  C   -0.170827
    20  C   -0.217533
    21  H    0.229309
    22  H    0.225544
    23  H    0.271997
    24  H    0.277887
    25  H    0.227267
    26  N    0.486182
    27  O   -0.455375
    28  O   -0.463606
 Sum of Mulliken charges =  -0.00000

 Dipole moment (field-independent basis, Debye):
    X=             -8.3348    Y=             -4.6946    Z=             -1.4593  Tot=              9.6767
 Quadrupole moment (field-independent basis, Debye-Ang):
   XX=           -123.0589   YY=           -101.8511   ZZ=           -104.0745
   XY=              6.2824   XZ=             14.2795   YZ=             -6.1507

 Normal termination of Gaussian 16 at Fri May  7 08:04:39 2021.
