 Gaussian 16, Revision A.03,
 Gaussian 16:  EM64L-G16RevA.03 25-Dec-2016

 -------------
 #p 6-31g* mp2
 -------------

 ------------------------------------------------------
 Input file generated by CHIRIPA (05-May-2021 14:51:13)
 ------------------------------------------------------
 Symbolic Z-matrix:
 Charge =  0 Multiplicity = 1

                         Standard orientation:
 ---------------------------------------------------------------------
 Center     Atomic      Atomic             Coordinates (Angstroms)
 Number     Number       Type             X           Y           Z
 ---------------------------------------------------------------------
      1          6           0        2.534686   -0.550936   -0.343751
      2          6           0        2.970854   -2.011459   -0.464652
      3          6           0        1.835340   -2.932410   -0.912145
      4          1           0        1.701737   -0.481470    0.369211
      5          1           0        2.145518   -0.210303   -1.313242
      6          1           0        3.360366   -2.348821    0.504411
      7          1           0        3.802987   -2.077430   -1.177265
      8          1           0        1.451123   -2.623304   -1.889607
      9          1           0        1.005987   -2.896237   -0.198376
     10          1           0        2.169125   -3.971674   -0.992010
     11          6           0        3.658910    0.382078    0.102717
     12          6           0        3.222743    1.842600    0.223618
     13          6           0        4.358256    2.763552    0.671112
     14          1           0        4.048078    0.041444    1.072208
     15          1           0        4.491859    0.312611   -0.610245
     16          1           0        2.390609    1.908572    0.936231
     17          1           0        2.833230    2.179963   -0.745445
     18          1           0        5.187609    2.727378   -0.042658
     19          1           0        4.742473    2.454446    1.648573
     20          1           0        4.024472    3.802816    0.750976
     21          6           0       -3.558760    0.608668   -0.188023
     22          6           0       -3.011080    2.032850   -0.089348
     23          6           0       -3.946508    3.070325   -0.710970
     24          1           0       -3.732312    0.361736   -1.244361
     25          1           0       -4.538141    0.564703    0.308239
     26          1           0       -2.032397    2.073790   -0.584443
     27          1           0       -2.838631    2.276350    0.966864
     28          1           0       -4.920801    3.058723   -0.211753
     29          1           0       -4.109986    2.855011   -1.771874
     30          1           0       -3.535529    4.081414   -0.629401
     31          6           0       -2.634836   -0.439810    0.429057
     32          6           0       -3.182516   -1.863991    0.330382
     33          6           0       -2.247088   -2.901466    0.952004
     34          1           0       -1.655455   -0.395844   -0.067205
     35          1           0       -2.461284   -0.192877    1.485395
     36          1           0       -3.354965   -2.107492   -0.725831
     37          1           0       -4.161200   -1.904931    0.825476
     38          1           0       -2.083611   -2.686152    2.012907
     39          1           0       -1.272794   -2.889865    0.452786
     40          1           0       -2.658068   -3.912556    0.870435
 ---------------------------------------------------------------------

 SCF Done:  E(RHF) =  -470.733418677     A.U. after   11 cycles
 E2 =    -0.1582745046D+01 EUMP2 =    -0.47231616372223D+03

 The electronic state is 1-A.
 Alpha  occ. eigenvalues --  -11.21623 -11.21605 -11.21584 -11.21583 -11.21423
 Alpha  occ. eigenvalues --  -11.21388 -11.21363 -11.21329 -11.21096 -11.21074
 Alpha  occ. eigenvalues --  -11.21059 -11.21044  -1.08447  -1.08412  -1.03551
 Alpha  occ. eigenvalues --   -1.03508  -0.96013  -0.95950  -0.87043  -0.86956
 Alpha  occ. eigenvalues --   -0.79644  -0.79543  -0.78283  -0.78201  -0.65100
 Alpha  occ. eigenvalues --   -0.65021  -0.61026  -0.60844  -0.59374  -0.59320
 Alpha  occ. eigenvalues --   -0.57679  -0.57520  -0.55432  -0.55127  -0.52692
 Alpha  occ. eigenvalues --   -0.52655  -0.52542  -0.52279  -0.50100  -0.49745
 Alpha  occ. eigenvalues --   -0.48049  -0.47788  -0.46745  -0.46490  -0.45935
 Alpha  occ. eigenvalues --   -0.45754  -0.45724  -0.45508  -0.43800  -0.43768
 Alpha virt. eigenvalues --    0.21229   0.23210   0.23433   0.24843   0.25700
 Alpha virt. eigenvalues --    0.26682   0.26864   0.27117   0.28500   0.29097
 Alpha virt. eigenvalues --    0.30279   0.31699   0.31749   0.31917   0.31978

 Mulliken charges:
               1
     1  C   -0.299732
     2  C   -0.299110
     3  C   -0.483563
     4  H    0.151067
     5  H    0.148991
     6  H    0.152255
     7  H    0.152066
     8  H    0.154759
     9  H    0.162286
    10  H    0.160975
    11  C   -0.298276
    12  C   -0.299783
    13  C   -0.475723
    14  H    0.149706
    15  H    0.149701
    16  H    0.152446
    17  H    0.151689
    18  H    0.155138
    19  H    0.155228
    20  H    0.160311
    21  C   -0.298230
    22  C   -0.299781
    23  C   -0.475697
    24  H    0.149686
    25  H    0.149473
    26  H    0.152453
    27  H    0.151708
    28  H    0.155110
    29  H    0.155136
    30  H    0.160214
    31  C   -0.299878
    32  C   -0.298922
    33  C   -0.483849
    34  H    0.151161
    35  H    0.149107
    36  H    0.152150
    37  H    0.151830
    38  H    0.154603
    39  H    0.162662
    40  H    0.160634
 Sum of Mulliken charges =  -0.00000

 Dipole moment (field-independent basis, Debye):
    X=              0.0171    Y=             -0.0055    Z=             -0.0014  Tot=              0.0180
 Quadrupole moment (field-independent basis, Debye-Ang):
   XX=            -85.3617   YY=            -86.1208   ZZ=            -83.2757
   XY=             -0.1073   XZ=             -1.0938   YZ=              0.0681

 Normal termination of Gaussian 16 at Wed May  5 18:22:48 2021.
