 Gaussian 16, Revision A.03,
 Gaussian 16:  EM64L-G16RevA.03 25-Dec-2016

 -------------
 #p 6-31g* mp2
 -------------

 ------------------------------------------------------
 Input file generated by CHIRIPA (05-May-2021 14:57:21)
 ------------------------------------------------------
 Symbolic Z-matrix:
 Charge =  0 Multiplicity = 1

                         Standard orientation:
 ---------------------------------------------------------------------
 Center     Atomic      Atomic             Coordinates (Angstroms)
 Number     Number       Type             X           Y           Z
 ---------------------------------------------------------------------
      1          6           0        4.880868    1.587603   -0.181611
      2          6           0        5.151989    0.374002    0.458846
      3          6           0        4.194300   -0.644165    0.485599
      4          6           0        2.970560   -0.413737   -0.141021
      5          6           0        2.670560    0.784451   -0.787268
      6          6           0        3.643200    1.788600   -0.801531
      7          1           0        5.630631    2.373095   -0.197542
      8          1           0        6.112311    0.215115    0.941115
      9          1           0        4.377834   -1.593359    0.974234
     10          1           0        1.704125    0.913435   -1.259268
     11          1           0        3.429881    2.730086   -1.299672
     12          7           0        1.948783   -1.484205   -0.119310
     13          8           0        0.878382   -1.256375   -0.678749
     14          8           0        2.237663   -2.530798    0.456735
     15          6           0       -2.787173    2.712539    0.484330
     16          6           0       -3.871353    2.257044   -0.273034
     17          6           0       -4.076049    0.887849   -0.467845
     18          6           0       -3.172971   -0.001985    0.111755
     19          6           0       -2.083337    0.420808    0.871516
     20          6           0       -1.898192    1.794586    1.053184
     21          1           0       -2.635754    3.777943    0.630560
     22          1           0       -4.563353    2.967650   -0.716001
     23          1           0       -4.907057    0.507840   -1.049600
     24          1           0       -1.410441   -0.311678    1.300578
     25          1           0       -1.055332    2.145459    1.641842
     26          7           0       -3.379324   -1.453916   -0.087526
     27          8           0       -2.569422   -2.217498    0.433663
     28          8           0       -4.347058   -1.800865   -0.761138
 ---------------------------------------------------------------------

 SCF Done:  E(RHF) =  -868.336568656     A.U. after   16 cycles
 E2 =    -0.2600321616D+01 EUMP2 =    -0.87093689027186D+03

 The electronic state is 1-A.
 Alpha  occ. eigenvalues --  -20.60855 -20.60837 -20.59792 -20.59687 -15.85900
 Alpha  occ. eigenvalues --  -15.84801 -11.31412 -11.30434 -11.28006 -11.27973
 Alpha  occ. eigenvalues --  -11.27754 -11.27119 -11.27051 -11.27013 -11.27005
 Alpha  occ. eigenvalues --  -11.26967 -11.26198 -11.26177  -1.59917  -1.58811
 Alpha  occ. eigenvalues --   -1.39468  -1.38352  -1.19597  -1.18674  -1.08961
 Alpha  occ. eigenvalues --   -1.08034  -1.05017  -1.04125  -0.95767  -0.94810
 Alpha  occ. eigenvalues --   -0.86406  -0.85510  -0.82595  -0.81644  -0.77627
 Alpha  occ. eigenvalues --   -0.76616  -0.72098  -0.71275  -0.71019  -0.70691
 Alpha  occ. eigenvalues --   -0.70128  -0.69800  -0.65241  -0.65011  -0.64331
 Alpha  occ. eigenvalues --   -0.64153  -0.62356  -0.61454  -0.55501  -0.54669
 Alpha  occ. eigenvalues --   -0.53348  -0.53103  -0.52443  -0.52230  -0.48853
 Alpha  occ. eigenvalues --   -0.48848  -0.47821  -0.47743  -0.44838  -0.43685
 Alpha  occ. eigenvalues --   -0.37589  -0.36707  -0.36632  -0.35730
 Alpha virt. eigenvalues --    0.04866   0.05948   0.11014   0.11913   0.16358
 Alpha virt. eigenvalues --    0.17323   0.21167   0.21934   0.27063   0.27733
 Alpha virt. eigenvalues --    0.28138   0.28882   0.30736   0.31428   0.32312

 Mulliken charges:
               1
     1  C   -0.171292
     2  C   -0.218520
     3  C   -0.171101
     4  C    0.157330
     5  C   -0.174355
     6  C   -0.219125
     7  H    0.225763
     8  H    0.224369
     9  H    0.277222
    10  H    0.275765
    11  H    0.222489
    12  N    0.485970
    13  O   -0.457996
    14  O   -0.454905
    15  C   -0.172405
    16  C   -0.219814
    17  C   -0.171197
    18  C    0.157634
    19  C   -0.161703
    20  C   -0.223637
    21  H    0.220647
    22  H    0.220086
    23  H    0.274350
    24  H    0.282916
    25  H    0.218228
    26  N    0.487937
    27  O   -0.447922
    28  O   -0.466733
 Sum of Mulliken charges =  -0.00000

 Dipole moment (field-independent basis, Debye):
    X=              4.5370    Y=              8.5177    Z=              0.6433  Tot=              9.6721
 Quadrupole moment (field-independent basis, Debye-Ang):
   XX=            -84.0834   YY=           -107.3809   ZZ=           -103.1069
   XY=             -9.0871   XZ=              1.5689   YZ=             -2.5029

 Normal termination of Gaussian 16 at Thu May  6 14:30:49 2021.
