 Gaussian 16, Revision A.03,
 Gaussian 16:  EM64L-G16RevA.03 25-Dec-2016

 -------------
 #p 6-31g* mp2
 -------------

 ------------------------------------------------------
 Input file generated by CHIRIPA (05-May-2021 14:55:19)
 ------------------------------------------------------
 Symbolic Z-matrix:
 Charge =  0 Multiplicity = 1

                         Standard orientation:
 ---------------------------------------------------------------------
 Center     Atomic      Atomic             Coordinates (Angstroms)
 Number     Number       Type             X           Y           Z
 ---------------------------------------------------------------------
      1          6           0       -0.487219   -0.927337    0.762707
      2          6           0       -1.457035   -0.670118    1.737292
      3          6           0       -2.760808   -0.325990    1.368104
      4          6           0       -3.061471   -0.247894    0.009136
      5          6           0       -2.117339   -0.498347   -0.985438
      6          6           0       -0.819879   -0.840783   -0.593157
      7          1           0        0.523131   -1.194007    1.058471
      8          1           0       -1.201533   -0.736584    2.791021
      9          1           0       -3.531125   -0.121723    2.101796
     10          1           0       -2.402028   -0.424158   -2.027966
     11          1           0       -0.068753   -1.040005   -1.352212
     12          7           0       -4.438376    0.115523   -0.393930
     13          8           0       -4.677939    0.177629   -1.597836
     14          8           0       -5.251958    0.331383    0.501684
     15          6           0        3.750932    1.144037   -0.020754
     16          6           0        2.468535    1.975672   -0.063514
     17          6           0        2.730399    3.474247    0.089764
     18          1           0        4.270579    1.331667    0.928829
     19          1           0        4.426095    1.482732   -0.818774
     20          1           0        1.795420    1.634583    0.733474
     21          1           0        1.951783    1.785895   -1.013023
     22          1           0        3.381984    3.835493   -0.712444
     23          1           0        3.224733    3.683320    1.043976
     24          1           0        1.800109    4.049837    0.056344
     25          6           0        3.505493   -0.356096   -0.172696
     26          6           0        4.787890   -1.187730   -0.129936
     27          6           0        4.526026   -2.686305   -0.283214
     28          1           0        2.830331   -0.694790    0.625325
     29          1           0        2.985846   -0.543725   -1.122279
     30          1           0        5.304642   -0.997954    0.819574
     31          1           0        5.461004   -0.846641   -0.926924
     32          1           0        4.031691   -2.895378   -1.237426
     33          1           0        3.874440   -3.047551    0.518995
     34          1           0        5.456315   -3.261895   -0.249793
 ---------------------------------------------------------------------

 SCF Done:  E(RHF) =  -669.535496141     A.U. after   15 cycles
 E2 =    -0.2092210096D+01 EUMP2 =    -0.67162770623633D+03

 The electronic state is 1-A.
 Alpha  occ. eigenvalues --  -20.60723 -20.60717 -15.85776 -11.31130 -11.27701
 Alpha  occ. eigenvalues --  -11.27691 -11.27400 -11.26712 -11.26689 -11.22622
 Alpha  occ. eigenvalues --  -11.22532 -11.22338 -11.22237 -11.21993 -11.21622
 Alpha  occ. eigenvalues --   -1.59799  -1.39352  -1.19299  -1.09384  -1.08690
 Alpha  occ. eigenvalues --   -1.04701  -1.04356  -0.96824  -0.95531  -0.87830
 Alpha  occ. eigenvalues --   -0.86096  -0.82369  -0.80436  -0.79231  -0.77415
 Alpha  occ. eigenvalues --   -0.71994  -0.71122  -0.70417  -0.66011  -0.64949
 Alpha  occ. eigenvalues --   -0.64704  -0.62051  -0.61747  -0.60188  -0.58437
 Alpha  occ. eigenvalues --   -0.56150  -0.55198  -0.53463  -0.53240  -0.53021
 Alpha  occ. eigenvalues --   -0.52792  -0.50761  -0.48761  -0.48750  -0.48736
 Alpha  occ. eigenvalues --   -0.47483  -0.46720  -0.46654  -0.44761  -0.44653
 Alpha  occ. eigenvalues --   -0.37248  -0.36304
 Alpha virt. eigenvalues --    0.05094   0.11312   0.16503   0.19415   0.22757
 Alpha virt. eigenvalues --    0.23460   0.23872   0.25417   0.27139   0.28171
 Alpha virt. eigenvalues --    0.30086   0.30408   0.30918   0.31134   0.31494

 Mulliken charges:
               1
     1  C   -0.172862
     2  C   -0.220827
     3  C   -0.170732
     4  C    0.158469
     5  C   -0.171349
     6  C   -0.221004
     7  H    0.232662
     8  H    0.223180
     9  H    0.275284
    10  H    0.275284
    11  H    0.224841
    12  N    0.488026
    13  O   -0.460641
    14  O   -0.460638
    15  C   -0.298475
    16  C   -0.301083
    17  C   -0.476528
    18  H    0.151758
    19  H    0.153184
    20  H    0.151006
    21  H    0.151375
    22  H    0.156721
    23  H    0.155804
    24  H    0.164055
    25  C   -0.302589
    26  C   -0.299615
    27  C   -0.476347
    28  H    0.141784
    29  H    0.146712
    30  H    0.154682
    31  H    0.156114
    32  H    0.154964
    33  H    0.151850
    34  H    0.164932
 Sum of Mulliken charges =  -0.00000

 Dipole moment (field-independent basis, Debye):
    X=              5.0640    Y=             -1.1996    Z=              1.3902  Tot=              5.3866
 Quadrupole moment (field-independent basis, Debye-Ang):
   XX=           -123.9627   YY=            -95.8196   ZZ=            -89.1268
   XY=              2.6574   XZ=             -5.9835   YZ=             -0.1581

 Normal termination of Gaussian 16 at Thu May  6 14:04:17 2021.
