 Gaussian 16, Revision A.03,
 Gaussian 16:  EM64L-G16RevA.03 25-Dec-2016

 -------------
 #p 6-31g* mp2
 -------------

 ------------------------------------------------------
 Input file generated by CHIRIPA (05-May-2021 14:53:13)
 ------------------------------------------------------
 Symbolic Z-matrix:
 Charge =  0 Multiplicity = 1

                         Standard orientation:
 ---------------------------------------------------------------------
 Center     Atomic      Atomic             Coordinates (Angstroms)
 Number     Number       Type             X           Y           Z
 ---------------------------------------------------------------------
      1          6           0       -3.815425   -0.761360    0.018990
      2          6           0       -2.697819   -0.997798    1.035375
      3          6           0       -1.852611   -2.229375    0.708823
      4          1           0       -4.460016   -1.650092   -0.021045
      5          1           0       -3.374361   -0.649819   -0.981218
      6          1           0       -3.140753   -1.107480    2.033571
      7          1           0       -2.055925   -0.108325    1.073135
      8          1           0       -1.383922   -2.125107   -0.275077
      9          1           0       -2.474913   -3.129939    0.690816
     10          1           0       -1.059689   -2.379643    1.448116
     11          6           0       -4.669097    0.466270    0.331876
     12          6           0       -5.786703    0.702708   -0.684509
     13          6           0       -6.631911    1.934285   -0.357957
     14          1           0       -5.110161    0.354730    1.332084
     15          1           0       -4.024507    1.355003    0.371911
     16          1           0       -6.428597   -0.186765   -0.722270
     17          1           0       -5.343769    0.812391   -1.682705
     18          1           0       -6.009609    2.834850   -0.339950
     19          1           0       -7.100601    1.830017    0.625943
     20          1           0       -7.424834    2.084554   -1.097250
     21          6           0        5.356582    1.525530    0.316856
     22          6           0        5.499712    0.180216   -0.038344
     23          6           0        4.375129   -0.610642   -0.292122
     24          6           0        3.116823   -0.021070   -0.180940
     25          6           0        2.941566    1.316370    0.170955
     26          6           0        4.080216    2.088320    0.420190
     27          1           0        6.235648    2.132543    0.512232
     28          1           0        6.489718   -0.259523   -0.119356
     29          1           0        4.457124   -1.654723   -0.568872
     30          1           0        1.941651    1.726609    0.243692
     31          1           0        3.966039    3.132838    0.695858
     32          7           0        1.918832   -0.848307   -0.447198
     33          8           0        0.821262   -0.305156   -0.342476
     34          8           0        2.100098   -2.024183   -0.755573
 ---------------------------------------------------------------------

 SCF Done:  E(RHF) =  -669.536095071     A.U. after   15 cycles
 E2 =    -0.2091587894D+01 EUMP2 =    -0.67162768296440D+03

 The electronic state is 1-A.
 Alpha  occ. eigenvalues --  -20.61009 -20.61003 -15.86028 -11.31337 -11.27897
 Alpha  occ. eigenvalues --  -11.27891 -11.27629 -11.26898 -11.26888 -11.20890
 Alpha  occ. eigenvalues --  -11.20524 -11.20492 -11.20178 -11.20061 -11.19067
 Alpha  occ. eigenvalues --   -1.60059  -1.39616  -1.19501  -1.08909  -1.07356
 Alpha  occ. eigenvalues --   -1.04894  -1.02348  -0.95757  -0.94786  -0.86296
 Alpha  occ. eigenvalues --   -0.85810  -0.82587  -0.78490  -0.77644  -0.77104
 Alpha  occ. eigenvalues --   -0.72253  -0.71370  -0.70609  -0.65159  -0.64899
 Alpha  occ. eigenvalues --   -0.63984  -0.62242  -0.59725  -0.58270  -0.56397
 Alpha  occ. eigenvalues --   -0.55406  -0.54080  -0.53226  -0.52984  -0.51492
 Alpha  occ. eigenvalues --   -0.51230  -0.49264  -0.49000  -0.48430  -0.46773
 Alpha  occ. eigenvalues --   -0.45512  -0.45024  -0.44646  -0.44497  -0.42627
 Alpha  occ. eigenvalues --   -0.37478  -0.36494
 Alpha virt. eigenvalues --    0.04877   0.11161   0.16374   0.21280   0.23849
 Alpha virt. eigenvalues --    0.25545   0.27205   0.27618   0.28200   0.28537
 Alpha virt. eigenvalues --    0.29249   0.30863   0.32238   0.32652   0.32772

 Mulliken charges:
               1
     1  C   -0.298229
     2  C   -0.299351
     3  C   -0.470881
     4  H    0.145921
     5  H    0.152740
     6  H    0.142411
     7  H    0.156728
     8  H    0.177170
     9  H    0.141890
    10  H    0.154646
    11  C   -0.297076
    12  C   -0.298866
    13  C   -0.474945
    14  H    0.146602
    15  H    0.147574
    16  H    0.150888
    17  H    0.151640
    18  H    0.153421
    19  H    0.153849
    20  H    0.158050
    21  C   -0.170528
    22  C   -0.218574
    23  C   -0.170681
    24  C    0.158080
    25  C   -0.170672
    26  C   -0.218522
    27  H    0.226154
    28  H    0.223985
    29  H    0.276021
    30  H    0.275501
    31  H    0.223967
    32  N    0.489806
    33  O   -0.460267
    34  O   -0.458452
 Sum of Mulliken charges =  -0.00000

 Dipole moment (field-independent basis, Debye):
    X=              4.6527    Y=              2.9240    Z=              0.8092  Tot=              5.5545
 Quadrupole moment (field-independent basis, Debye-Ang):
   XX=            -68.5644   YY=            -92.7377   ZZ=            -95.7544
   XY=              7.4234   XZ=              1.6317   YZ=              0.2443

 Normal termination of Gaussian 16 at Thu May  6 04:11:07 2021.
