 Gaussian 16, Revision A.03,
 Gaussian 16:  EM64L-G16RevA.03 25-Dec-2016

 -------------
 #p 6-31g* mp2
 -------------

 ------------------------------------------------------
 Input file generated by CHIRIPA (05-May-2021 14:55:25)
 ------------------------------------------------------
 Symbolic Z-matrix:
 Charge =  0 Multiplicity = 1

                         Standard orientation:
 ---------------------------------------------------------------------
 Center     Atomic      Atomic             Coordinates (Angstroms)
 Number     Number       Type             X           Y           Z
 ---------------------------------------------------------------------
      1          6           0        2.960117   -2.564670   -0.438401
      2          6           0        2.247245   -2.281204    0.731206
      3          6           0        1.937118   -0.961104    1.071360
      4          6           0        2.357287    0.055587    0.215155
      5          6           0        3.068958   -0.194764   -0.957081
      6          6           0        3.367980   -1.522383   -1.277333
      7          1           0        3.196718   -3.593076   -0.694911
      8          1           0        1.929217   -3.088645    1.384614
      9          1           0        1.386488   -0.713353    1.970718
     10          1           0        3.372530    0.631346   -1.588592
     11          1           0        3.921737   -1.739560   -2.186306
     12          7           0        2.034848    1.457098    0.564726
     13          8           0        2.416376    2.334895   -0.206341
     14          8           0        1.406697    1.651267    1.603168
     15          6           0       -2.538817    0.668607   -0.497480
     16          6           0       -2.667686    2.138132   -0.095144
     17          6           0       -1.567118    3.013912   -0.694770
     18          1           0       -1.556126    0.293152   -0.180781
     19          1           0       -2.564317    0.592107   -1.593331
     20          1           0       -2.643342    2.211703    0.999667
     21          1           0       -3.650260    2.510079   -0.412667
     22          1           0       -1.593004    2.970227   -1.788398
     23          1           0       -0.580365    2.670156   -0.368040
     24          1           0       -1.678441    4.060426   -0.394311
     25          6           0       -3.631881   -0.219586    0.094174
     26          6           0       -3.503011   -1.689111   -0.308162
     27          6           0       -4.603580   -2.564890    0.291464
     28          1           0       -3.606380   -0.143086    1.190026
     29          1           0       -4.614571    0.155869   -0.222525
     30          1           0       -2.520437   -2.061058    0.009361
     31          1           0       -3.527356   -1.762682   -1.402973
     32          1           0       -5.590333   -2.221136   -0.035266
     33          1           0       -4.577693   -2.521207    1.385093
     34          1           0       -4.492257   -3.611405   -0.008995
 ---------------------------------------------------------------------

 SCF Done:  E(RHF) =  -669.536237120     A.U. after   15 cycles
 E2 =    -0.2092047349D+01 EUMP2 =    -0.67162828446907D+03

 The electronic state is 1-A.
 Alpha  occ. eigenvalues --  -20.60976 -20.60965 -15.85989 -11.31319 -11.27883
 Alpha  occ. eigenvalues --  -11.27865 -11.27605 -11.26877 -11.26865 -11.21517
 Alpha  occ. eigenvalues --  -11.21097 -11.21053 -11.20919 -11.20793 -11.19917
 Alpha  occ. eigenvalues --   -1.60035  -1.39585  -1.19479  -1.08883  -1.08026
 Alpha  occ. eigenvalues --   -1.04872  -1.03042  -0.95726  -0.95475  -0.86493
 Alpha  occ. eigenvalues --   -0.86272  -0.82559  -0.79149  -0.77804  -0.77616
 Alpha  occ. eigenvalues --   -0.72203  -0.71374  -0.70584  -0.65132  -0.64873
 Alpha  occ. eigenvalues --   -0.64657  -0.62219  -0.60424  -0.58919  -0.57084
 Alpha  occ. eigenvalues --   -0.55377  -0.54756  -0.53201  -0.52962  -0.52162
 Alpha  occ. eigenvalues --   -0.51903  -0.49483  -0.48972  -0.48912  -0.47434
 Alpha  occ. eigenvalues --   -0.46186  -0.45340  -0.45251  -0.44971  -0.43310
 Alpha  occ. eigenvalues --   -0.37451  -0.36468
 Alpha virt. eigenvalues --    0.04872   0.11150   0.16364   0.21291   0.23151
 Alpha virt. eigenvalues --    0.24773   0.26713   0.27293   0.27743   0.28306
 Alpha virt. eigenvalues --    0.28571   0.30788   0.31892   0.32100   0.32391

 Mulliken charges:
               1
     1  C   -0.170278
     2  C   -0.218505
     3  C   -0.171572
     4  C    0.159452
     5  C   -0.170474
     6  C   -0.218452
     7  H    0.226214
     8  H    0.224000
     9  H    0.275784
    10  H    0.276208
    11  H    0.224037
    12  N    0.486157
    13  O   -0.457954
    14  O   -0.459802
    15  C   -0.297160
    16  C   -0.299200
    17  C   -0.479318
    18  H    0.145700
    19  H    0.147106
    20  H    0.155526
    21  H    0.147645
    22  H    0.148240
    23  H    0.170847
    24  H    0.161049
    25  C   -0.298048
    26  C   -0.298394
    27  C   -0.475366
    28  H    0.149740
    29  H    0.149604
    30  H    0.147546
    31  H    0.151278
    32  H    0.156098
    33  H    0.154600
    34  H    0.157693
 Sum of Mulliken charges =  -0.00000

 Dipole moment (field-independent basis, Debye):
    X=              1.3439    Y=             -4.8701    Z=             -1.1854  Tot=              5.1893
 Quadrupole moment (field-independent basis, Debye-Ang):
   XX=            -89.4166   YY=            -95.8361   ZZ=            -91.6303
   XY=            -11.6777   XZ=             -4.4388   YZ=             -2.3259

 Normal termination of Gaussian 16 at Thu May  6 14:24:28 2021.
