 Gaussian 16, Revision A.03,
 Gaussian 16:  EM64L-G16RevA.03 25-Dec-2016

 -------------
 #p 6-31g* mp2
 -------------

 ------------------------------------------------------
 Input file generated by CHIRIPA (05-May-2021 14:51:12)
 ------------------------------------------------------
 Symbolic Z-matrix:
 Charge =  0 Multiplicity = 1

                         Standard orientation:
 ---------------------------------------------------------------------
 Center     Atomic      Atomic             Coordinates (Angstroms)
 Number     Number       Type             X           Y           Z
 ---------------------------------------------------------------------
      1          6           0       -3.552770   -0.115580   -0.171767
      2          6           0       -3.601254   -1.639834   -0.282605
      3          6           0       -4.837848   -2.242069    0.385184
      4          1           0       -3.573837    0.169415    0.889024
      5          1           0       -4.459052    0.307209   -0.627066
      6          1           0       -2.694497   -2.059553    0.171534
      7          1           0       -3.579876   -1.921240   -1.343251
      8          1           0       -5.752044   -1.851073   -0.073040
      9          1           0       -4.861634   -1.990172    1.450352
     10          1           0       -4.852323   -3.332642    0.294066
     11          6           0       -2.322349    0.501200   -0.834621
     12          6           0       -2.273864    2.025453   -0.723783
     13          6           0       -1.037271    2.627689   -1.391572
     14          1           0       -1.416067    0.078410   -0.379322
     15          1           0       -2.301281    0.216204   -1.895412
     16          1           0       -2.295243    2.306860    0.336863
     17          1           0       -3.180622    2.445172   -1.177922
     18          1           0       -1.013484    2.375791   -2.456740
     19          1           0       -0.123075    2.236693   -0.933348
     20          1           0       -1.022795    3.718261   -1.300454
     21          6           0        3.112295   -0.601517   -0.117981
     22          6           0        4.587489   -0.509083   -0.509444
     23          6           0        4.921528   -1.332064   -1.753998
     24          1           0        2.850904   -1.654327    0.055836
     25          1           0        2.494531   -0.261072   -0.960513
     26          1           0        5.202335   -0.848294    0.334070
     27          1           0        4.845447    0.543647   -0.682162
     28          1           0        4.333030   -0.989954   -2.611455
     29          1           0        4.691947   -2.389805   -1.589448
     30          1           0        5.981131   -1.251658   -2.015985
     31          6           0        2.762824    0.215897    1.124369
     32          6           0        1.287629    0.123464    1.515832
     33          6           0        0.953591    0.946445    2.760386
     34          1           0        3.380588   -0.124547    1.966900
     35          1           0        3.024214    1.268707    0.950552
     36          1           0        1.029671   -0.929267    1.688550
     37          1           0        0.672783    0.462675    0.672317
     38          1           0        1.183172    2.004185    2.595837
     39          1           0        1.542089    0.604334    3.617843
     40          1           0       -0.106012    0.866039    3.022373
 ---------------------------------------------------------------------

 SCF Done:  E(RHF) =  -470.732998444     A.U. after   11 cycles
 E2 =    -0.1583673204D+01 EUMP2 =    -0.47231667164865D+03

 The electronic state is 1-A.
 Alpha  occ. eigenvalues --  -11.21658 -11.21614 -11.21610 -11.21586 -11.21442
 Alpha  occ. eigenvalues --  -11.21381 -11.21379 -11.21315 -11.21144 -11.21115
 Alpha  occ. eigenvalues --  -11.21074 -11.21062  -1.08484  -1.08413  -1.03591
 Alpha  occ. eigenvalues --   -1.03518  -0.96017  -0.95984  -0.87034  -0.87002
 Alpha  occ. eigenvalues --   -0.79692  -0.79559  -0.78362  -0.78157  -0.65259
 Alpha  occ. eigenvalues --   -0.64935  -0.61160  -0.60759  -0.59409  -0.59323
 Alpha  occ. eigenvalues --   -0.57634  -0.57588  -0.55311  -0.55266  -0.52714
 Alpha  occ. eigenvalues --   -0.52681  -0.52444  -0.52412  -0.49971  -0.49932
 Alpha  occ. eigenvalues --   -0.48109  -0.47858  -0.46913  -0.46499  -0.46067
 Alpha  occ. eigenvalues --   -0.45783  -0.45750  -0.45188  -0.43819  -0.43781
 Alpha virt. eigenvalues --    0.20058   0.22886   0.23859   0.25065   0.25750
 Alpha virt. eigenvalues --    0.26307   0.26856   0.27789   0.28515   0.29241
 Alpha virt. eigenvalues --    0.30773   0.31616   0.31694   0.31918   0.32126

 Mulliken charges:
               1
     1  C   -0.297592
     2  C   -0.299797
     3  C   -0.475703
     4  H    0.149291
     5  H    0.149399
     6  H    0.152284
     7  H    0.151921
     8  H    0.155147
     9  H    0.155101
    10  H    0.160192
    11  C   -0.306116
    12  C   -0.299358
    13  C   -0.479892
    14  H    0.157224
    15  H    0.149355
    16  H    0.152310
    17  H    0.152157
    18  H    0.155351
    19  H    0.157506
    20  H    0.160609
    21  C   -0.298830
    22  C   -0.299678
    23  C   -0.475776
    24  H    0.149708
    25  H    0.149821
    26  H    0.151948
    27  H    0.152138
    28  H    0.155456
    29  H    0.155168
    30  H    0.160303
    31  C   -0.297444
    32  C   -0.311770
    33  C   -0.475491
    34  H    0.149817
    35  H    0.149763
    36  H    0.151748
    37  H    0.162660
    38  H    0.155615
    39  H    0.155774
    40  H    0.159682
 Sum of Mulliken charges =  -0.00000

 Dipole moment (field-independent basis, Debye):
    X=              0.0204    Y=             -0.0030    Z=              0.0019  Tot=              0.0207
 Quadrupole moment (field-independent basis, Debye-Ang):
   XX=            -85.3644   YY=            -84.7668   ZZ=            -84.6322
   XY=             -0.4853   XZ=              1.2994   YZ=             -0.7697

 Normal termination of Gaussian 16 at Wed May  5 15:18:12 2021.
