 Gaussian 16, Revision A.03,
 Gaussian 16:  EM64L-G16RevA.03 25-Dec-2016

 -------------
 #p 6-31g* mp2
 -------------

 ------------------------------------------------------
 Input file generated by CHIRIPA (05-May-2021 14:51:11)
 ------------------------------------------------------
 Symbolic Z-matrix:
 Charge =  0 Multiplicity = 1

                         Standard orientation:
 ---------------------------------------------------------------------
 Center     Atomic      Atomic             Coordinates (Angstroms)
 Number     Number       Type             X           Y           Z
 ---------------------------------------------------------------------
      1          6           0       -3.756317   -0.401230    0.067646
      2          6           0       -3.207607   -1.614708   -0.683601
      3          6           0       -3.831992   -2.930343   -0.217723
      4          1           0       -3.577882   -0.532663    1.143672
      5          1           0       -4.846191   -0.358342   -0.065513
      6          1           0       -2.118920   -1.654508   -0.550207
      7          1           0       -3.387198   -1.480282   -1.757981
      8          1           0       -4.916561   -2.915973   -0.366394
      9          1           0       -3.641078   -3.091189    0.848242
     10          1           0       -3.425433   -3.784678   -0.767889
     11          6           0       -3.141753    0.921427   -0.386907
     12          6           0       -3.690464    2.134905    0.364340
     13          6           0       -3.066079    3.450540   -0.101538
     14          1           0       -2.051880    0.878539   -0.253748
     15          1           0       -3.320188    1.052860   -1.462932
     16          1           0       -3.510873    2.000479    1.438720
     17          1           0       -4.779150    2.174705    0.230946
     18          1           0       -3.256993    3.611386   -1.167503
     19          1           0       -1.981509    3.436170    0.047133
     20          1           0       -3.472637    4.304875    0.448628
     21          6           0        2.890429   -0.778411    0.107246
     22          6           0        1.617880   -0.375923    0.853309
     23          6           0        0.509510   -1.422960    0.739193
     24          1           0        2.649730   -0.945738   -0.951532
     25          1           0        3.250075   -1.738895    0.501607
     26          1           0        1.261513    0.584196    0.458605
     27          1           0        1.861673   -0.209348    1.910396
     28          1           0        0.841286   -2.381605    1.150929
     29          1           0        0.237716   -1.583552   -0.309110
     30          1           0       -0.390917   -1.114963    1.279774
     31          6           0        4.007642    0.258213    0.212014
     32          6           0        5.280190   -0.144274   -0.534048
     33          6           0        6.388561    0.902763   -0.419932
     34          1           0        3.647995    1.218698   -0.182346
     35          1           0        4.248340    0.425540    1.270793
     36          1           0        5.036397   -0.310849   -1.591135
     37          1           0        5.636558   -1.104393   -0.139344
     38          1           0        6.660354    1.063354    0.628371
     39          1           0        6.056784    1.861407   -0.831668
     40          1           0        7.288987    0.594766   -0.960513
 ---------------------------------------------------------------------

 SCF Done:  E(RHF) =  -470.732706835     A.U. after   11 cycles
 E2 =    -0.1583423592D+01 EUMP2 =    -0.47231613042713D+03

 The electronic state is 1-A.
 Alpha  occ. eigenvalues --  -11.21697 -11.21635 -11.21579 -11.21463 -11.21411
 Alpha  occ. eigenvalues --  -11.21400 -11.21352 -11.21288 -11.21180 -11.21096
 Alpha  occ. eigenvalues --  -11.21062 -11.20972  -1.08495  -1.08366  -1.03608
 Alpha  occ. eigenvalues --   -1.03455  -0.96057  -0.95920  -0.87093  -0.86924
 Alpha  occ. eigenvalues --   -0.79720  -0.79485  -0.78307  -0.78175  -0.65176
 Alpha  occ. eigenvalues --   -0.64977  -0.61067  -0.60823  -0.59412  -0.59280
 Alpha  occ. eigenvalues --   -0.57673  -0.57519  -0.55353  -0.55211  -0.52788
 Alpha  occ. eigenvalues --   -0.52594  -0.52485  -0.52335  -0.50091  -0.49807
 Alpha  occ. eigenvalues --   -0.48011  -0.47824  -0.46829  -0.46428  -0.45887
 Alpha  occ. eigenvalues --   -0.45768  -0.45711  -0.45502  -0.43815  -0.43713
 Alpha virt. eigenvalues --    0.20602   0.23020   0.24056   0.24315   0.26105
 Alpha virt. eigenvalues --    0.26665   0.27141   0.27365   0.27826   0.29697
 Alpha virt. eigenvalues --    0.30370   0.31071   0.31719   0.31833   0.32398

 Mulliken charges:
               1
     1  C   -0.297673
     2  C   -0.309840
     3  C   -0.474902
     4  H    0.148559
     5  H    0.149314
     6  H    0.164449
     7  H    0.150400
     8  H    0.154510
     9  H    0.154709
    10  H    0.159719
    11  C   -0.300922
    12  C   -0.299447
    13  C   -0.475608
    14  H    0.151610
    15  H    0.149432
    16  H    0.151711
    17  H    0.151997
    18  H    0.155076
    19  H    0.154809
    20  H    0.160229
    21  C   -0.298827
    22  C   -0.300433
    23  C   -0.480527
    24  H    0.150223
    25  H    0.149803
    26  H    0.152183
    27  H    0.152313
    28  H    0.156076
    29  H    0.158265
    30  H    0.162239
    31  C   -0.298391
    32  C   -0.299719
    33  C   -0.475756
    34  H    0.149698
    35  H    0.149747
    36  H    0.152082
    37  H    0.151992
    38  H    0.155216
    39  H    0.155295
    40  H    0.160391
 Sum of Mulliken charges =  -0.00000

 Dipole moment (field-independent basis, Debye):
    X=              0.0796    Y=             -0.0134    Z=              0.0060  Tot=              0.0810
 Quadrupole moment (field-independent basis, Debye-Ang):
   XX=            -85.2675   YY=            -86.1110   ZZ=            -83.6340
   XY=             -1.2862   XZ=              0.8828   YZ=             -0.2537

 Normal termination of Gaussian 16 at Thu May  6 00:40:43 2021.
