 Gaussian 16, Revision A.03,
 Gaussian 16:  EM64L-G16RevA.03 25-Dec-2016

 -------------
 #p 6-31g* mp2
 -------------

 ------------------------------------------------------
 Input file generated by CHIRIPA (05-May-2021 14:57:22)
 ------------------------------------------------------
 Symbolic Z-matrix:
 Charge =  0 Multiplicity = 1

                         Standard orientation:
 ---------------------------------------------------------------------
 Center     Atomic      Atomic             Coordinates (Angstroms)
 Number     Number       Type             X           Y           Z
 ---------------------------------------------------------------------
      1          6           0        5.193700    1.559622   -0.816630
      2          6           0        4.595345    0.619425   -1.661924
      3          6           0        3.655132   -0.287034   -1.163045
      4          6           0        3.335292   -0.224906    0.192364
      5          6           0        3.914096    0.700142    1.059867
      6          6           0        4.851768    1.596914    0.539177
      7          1           0        5.923093    2.260019   -1.212643
      8          1           0        4.858966    0.588154   -2.715285
      9          1           0        3.176595   -1.025222   -1.795104
     10          1           0        3.631001    0.706977    2.105443
     11          1           0        5.314854    2.326003    1.197985
     12          7           0        2.341275   -1.179406    0.732050
     13          8           0        2.076638   -1.104123    1.929938
     14          8           0        1.845624   -1.984752   -0.053052
     15          6           0       -5.610629    1.437126    0.074966
     16          6           0       -5.679470    0.089240   -0.292439
     17          6           0       -4.516000   -0.679189   -0.394428
     18          6           0       -3.294984   -0.064808   -0.120663
     19          6           0       -3.193713    1.275841    0.247701
     20          6           0       -4.370157    2.025088    0.343390
     21          1           0       -6.519480    2.026610    0.151747
     22          1           0       -6.641459   -0.370021   -0.501486
     23          1           0       -4.540456   -1.724690   -0.676824
     24          1           0       -2.220236    1.705803    0.449922
     25          1           0       -4.313671    3.071663    0.628935
     26          7           0       -2.056403   -0.868157   -0.225299
     27          8           0       -0.992944   -0.303373    0.021096
     28          8           0       -2.172516   -2.047394   -0.551728
 ---------------------------------------------------------------------

 SCF Done:  E(RHF) =  -868.335446338     A.U. after   16 cycles
 E2 =    -0.2600844320D+01 EUMP2 =    -0.87093629065774D+03

 The electronic state is 1-A.
 Alpha  occ. eigenvalues --  -20.59894 -20.59889 -20.59272 -20.59150 -15.84979
 Alpha  occ. eigenvalues --  -15.84285 -11.30639 -11.30149 -11.27253 -11.27235
 Alpha  occ. eigenvalues --  -11.27048 -11.26804 -11.26754 -11.26643 -11.26337
 Alpha  occ. eigenvalues --  -11.26320 -11.25941 -11.25911  -1.58948  -1.58247
 Alpha  occ. eigenvalues --   -1.38507  -1.37806  -1.18838  -1.18372  -1.08175
 Alpha  occ. eigenvalues --   -1.07676  -1.04290  -1.03858  -0.94961  -0.94429
 Alpha  occ. eigenvalues --   -0.85674  -0.85232  -0.81803  -0.81276  -0.76795
 Alpha  occ. eigenvalues --   -0.76224  -0.71249  -0.70525  -0.70299  -0.69952
 Alpha  occ. eigenvalues --   -0.69498  -0.69493  -0.64489  -0.64297  -0.64022
 Alpha  occ. eigenvalues --   -0.63878  -0.61636  -0.61204  -0.54783  -0.54360
 Alpha  occ. eigenvalues --   -0.52600  -0.52390  -0.52155  -0.51965  -0.47996
 Alpha  occ. eigenvalues --   -0.47899  -0.47265  -0.47203  -0.43858  -0.43059
 Alpha  occ. eigenvalues --   -0.36837  -0.36379  -0.35907  -0.35486
 Alpha virt. eigenvalues --    0.05757   0.06352   0.11743   0.12164   0.17191
 Alpha virt. eigenvalues --    0.17747   0.21828   0.22196   0.27713   0.28067
 Alpha virt. eigenvalues --    0.28746   0.29141   0.31353   0.31696   0.32992

 Mulliken charges:
               1
     1  C   -0.172897
     2  C   -0.219063
     3  C   -0.170011
     4  C    0.162675
     5  C   -0.172289
     6  C   -0.218999
     7  H    0.221225
     8  H    0.220065
     9  H    0.277058
    10  H    0.273276
    11  H    0.219093
    12  N    0.493176
    13  O   -0.466862
    14  O   -0.446895
    15  C   -0.171836
    16  C   -0.218511
    17  C   -0.171234
    18  C    0.159565
    19  C   -0.171023
    20  C   -0.218499
    21  H    0.223440
    22  H    0.221892
    23  H    0.275811
    24  H    0.274156
    25  H    0.221027
    26  N    0.488810
    27  O   -0.457937
    28  O   -0.455214
 Sum of Mulliken charges =  -0.00000

 Dipole moment (field-independent basis, Debye):
    X=             -1.0364    Y=              5.8820    Z=             -1.5723  Tot=              6.1761
 Quadrupole moment (field-independent basis, Debye-Ang):
   XX=            -54.8423   YY=           -103.6203   ZZ=           -102.4166
   XY=              3.9440   XZ=             -5.1514   YZ=              4.2017

 Normal termination of Gaussian 16 at Fri May  7 03:15:45 2021.
