 Gaussian 16, Revision A.03,
 Gaussian 16:  EM64L-G16RevA.03 25-Dec-2016

 -------------
 #p 6-31g* mp2
 -------------

 ------------------------------------------------------
 Input file generated by CHIRIPA (05-May-2021 14:57:25)
 ------------------------------------------------------
 Symbolic Z-matrix:
 Charge =  0 Multiplicity = 1

                         Standard orientation:
 ---------------------------------------------------------------------
 Center     Atomic      Atomic             Coordinates (Angstroms)
 Number     Number       Type             X           Y           Z
 ---------------------------------------------------------------------
      1          6           0       -2.001741   -2.217023    0.418604
      2          6           0       -3.271342   -2.095332    0.992909
      3          6           0       -4.063889   -0.973477    0.732411
      4          6           0       -3.553191    0.012089   -0.110878
      5          6           0       -2.292280   -0.080245   -0.698133
      6          6           0       -1.517117   -1.210865   -0.423599
      7          1           0       -1.392824   -3.091911    0.626417
      8          1           0       -3.650284   -2.875165    1.647362
      9          1           0       -5.050322   -0.853760    1.163729
     10          1           0       -1.941678    0.713595   -1.346449
     11          1           0       -0.531500   -1.302698   -0.871004
     12          7           0       -4.383023    1.204387   -0.394085
     13          8           0       -3.910180    2.058772   -1.140465
     14          8           0       -5.490576    1.261948    0.135679
     15          6           0        3.239688    2.628012    0.667132
     16          6           0        4.457837    2.102804    0.223520
     17          6           0        4.567349    0.750357   -0.113293
     18          6           0        3.433511   -0.051822    0.005913
     19          6           0        2.205949    0.441848    0.444857
     20          6           0        2.119607    1.797323    0.776193
     21          1           0        3.163617    3.679800    0.926650
     22          1           0        5.329360    2.745573    0.137847
     23          1           0        5.498142    0.317634   -0.459405
     24          1           0        1.354590   -0.223706    0.519981
     25          1           0        1.172292    2.202468    1.120427
     26          7           0        3.537181   -1.485199   -0.347757
     27          8           0        2.523564   -2.170975   -0.234058
     28          8           0        4.630094   -1.895764   -0.731966
 ---------------------------------------------------------------------

 SCF Done:  E(RHF) =  -868.339770751     A.U. after   16 cycles
 E2 =    -0.2599603755D+01 EUMP2 =    -0.87093937450653D+03

 The electronic state is 1-A.
 Alpha  occ. eigenvalues --  -20.61619 -20.61553 -20.60924 -20.60912 -15.86620
 Alpha  occ. eigenvalues --  -15.85972 -11.31770 -11.31271 -11.28321 -11.28274
 Alpha  occ. eigenvalues --  -11.27955 -11.27855 -11.27835 -11.27444 -11.27248
 Alpha  occ. eigenvalues --  -11.27238 -11.26771 -11.26713  -1.60646  -1.60000
 Alpha  occ. eigenvalues --   -1.40213  -1.39555  -1.19909  -1.19429  -1.09333
 Alpha  occ. eigenvalues --   -1.08802  -1.05280  -1.04820  -0.96211  -0.95653
 Alpha  occ. eigenvalues --   -0.86691  -0.86188  -0.83054  -0.82494  -0.78155
 Alpha  occ. eigenvalues --   -0.77564  -0.72851  -0.72186  -0.71953  -0.71328
 Alpha  occ. eigenvalues --   -0.71010  -0.70454  -0.65561  -0.65310  -0.65055
 Alpha  occ. eigenvalues --   -0.64739  -0.62681  -0.62095  -0.55762  -0.55208
 Alpha  occ. eigenvalues --   -0.53619  -0.53425  -0.53125  -0.52819  -0.49619
 Alpha  occ. eigenvalues --   -0.49564  -0.48951  -0.48934  -0.45659  -0.44977
 Alpha  occ. eigenvalues --   -0.37858  -0.37364  -0.36883  -0.36445
 Alpha virt. eigenvalues --    0.04349   0.04954   0.10732   0.11083   0.15923
 Alpha virt. eigenvalues --    0.16398   0.20495   0.21927   0.26145   0.27338
 Alpha virt. eigenvalues --    0.28354   0.28792   0.30316   0.31195   0.31974

 Mulliken charges:
               1
     1  C   -0.172517
     2  C   -0.219183
     3  C   -0.170805
     4  C    0.158076
     5  C   -0.175853
     6  C   -0.232507
     7  H    0.236294
     8  H    0.224740
     9  H    0.275601
    10  H    0.273836
    11  H    0.237846
    12  N    0.488035
    13  O   -0.462368
    14  O   -0.459992
    15  C   -0.169761
    16  C   -0.218248
    17  C   -0.170246
    18  C    0.158385
    19  C   -0.177517
    20  C   -0.220483
    21  H    0.229328
    22  H    0.225879
    23  H    0.276629
    24  H    0.273512
    25  H    0.228426
    26  N    0.489718
    27  O   -0.471834
    28  O   -0.454990
 Sum of Mulliken charges =  -0.00000

 Dipole moment (field-independent basis, Debye):
    X=              2.7479    Y=              0.8460    Z=              2.2895  Tot=              3.6754
 Quadrupole moment (field-independent basis, Debye-Ang):
   XX=           -120.4039   YY=           -105.1653   ZZ=           -104.3995
   XY=             35.5209   XZ=             -3.3867   YZ=             -0.8441

 Normal termination of Gaussian 16 at Thu May  6 18:06:14 2021.
