 Gaussian 16, Revision A.03,
 Gaussian 16:  EM64L-G16RevA.03 25-Dec-2016

 -------------
 #p 6-31g* mp2
 -------------

 ------------------------------------------------------
 Input file generated by CHIRIPA (05-May-2021 14:53:16)
 ------------------------------------------------------
 Symbolic Z-matrix:
 Charge =  0 Multiplicity = 1

                         Standard orientation:
 ---------------------------------------------------------------------
 Center     Atomic      Atomic             Coordinates (Angstroms)
 Number     Number       Type             X           Y           Z
 ---------------------------------------------------------------------
      1          6           0       -3.993701    0.828431    0.196054
      2          6           0       -2.657669    1.559549    0.060143
      3          6           0       -2.777100    3.061970    0.317552
      4          1           0       -4.716838    1.265808   -0.505886
      5          1           0       -4.395461    0.997778    1.204669
      6          1           0       -2.257880    1.387733   -0.947460
      7          1           0       -1.937573    1.120254    0.762352
      8          1           0       -3.152584    3.250975    1.328438
      9          1           0       -3.474711    3.519974   -0.391089
     10          1           0       -1.810449    3.564920    0.215145
     11          6           0       -3.890547   -0.674353   -0.058363
     12          6           0       -5.226578   -1.405470    0.077548
     13          6           0       -5.107148   -2.907892   -0.179861
     14          1           0       -3.488787   -0.843700   -1.066978
     15          1           0       -3.167409   -1.111729    0.643577
     16          1           0       -5.946675   -0.966176   -0.624661
     17          1           0       -5.626367   -1.233655    1.085151
     18          1           0       -4.409537   -3.365895    0.528780
     19          1           0       -4.731664   -3.096896   -1.190747
     20          1           0       -6.073799   -3.410841   -0.077454
     21          6           0        4.970465   -1.703047    0.249958
     22          6           0        5.238755   -0.331996    0.180947
     23          6           0        4.199014    0.587357    0.012799
     24          6           0        2.897000    0.098639   -0.083151
     25          6           0        2.597624   -1.261296   -0.018023
     26          6           0        3.653078   -2.162510    0.150428
     27          1           0        5.784264   -2.410177    0.380698
     28          1           0        6.260880    0.027691    0.257947
     29          1           0        4.378415    1.654140   -0.043829
     30          1           0        1.568454   -1.589694   -0.097913
     31          1           0        3.441755   -3.226725    0.203687
     32          7           0        1.787955    1.062316   -0.261322
     33          8           0        0.649546    0.606294   -0.343208
     34          8           0        2.078095    2.255420   -0.315713
 ---------------------------------------------------------------------

 SCF Done:  E(RHF) =  -669.535675589     A.U. after   15 cycles
 E2 =    -0.2091327933D+01 EUMP2 =    -0.67162700352177D+03

 The electronic state is 1-A.
 Alpha  occ. eigenvalues --  -20.60936 -20.60931 -15.85965 -11.31296 -11.27860
 Alpha  occ. eigenvalues --  -11.27857 -11.27599 -11.26869 -11.26859 -11.20933
 Alpha  occ. eigenvalues --  -11.20603 -11.20466 -11.20169 -11.19774 -11.19521
 Alpha  occ. eigenvalues --   -1.60001  -1.39557  -1.19466  -1.08870  -1.07351
 Alpha  occ. eigenvalues --   -1.04862  -1.02392  -0.95711  -0.94916  -0.86263
 Alpha  occ. eigenvalues --   -0.85949  -0.82547  -0.78518  -0.77604  -0.77024
 Alpha  occ. eigenvalues --   -0.72174  -0.71316  -0.70574  -0.65120  -0.64865
 Alpha  occ. eigenvalues --   -0.64005  -0.62209  -0.59807  -0.58329  -0.56452
 Alpha  occ. eigenvalues --   -0.55364  -0.54249  -0.53195  -0.52954  -0.51612
 Alpha  occ. eigenvalues --   -0.51328  -0.48981  -0.48949  -0.48918  -0.46773
 Alpha  occ. eigenvalues --   -0.45601  -0.45033  -0.44539  -0.44381  -0.42655
 Alpha  occ. eigenvalues --   -0.37445  -0.36464
 Alpha virt. eigenvalues --    0.04916   0.11190   0.16402   0.21321   0.23794
 Alpha virt. eigenvalues --    0.25432   0.27232   0.27673   0.28060   0.28724
 Alpha virt. eigenvalues --    0.29037   0.30914   0.32373   0.32446   0.32785

 Mulliken charges:
               1
     1  C   -0.299219
     2  C   -0.294085
     3  C   -0.478604
     4  H    0.144895
     5  H    0.144182
     6  H    0.159247
     7  H    0.161251
     8  H    0.147240
     9  H    0.147924
    10  H    0.170234
    11  C   -0.295840
    12  C   -0.298585
    13  C   -0.474737
    14  H    0.149372
    15  H    0.147426
    16  H    0.150853
    17  H    0.150228
    18  H    0.152441
    19  H    0.153856
    20  H    0.157902
    21  C   -0.170621
    22  C   -0.218590
    23  C   -0.170607
    24  C    0.157624
    25  C   -0.171069
    26  C   -0.218556
    27  H    0.226001
    28  H    0.223804
    29  H    0.275830
    30  H    0.275968
    31  H    0.223905
    32  N    0.490552
    33  O   -0.460388
    34  O   -0.459835
 Sum of Mulliken charges =  -0.00000

 Dipole moment (field-independent basis, Debye):
    X=              4.2986    Y=             -3.3561    Z=              0.5764  Tot=              5.4839
 Quadrupole moment (field-independent basis, Debye-Ang):
   XX=            -71.8664   YY=            -94.4512   ZZ=            -94.9069
   XY=             -6.8907   XZ=              1.9624   YZ=             -0.0554

 Normal termination of Gaussian 16 at Wed May  5 17:13:24 2021.
