 Gaussian 16, Revision A.03,
 Gaussian 16:  EM64L-G16RevA.03 25-Dec-2016

 -------------
 #p 6-31g* mp2
 -------------

 ------------------------------------------------------
 Input file generated by CHIRIPA (05-May-2021 14:57:26)
 ------------------------------------------------------
 Symbolic Z-matrix:
 Charge =  0 Multiplicity = 1

                         Standard orientation:
 ---------------------------------------------------------------------
 Center     Atomic      Atomic             Coordinates (Angstroms)
 Number     Number       Type             X           Y           Z
 ---------------------------------------------------------------------
      1          6           0        5.278062   -1.877791   -0.183231
      2          6           0        5.443558   -0.679337   -0.885256
      3          6           0        4.555779    0.383681   -0.694490
      4          6           0        3.508897    0.213061    0.210063
      5          6           0        3.317506   -0.968603    0.924437
      6          6           0        4.217435   -2.018351    0.717786
      7          1           0        5.972429   -2.698415   -0.337593
      8          1           0        6.266345   -0.567348   -1.585631
      9          1           0        4.660514    1.322413   -1.224802
     10          1           0        2.487714   -1.050441    1.615932
     11          1           0        4.086457   -2.947941    1.264369
     12          7           0        2.562614    1.331406    0.420427
     13          8           0        1.648413    1.155933    1.222974
     14          8           0        2.753038    2.362263   -0.221221
     15          6           0       -1.602203    1.372630   -0.559491
     16          6           0       -2.750914    1.953198   -0.011839
     17          6           0       -3.899512    1.186323    0.205356
     18          6           0       -3.864266   -0.164224   -0.138260
     19          6           0       -2.735185   -0.771615   -0.685564
     20          6           0       -1.598011    0.014471   -0.894016
     21          1           0       -0.714381    1.975820   -0.724818
     22          1           0       -2.757043    3.007720    0.248912
     23          1           0       -4.802402    1.610228    0.627862
     24          1           0       -2.759356   -1.825369   -0.935436
     25          1           0       -0.707332   -0.439083   -1.319484
     26          7           0       -5.074187   -0.986250    0.087047
     27          8           0       -5.017571   -2.173926   -0.224170
     28          8           0       -6.056231   -0.427312    0.570591
 ---------------------------------------------------------------------

 SCF Done:  E(RHF) =  -868.339900691     A.U. after   16 cycles
 E2 =    -0.2598804557D+01 EUMP2 =    -0.87093870524754D+03

 The electronic state is 1-A.
 Alpha  occ. eigenvalues --  -20.61908 -20.61888 -20.60156 -20.60147 -15.86906
 Alpha  occ. eigenvalues --  -15.85205 -11.32013 -11.30346 -11.28544 -11.28531
 Alpha  occ. eigenvalues --  -11.28218 -11.27485 -11.27470 -11.26968 -11.26916
 Alpha  occ. eigenvalues --  -11.26435 -11.25863 -11.25770  -1.60978  -1.59237
 Alpha  occ. eigenvalues --   -1.40526  -1.38797  -1.20158  -1.18498  -1.09601
 Alpha  occ. eigenvalues --   -1.07886  -1.05510  -1.03895  -0.96476  -0.94762
 Alpha  occ. eigenvalues --   -0.86918  -0.85280  -0.83306  -0.81629  -0.78391
 Alpha  occ. eigenvalues --   -0.76746  -0.73118  -0.72310  -0.71427  -0.71243
 Alpha  occ. eigenvalues --   -0.70560  -0.69484  -0.65801  -0.65497  -0.64138
 Alpha  occ. eigenvalues --   -0.63896  -0.62852  -0.61274  -0.56010  -0.54247
 Alpha  occ. eigenvalues --   -0.53857  -0.53586  -0.52203  -0.51986  -0.49901
 Alpha  occ. eigenvalues --   -0.49870  -0.48195  -0.48162  -0.45978  -0.44255
 Alpha  occ. eigenvalues --   -0.38125  -0.37105  -0.36352  -0.35521
 Alpha virt. eigenvalues --    0.04075   0.05834   0.10549   0.12159   0.15643
 Alpha virt. eigenvalues --    0.17410   0.20768   0.22346   0.26706   0.27621
 Alpha virt. eigenvalues --    0.28048   0.29318   0.30453   0.31794   0.32100

 Mulliken charges:
               1
     1  C   -0.169746
     2  C   -0.218587
     3  C   -0.171177
     4  C    0.155870
     5  C   -0.172467
     6  C   -0.218709
     7  H    0.228764
     8  H    0.225969
     9  H    0.276125
    10  H    0.277640
    11  H    0.226810
    12  N    0.485581
    13  O   -0.460417
    14  O   -0.462896
    15  C   -0.162562
    16  C   -0.220637
    17  C   -0.171475
    18  C    0.156605
    19  C   -0.172633
    20  C   -0.219038
    21  H    0.240871
    22  H    0.224353
    23  H    0.272955
    24  H    0.270629
    25  H    0.216478
    26  N    0.488387
    27  O   -0.464269
    28  O   -0.462423
 Sum of Mulliken charges =  -0.00000

 Dipole moment (field-independent basis, Debye):
    X=              8.0902    Y=             -0.9541    Z=             -1.4748  Tot=              8.2787
 Quadrupole moment (field-independent basis, Debye-Ang):
   XX=           -113.1831   YY=           -103.1347   ZZ=           -103.2855
   XY=            -26.7518   XZ=             -2.5391   YZ=             -1.8128

 Normal termination of Gaussian 16 at Thu May  6 08:22:59 2021.
