 Gaussian 16, Revision A.03,
 Gaussian 16:  EM64L-G16RevA.03 25-Dec-2016

 -------------
 #p 6-31g* mp2
 -------------

 ------------------------------------------------------
 Input file generated by CHIRIPA (05-May-2021 14:55:21)
 ------------------------------------------------------
 Symbolic Z-matrix:
 Charge =  0 Multiplicity = 1

                         Standard orientation:
 ---------------------------------------------------------------------
 Center     Atomic      Atomic             Coordinates (Angstroms)
 Number     Number       Type             X           Y           Z
 ---------------------------------------------------------------------
      1          6           0       -0.640341   -0.566832    1.047176
      2          6           0       -1.774324   -0.948314    1.771798
      3          6           0       -3.054104   -0.741915    1.248243
      4          6           0       -3.163634   -0.148759   -0.008522
      5          6           0       -2.053010    0.242236   -0.754798
      6          6           0       -0.783052    0.026180   -0.211589
      7          1           0        0.350008   -0.730918    1.461520
      8          1           0       -1.666513   -1.409070    2.749615
      9          1           0       -3.948929   -1.027616    1.787764
     10          1           0       -2.192307    0.699275   -1.726975
     11          1           0        0.095839    0.323454   -0.776589
     12          7           0       -4.513281    0.074858   -0.573189
     13          8           0       -4.582907    0.599342   -1.682561
     14          8           0       -5.475952   -0.278588    0.104289
     15          6           0        3.227453    0.760363    0.038305
     16          6           0        3.777289    2.183704    0.137136
     17          6           0        2.690379    3.218253    0.430616
     18          1           0        2.462085    0.723602   -0.748972
     19          1           0        2.720704    0.504359    0.979082
     20          1           0        4.284051    2.436448   -0.803039
     21          1           0        4.541573    2.217039    0.924139
     22          1           0        2.190571    2.993624    1.378421
     23          1           0        1.931585    3.214280   -0.358570
     24          1           0        3.105430    4.228784    0.497104
     25          6           0        4.302008   -0.285192   -0.254732
     26          6           0        3.752172   -1.708533   -0.353564
     27          6           0        4.839082   -2.743083   -0.647044
     28          1           0        4.808757   -0.029187   -1.195509
     29          1           0        5.067377   -0.248431    0.532545
     30          1           0        2.987887   -1.741868   -1.140566
     31          1           0        3.245410   -1.961278    0.586611
     32          1           0        5.597876   -2.739109    0.142142
     33          1           0        5.338891   -2.518453   -1.594848
     34          1           0        4.424031   -3.753613   -0.713531
 ---------------------------------------------------------------------

 SCF Done:  E(RHF) =  -669.535419293     A.U. after   15 cycles
 E2 =    -0.2092109880D+01 EUMP2 =    -0.67162752917284D+03

 The electronic state is 1-A.
 Alpha  occ. eigenvalues --  -20.60689 -20.60684 -15.85741 -11.31083 -11.27653
 Alpha  occ. eigenvalues --  -11.27638 -11.27357 -11.26662 -11.26602 -11.22726
 Alpha  occ. eigenvalues --  -11.22640 -11.22557 -11.22404 -11.21916 -11.21863
 Alpha  occ. eigenvalues --   -1.59765  -1.39319  -1.19248  -1.09519  -1.08642
 Alpha  occ. eigenvalues --   -1.04650  -1.04482  -0.96931  -0.95484  -0.87940
 Alpha  occ. eigenvalues --   -0.86049  -0.82321  -0.80558  -0.79398  -0.77369
 Alpha  occ. eigenvalues --   -0.71959  -0.71088  -0.70352  -0.66160  -0.64897
 Alpha  occ. eigenvalues --   -0.64656  -0.62027  -0.61854  -0.60295  -0.58547
 Alpha  occ. eigenvalues --   -0.56231  -0.55138  -0.53570  -0.53370  -0.52979
 Alpha  occ. eigenvalues --   -0.52742  -0.50863  -0.48868  -0.48717  -0.48714
 Alpha  occ. eigenvalues --   -0.47593  -0.46857  -0.46811  -0.44782  -0.44730
 Alpha  occ. eigenvalues --   -0.37219  -0.36254
 Alpha virt. eigenvalues --    0.05155   0.11372   0.16641   0.19015   0.22616
 Alpha virt. eigenvalues --    0.22780   0.23787   0.25121   0.27062   0.28463
 Alpha virt. eigenvalues --    0.30133   0.30480   0.30898   0.31283   0.31462

 Mulliken charges:
               1
     1  C   -0.175676
     2  C   -0.218967
     3  C   -0.171158
     4  C    0.158754
     5  C   -0.172473
     6  C   -0.223171
     7  H    0.229296
     8  H    0.222883
     9  H    0.275085
    10  H    0.275332
    11  H    0.230722
    12  N    0.488013
    13  O   -0.460756
    14  O   -0.460799
    15  C   -0.305152
    16  C   -0.299902
    17  C   -0.476699
    18  H    0.145776
    19  H    0.144929
    20  H    0.155637
    21  H    0.155408
    22  H    0.155645
    23  H    0.153842
    24  H    0.165179
    25  C   -0.297933
    26  C   -0.301088
    27  C   -0.476194
    28  H    0.153797
    29  H    0.153268
    30  H    0.151478
    31  H    0.146886
    32  H    0.157053
    33  H    0.158020
    34  H    0.162963
 Sum of Mulliken charges =  -0.00000

 Dipole moment (field-independent basis, Debye):
    X=              5.0707    Y=             -0.7377    Z=              1.9659  Tot=              5.4882
 Quadrupole moment (field-independent basis, Debye-Ang):
   XX=           -123.9174   YY=            -94.6483   ZZ=            -90.7113
   XY=              3.3936   XZ=             -8.1477   YZ=             -2.4350

 Normal termination of Gaussian 16 at Wed May  5 22:13:03 2021.
