 Gaussian 16, Revision A.03,
 Gaussian 16:  EM64L-G16RevA.03 25-Dec-2016

 -------------
 #p 6-31g* mp2
 -------------

 ------------------------------------------------------
 Input file generated by CHIRIPA (05-May-2021 14:53:13)
 ------------------------------------------------------
 Symbolic Z-matrix:
 Charge =  0 Multiplicity = 1

                         Standard orientation:
 ---------------------------------------------------------------------
 Center     Atomic      Atomic             Coordinates (Angstroms)
 Number     Number       Type             X           Y           Z
 ---------------------------------------------------------------------
      1          6           0        3.649426    0.688931   -0.156588
      2          6           0        2.925053    2.021394   -0.351039
      3          6           0        3.886603    3.193737   -0.548085
      4          1           0        4.318699    0.765923    0.711220
      5          1           0        4.289457    0.496788   -1.028847
      6          1           0        2.285522    2.210299    0.520701
      7          1           0        2.257284    1.941159   -1.218369
      8          1           0        4.516314    3.031639   -1.428874
      9          1           0        4.544713    3.302308    0.320077
     10          1           0        3.347612    4.136363   -0.685214
     11          6           0        2.701588   -0.492606    0.041659
     12          6           0        3.425960   -1.825070    0.236110
     13          6           0        2.464410   -2.997413    0.433156
     14          1           0        2.061557   -0.300463    0.913918
     15          1           0        2.032315   -0.569599   -0.826149
     16          1           0        4.093730   -1.744835    1.103440
     17          1           0        4.065492   -2.013975   -0.635630
     18          1           0        1.806301   -3.105984   -0.435006
     19          1           0        1.834700   -2.835315    1.313945
     20          1           0        3.003402   -3.940038    0.570285
     21          6           0       -3.491961    2.203756    0.423284
     22          6           0       -2.343864    1.821865    1.125106
     23          6           0       -1.775034    0.560789    0.923441
     24          6           0       -2.383115   -0.297155    0.008313
     25          6           0       -3.527386    0.054233   -0.706154
     26          6           0       -4.079023    1.320279   -0.488499
     27          1           0       -3.927163    3.185321    0.586153
     28          1           0       -1.885800    2.505923    1.833828
     29          1           0       -0.886563    0.239465    1.453336
     30          1           0       -3.961418   -0.649391   -1.406116
     31          1           0       -4.970686    1.614169   -1.034952
     32          7           0       -1.790022   -1.634829   -0.213645
     33          8           0       -2.344813   -2.372342   -1.025384
     34          8           0       -0.781595   -1.920458    0.428327
 ---------------------------------------------------------------------

 SCF Done:  E(RHF) =  -669.535552951     A.U. after   15 cycles
 E2 =    -0.2092343091D+01 EUMP2 =    -0.67162789604182D+03

 The electronic state is 1-A.
 Alpha  occ. eigenvalues --  -20.60889 -20.60872 -15.85909 -11.31240 -11.27809
 Alpha  occ. eigenvalues --  -11.27804 -11.27548 -11.26819 -11.26808 -11.21511
 Alpha  occ. eigenvalues --  -11.21036 -11.20996 -11.20706 -11.20638 -11.19487
 Alpha  occ. eigenvalues --   -1.59947  -1.39503  -1.19412  -1.08816  -1.07901
 Alpha  occ. eigenvalues --   -1.04810  -1.02892  -0.95664  -0.95296  -0.86317
 Alpha  occ. eigenvalues --   -0.86204  -0.82497  -0.79036  -0.77741  -0.77421
 Alpha  occ. eigenvalues --   -0.72134  -0.71258  -0.70523  -0.65069  -0.64819
 Alpha  occ. eigenvalues --   -0.64549  -0.62159  -0.60302  -0.58787  -0.56890
 Alpha  occ. eigenvalues --   -0.55317  -0.54578  -0.53140  -0.52907  -0.52022
 Alpha  occ. eigenvalues --   -0.51706  -0.49247  -0.48905  -0.48880  -0.47254
 Alpha  occ. eigenvalues --   -0.46101  -0.45352  -0.45067  -0.44641  -0.43167
 Alpha  occ. eigenvalues --   -0.37392  -0.36408
 Alpha virt. eigenvalues --    0.04966   0.11231   0.16448   0.20799   0.23158
 Alpha virt. eigenvalues --    0.24703   0.25607   0.27484   0.27670   0.28806
 Alpha virt. eigenvalues --    0.29328   0.30822   0.31779   0.32139   0.32537

 Mulliken charges:
               1
     1  C   -0.298185
     2  C   -0.297534
     3  C   -0.475053
     4  H    0.147736
     5  H    0.149522
     6  H    0.143831
     7  H    0.151868
     8  H    0.156384
     9  H    0.154823
    10  H    0.157093
    11  C   -0.294369
    12  C   -0.301718
    13  C   -0.471227
    14  H    0.145629
    15  H    0.152239
    16  H    0.146069
    17  H    0.147914
    18  H    0.167702
    19  H    0.162800
    20  H    0.150817
    21  C   -0.170523
    22  C   -0.218858
    23  C   -0.170669
    24  C    0.156886
    25  C   -0.170607
    26  C   -0.218701
    27  H    0.225824
    28  H    0.223757
    29  H    0.277395
    30  H    0.275611
    31  H    0.223579
    32  N    0.491896
    33  O   -0.459896
    34  O   -0.462036
 Sum of Mulliken charges =  -0.00000

 Dipole moment (field-independent basis, Debye):
    X=             -2.3140    Y=              4.5721    Z=              0.7419  Tot=              5.1778
 Quadrupole moment (field-independent basis, Debye-Ang):
   XX=            -83.7521   YY=            -99.0044   ZZ=            -92.0300
   XY=            -10.5113   XZ=              0.8423   YZ=              1.0069

 Normal termination of Gaussian 16 at Thu May  6 20:16:13 2021.
