 Gaussian 16, Revision A.03,
 Gaussian 16:  EM64L-G16RevA.03 25-Dec-2016

 -------------
 #p 6-31g* mp2
 -------------

 ------------------------------------------------------
 Input file generated by CHIRIPA (05-May-2021 14:55:19)
 ------------------------------------------------------
 Symbolic Z-matrix:
 Charge =  0 Multiplicity = 1

                         Standard orientation:
 ---------------------------------------------------------------------
 Center     Atomic      Atomic             Coordinates (Angstroms)
 Number     Number       Type             X           Y           Z
 ---------------------------------------------------------------------
      1          6           0       -1.730704   -2.546844   -0.902865
      2          6           0       -0.851916   -1.462416   -0.811928
      3          6           0       -1.293778   -0.229560   -0.322672
      4          6           0       -2.626944   -0.115913    0.068535
      5          6           0       -3.526728   -1.177758   -0.009985
      6          6           0       -3.062957   -2.401310   -0.502309
      7          1           0       -1.378945   -3.500943   -1.284122
      8          1           0        0.183266   -1.572540   -1.122276
      9          1           0       -0.634826    0.626377   -0.241610
     10          1           0       -4.552986   -1.037426    0.307062
     11          1           0       -3.747675   -3.241771   -0.571814
     12          7           0       -3.106321    1.184332    0.588112
     13          8           0       -4.285623    1.258659    0.926285
     14          8           0       -2.293678    2.104516    0.647347
     15          6           0        3.121840    0.946636   -0.516095
     16          6           0        2.317315    2.141920   -0.004219
     17          6           0        2.046208    3.181544   -1.092097
     18          1           0        4.074936    1.304155   -0.929295
     19          1           0        2.577897    0.476110   -1.346835
     20          1           0        2.861953    2.609218    0.826214
     21          1           0        1.366106    1.781496    0.407984
     22          1           0        1.482106    2.736589   -1.918175
     23          1           0        2.986452    3.569015   -1.497568
     24          1           0        1.469809    4.027325   -0.704437
     25          6           0        3.400879   -0.101301    0.559866
     26          6           0        4.205404   -1.296585    0.047989
     27          6           0        4.476512   -2.336209    1.135867
     28          1           0        3.944822    0.369226    1.390605
     29          1           0        2.447784   -0.458819    0.973065
     30          1           0        5.156613   -0.936161   -0.364213
     31          1           0        3.660766   -1.763883   -0.782444
     32          1           0        3.536267   -2.723679    1.541339
     33          1           0        5.040614   -1.891254    1.961946
     34          1           0        5.052910   -3.181990    0.748207
 ---------------------------------------------------------------------

 SCF Done:  E(RHF) =  -669.535562975     A.U. after   15 cycles
 E2 =    -0.2092077286D+01 EUMP2 =    -0.67162764026121D+03

 The electronic state is 1-A.
 Alpha  occ. eigenvalues --  -20.60783 -20.60778 -15.85835 -11.31203 -11.27777
 Alpha  occ. eigenvalues --  -11.27762 -11.27523 -11.26798 -11.26788 -11.22205
 Alpha  occ. eigenvalues --  -11.21970 -11.21926 -11.21884 -11.21579 -11.21162
 Alpha  occ. eigenvalues --   -1.59857  -1.39411  -1.19380  -1.08945  -1.08774
 Alpha  occ. eigenvalues --   -1.04787  -1.03949  -0.96378  -0.95609  -0.87392
 Alpha  occ. eigenvalues --   -0.86184  -0.82441  -0.80014  -0.78746  -0.77489
 Alpha  occ. eigenvalues --   -0.72055  -0.71179  -0.70502  -0.65634  -0.65029
 Alpha  occ. eigenvalues --   -0.64802  -0.62170  -0.61307  -0.59740  -0.57971
 Alpha  occ. eigenvalues --   -0.55690  -0.55286  -0.53114  -0.53034  -0.52897
 Alpha  occ. eigenvalues --   -0.52765  -0.50338  -0.48814  -0.48809  -0.48305
 Alpha  occ. eigenvalues --   -0.47073  -0.46263  -0.46234  -0.44814  -0.44213
 Alpha  occ. eigenvalues --   -0.37362  -0.36387
 Alpha virt. eigenvalues --    0.05030   0.11249   0.16490   0.18050   0.22804
 Alpha virt. eigenvalues --    0.23280   0.25220   0.26067   0.27439   0.28417
 Alpha virt. eigenvalues --    0.29512   0.31217   0.31361   0.31707   0.32283

 Mulliken charges:
               1
     1  C   -0.170587
     2  C   -0.224660
     3  C   -0.180329
     4  C    0.157908
     5  C   -0.169938
     6  C   -0.218846
     7  H    0.225882
     8  H    0.225831
     9  H    0.289442
    10  H    0.275752
    11  H    0.223586
    12  N    0.486914
    13  O   -0.460182
    14  O   -0.461045
    15  C   -0.299747
    16  C   -0.306841
    17  C   -0.475939
    18  H    0.153494
    19  H    0.140943
    20  H    0.157374
    21  H    0.153735
    22  H    0.152281
    23  H    0.155046
    24  H    0.170316
    25  C   -0.299881
    26  C   -0.299076
    27  C   -0.475920
    28  H    0.154371
    29  H    0.146744
    30  H    0.154995
    31  H    0.144978
    32  H    0.154229
    33  H    0.158229
    34  H    0.160940
 Sum of Mulliken charges =  -0.00000

 Dipole moment (field-independent basis, Debye):
    X=              1.7835    Y=             -4.4412    Z=             -1.7527  Tot=              5.0967
 Quadrupole moment (field-independent basis, Debye-Ang):
   XX=            -98.2905   YY=            -93.3749   ZZ=            -96.2217
   XY=             14.9817   XZ=              4.5965   YZ=              0.3571

 Normal termination of Gaussian 16 at Wed May  5 17:21:23 2021.
