 Gaussian 16, Revision A.03,
 Gaussian 16:  EM64L-G16RevA.03 25-Dec-2016

 -------------
 #p 6-31g* mp2
 -------------

 ------------------------------------------------------
 Input file generated by CHIRIPA (05-May-2021 14:55:21)
 ------------------------------------------------------
 Symbolic Z-matrix:
 Charge =  0 Multiplicity = 1

                         Standard orientation:
 ---------------------------------------------------------------------
 Center     Atomic      Atomic             Coordinates (Angstroms)
 Number     Number       Type             X           Y           Z
 ---------------------------------------------------------------------
      1          6           0        6.319063    0.332071    0.238509
      2          6           0        5.538577    1.472662    0.023065
      3          6           0        4.151018    1.368317   -0.112361
      4          6           0        3.574417    0.102035   -0.026623
      5          6           0        4.325007   -1.053012    0.187321
      6          6           0        5.710859   -0.924909    0.319807
      7          1           0        7.396289    0.422356    0.342569
      8          1           0        6.008200    2.450137   -0.040510
      9          1           0        3.522944    2.234870   -0.279777
     10          1           0        3.828242   -2.013840    0.246077
     11          1           0        6.314494   -1.812432    0.487058
     12          7           0        2.106374   -0.021005   -0.168436
     13          8           0        1.622552   -1.148056   -0.089002
     14          8           0        1.467342    1.011936   -0.356339
     15          6           0       -5.544511    0.062106   -0.313010
     16          6           0       -6.597606    0.488230    0.710412
     17          6           0       -7.911571    0.922951    0.060558
     18          1           0       -5.355559    0.895197   -1.003807
     19          1           0       -5.945020   -0.762070   -0.919412
     20          1           0       -6.194714    1.310435    1.315617
     21          1           0       -6.783933   -0.345908    1.398969
     22          1           0       -8.339200    0.105054   -0.528321
     23          1           0       -7.746634    1.770808   -0.612148
     24          1           0       -8.650131    1.223412    0.810300
     25          6           0       -4.225392   -0.375228    0.321333
     26          6           0       -3.172297   -0.801354   -0.702090
     27          6           0       -1.858333   -1.236074   -0.052235
     28          1           0       -3.824884    0.448947    0.927734
     29          1           0       -4.414344   -1.208321    1.012130
     30          1           0       -2.985970    0.032785   -1.390647
     31          1           0       -3.575189   -1.623559   -1.307295
     32          1           0       -2.023271   -2.083932    0.620471
     33          1           0       -1.430703   -0.418177    0.536644
     34          1           0       -1.119774   -1.536534   -0.801978
 ---------------------------------------------------------------------

 SCF Done:  E(RHF) =  -669.535850004     A.U. after   15 cycles
 E2 =    -0.2091296677D+01 EUMP2 =    -0.67162714668121D+03

 The electronic state is 1-A.
 Alpha  occ. eigenvalues --  -20.60952 -20.60947 -15.85976 -11.31305 -11.27866
 Alpha  occ. eigenvalues --  -11.27863 -11.27604 -11.26873 -11.26863 -11.20842
 Alpha  occ. eigenvalues --  -11.20450 -11.20435 -11.20173 -11.20015 -11.18845
 Alpha  occ. eigenvalues --   -1.60005  -1.39561  -1.19471  -1.08875  -1.07319
 Alpha  occ. eigenvalues --   -1.04868  -1.02288  -0.95719  -0.94694  -0.86268
 Alpha  occ. eigenvalues --   -0.85704  -0.82548  -0.78408  -0.77601  -0.77070
 Alpha  occ. eigenvalues --   -0.72187  -0.71321  -0.70579  -0.65126  -0.64871
 Alpha  occ. eigenvalues --   -0.63965  -0.62214  -0.59697  -0.58180  -0.56298
 Alpha  occ. eigenvalues --   -0.55374  -0.54005  -0.53199  -0.52960  -0.51411
 Alpha  occ. eigenvalues --   -0.51137  -0.49040  -0.48923  -0.48488  -0.46695
 Alpha  occ. eigenvalues --   -0.45472  -0.44975  -0.44602  -0.44500  -0.42473
 Alpha  occ. eigenvalues --   -0.37451  -0.36469
 Alpha virt. eigenvalues --    0.04918   0.11187   0.16418   0.21325   0.23877
 Alpha virt. eigenvalues --    0.25620   0.27240   0.27691   0.28206   0.28522
 Alpha virt. eigenvalues --    0.29378   0.30899   0.32419   0.32595   0.32738

 Mulliken charges:
               1
     1  C   -0.170585
     2  C   -0.218581
     3  C   -0.170744
     4  C    0.158316
     5  C   -0.170833
     6  C   -0.218554
     7  H    0.226014
     8  H    0.223823
     9  H    0.275770
    10  H    0.275937
    11  H    0.223871
    12  N    0.488506
    13  O   -0.457449
    14  O   -0.459840
    15  C   -0.297122
    16  C   -0.298723
    17  C   -0.475043
    18  H    0.148605
    19  H    0.147251
    20  H    0.151059
    21  H    0.150434
    22  H    0.154014
    23  H    0.154328
    24  H    0.157789
    25  C   -0.297166
    26  C   -0.301704
    27  C   -0.469958
    28  H    0.149122
    29  H    0.146241
    30  H    0.151202
    31  H    0.144616
    32  H    0.142846
    33  H    0.162364
    34  H    0.174196
 Sum of Mulliken charges =  -0.00000

 Dipole moment (field-independent basis, Debye):
    X=              5.6489    Y=              0.4585    Z=              0.4825  Tot=              5.6880
 Quadrupole moment (field-independent basis, Debye-Ang):
   XX=            -61.0494   YY=            -89.0779   ZZ=            -95.8547
   XY=              2.2160   XZ=              1.4422   YZ=             -0.5887

 Normal termination of Gaussian 16 at Thu May  6 19:10:05 2021.
