 Gaussian 16, Revision A.03,
 Gaussian 16:  EM64L-G16RevA.03 25-Dec-2016

 -------------
 #p 6-31g* mp2
 -------------

 ------------------------------------------------------
 Input file generated by CHIRIPA (05-May-2021 14:53:16)
 ------------------------------------------------------
 Symbolic Z-matrix:
 Charge =  0 Multiplicity = 1

                         Standard orientation:
 ---------------------------------------------------------------------
 Center     Atomic      Atomic             Coordinates (Angstroms)
 Number     Number       Type             X           Y           Z
 ---------------------------------------------------------------------
      1          6           0       -4.275926   -0.049562    0.263208
      2          6           0       -4.805066   -0.930993   -0.868638
      3          6           0       -5.840821   -1.948932   -0.390301
      4          1           0       -3.833212   -0.687848    1.040087
      5          1           0       -5.118345    0.476411    0.733397
      6          1           0       -3.961738   -1.454089   -1.337450
      7          1           0       -5.246399   -0.290524   -1.643001
      8          1           0       -6.700619   -1.441566    0.059062
      9          1           0       -5.408659   -2.611743    0.366349
     10          1           0       -6.205683   -2.568459   -1.215481
     11          6           0       -3.239627    0.973137   -0.199284
     12          6           0       -2.710487    1.854568    0.932562
     13          6           0       -1.674732    2.872507    0.454225
     14          1           0       -2.397208    0.447164   -0.669473
     15          1           0       -3.682341    1.611423   -0.976163
     16          1           0       -2.269153    1.214099    1.706925
     17          1           0       -3.553815    2.377664    1.401374
     18          1           0       -2.106894    3.535317   -0.302425
     19          1           0       -0.814934    2.365141    0.004862
     20          1           0       -1.309870    3.492033    1.279405
     21          6           0        3.646191    2.005183   -0.538268
     22          6           0        4.597967    0.980823   -0.501773
     23          6           0        4.215712   -0.333763   -0.218412
     24          6           0        2.867081   -0.589503    0.024653
     25          6           0        1.895193    0.409434   -0.004485
     26          6           0        2.300215    1.716728   -0.289945
     27          1           0        3.951979    3.023553   -0.759205
     28          1           0        5.643972    1.201914   -0.694222
     29          1           0        4.931711   -1.145900   -0.183787
     30          1           0        0.859892    0.158189    0.191591
     31          1           0        1.558871    2.510256   -0.317620
     32          7           0        2.450354   -1.977337    0.325746
     33          8           0        1.255954   -2.176598    0.536312
     34          8           0        3.326016   -2.839581    0.345475
 ---------------------------------------------------------------------

 SCF Done:  E(RHF) =  -669.535452599     A.U. after   15 cycles
 E2 =    -0.2091452747D+01 EUMP2 =    -0.67162690534578D+03

 The electronic state is 1-A.
 Alpha  occ. eigenvalues --  -20.60774 -20.60768 -15.85826 -11.31171 -11.27733
 Alpha  occ. eigenvalues --  -11.27727 -11.27463 -11.26747 -11.26697 -11.22065
 Alpha  occ. eigenvalues --  -11.21942 -11.21643 -11.21507 -11.21386 -11.20908
 Alpha  occ. eigenvalues --   -1.59849  -1.39403  -1.19336  -1.08734  -1.08620
 Alpha  occ. eigenvalues --   -1.04740  -1.03769  -0.96248  -0.95575  -0.87275
 Alpha  occ. eigenvalues --   -0.86133  -0.82413  -0.79853  -0.78373  -0.77462
 Alpha  occ. eigenvalues --   -0.72045  -0.71171  -0.70451  -0.65265  -0.64985
 Alpha  occ. eigenvalues --   -0.64747  -0.62177  -0.61102  -0.59643  -0.57819
 Alpha  occ. eigenvalues --   -0.55577  -0.55206  -0.53067  -0.53024  -0.52828
 Alpha  occ. eigenvalues --   -0.52600  -0.50185  -0.48802  -0.48799  -0.48154
 Alpha  occ. eigenvalues --   -0.46864  -0.45929  -0.45804  -0.44814  -0.43994
 Alpha  occ. eigenvalues --   -0.37315  -0.36337
 Alpha virt. eigenvalues --    0.05071   0.11315   0.16569   0.19246   0.22672
 Alpha virt. eigenvalues --    0.23928   0.25650   0.26240   0.27344   0.28312
 Alpha virt. eigenvalues --    0.29311   0.30193   0.31323   0.31460   0.32322

 Mulliken charges:
               1
     1  C   -0.299224
     2  C   -0.300542
     3  C   -0.476236
     4  H    0.154744
     5  H    0.148955
     6  H    0.155845
     7  H    0.150280
     8  H    0.153949
     9  H    0.158211
    10  H    0.160793
    11  C   -0.299457
    12  C   -0.301138
    13  C   -0.481067
    14  H    0.149834
    15  H    0.149501
    16  H    0.155927
    17  H    0.155164
    18  H    0.158999
    19  H    0.145121
    20  H    0.162011
    21  C   -0.170863
    22  C   -0.218560
    23  C   -0.170996
    24  C    0.158961
    25  C   -0.174430
    26  C   -0.223217
    27  H    0.225864
    28  H    0.223336
    29  H    0.275440
    30  H    0.276184
    31  H    0.229956
    32  N    0.488318
    33  O   -0.461333
    34  O   -0.460331
 Sum of Mulliken charges =  -0.00000

 Dipole moment (field-independent basis, Debye):
    X=              1.3249    Y=              4.8521    Z=             -1.0250  Tot=              5.1331
 Quadrupole moment (field-independent basis, Debye-Ang):
   XX=            -81.3475   YY=           -100.7541   ZZ=            -95.6407
   XY=             10.6642   XZ=             -3.4173   YZ=              0.9417

 Normal termination of Gaussian 16 at Thu May  6 10:38:34 2021.
