 Gaussian 16, Revision A.03,
 Gaussian 16:  EM64L-G16RevA.03 25-Dec-2016

 -------------
 #p 6-31g* mp2
 -------------

 ------------------------------------------------------
 Input file generated by CHIRIPA (05-May-2021 14:53:13)
 ------------------------------------------------------
 Symbolic Z-matrix:
 Charge =  0 Multiplicity = 1

                         Standard orientation:
 ---------------------------------------------------------------------
 Center     Atomic      Atomic             Coordinates (Angstroms)
 Number     Number       Type             X           Y           Z
 ---------------------------------------------------------------------
      1          6           0       -4.293658   -0.287401    0.299161
      2          6           0       -5.754781   -0.698647    0.114819
      3          6           0       -6.071152   -2.055181    0.745309
      4          1           0       -3.644477   -1.057547   -0.139456
      5          1           0       -4.061214   -0.256983    1.372678
      6          1           0       -5.984783   -0.726937   -0.957988
      7          1           0       -6.400564    0.072660    0.553756
      8          1           0       -5.869384   -2.036395    1.821199
      9          1           0       -5.451240   -2.840535    0.300865
     10          1           0       -7.120888   -2.329592    0.601739
     11          6           0       -3.961924    1.066549   -0.325738
     12          6           0       -2.500801    1.477795   -0.141396
     13          6           0       -2.184430    2.834329   -0.771886
     14          1           0       -4.194368    1.036131   -1.399255
     15          1           0       -4.611105    1.836695    0.112880
     16          1           0       -1.855018    0.706488   -0.580333
     17          1           0       -2.270799    1.506085    0.931411
     18          1           0       -2.804342    3.619683   -0.327442
     19          1           0       -2.386198    2.815543   -1.847776
     20          1           0       -1.134694    3.108741   -0.628316
     21          6           0        5.647175    0.175810    0.527724
     22          6           0        5.312789   -0.673808   -0.531925
     23          6           0        3.973953   -0.946960   -0.827654
     24          6           0        2.990654   -0.350775   -0.039633
     25          6           0        3.291932    0.500043    1.022737
     26          6           0        4.637459    0.758996    1.300311
     27          1           0        6.689813    0.382486    0.750403
     28          1           0        6.094847   -1.128118   -1.133616
     29          1           0        3.686953   -1.600893   -1.642160
     30          1           0        2.490209    0.938164    1.604724
     31          1           0        4.894200    1.419221    2.123859
     32          7           0        1.569747   -0.632433   -0.343098
     33          8           0        0.722141   -0.094735    0.366184
     34          8           0        1.330551   -1.385561   -1.284491
 ---------------------------------------------------------------------

 SCF Done:  E(RHF) =  -669.536055090     A.U. after   15 cycles
 E2 =    -0.2091107786D+01 EUMP2 =    -0.67162716287633D+03

 The electronic state is 1-A.
 Alpha  occ. eigenvalues --  -20.60980 -20.60961 -15.85995 -11.31312 -11.27873
 Alpha  occ. eigenvalues --  -11.27870 -11.27609 -11.26878 -11.26869 -11.20689
 Alpha  occ. eigenvalues --  -11.20285 -11.20222 -11.20129 -11.19926 -11.19866
 Alpha  occ. eigenvalues --   -1.60033  -1.39588  -1.19479  -1.08885  -1.07234
 Alpha  occ. eigenvalues --   -1.04874  -1.02367  -0.95728  -0.94885  -0.86274
 Alpha  occ. eigenvalues --   -0.85909  -0.82562  -0.78428  -0.77617  -0.76980
 Alpha  occ. eigenvalues --   -0.72208  -0.71344  -0.70587  -0.65133  -0.64877
 Alpha  occ. eigenvalues --   -0.63873  -0.62221  -0.59772  -0.58252  -0.56460
 Alpha  occ. eigenvalues --   -0.55378  -0.54198  -0.53206  -0.52965  -0.51610
 Alpha  occ. eigenvalues --   -0.51299  -0.49073  -0.48978  -0.48807  -0.46718
 Alpha  occ. eigenvalues --   -0.45454  -0.45015  -0.44537  -0.44348  -0.42628
 Alpha  occ. eigenvalues --   -0.37457  -0.36474
 Alpha virt. eigenvalues --    0.04903   0.11181   0.16399   0.21314   0.23993
 Alpha virt. eigenvalues --    0.25377   0.27234   0.27850   0.28142   0.28804
 Alpha virt. eigenvalues --    0.29053   0.30886   0.32336   0.32483   0.32940

 Mulliken charges:
               1
     1  C   -0.297910
     2  C   -0.298757
     3  C   -0.475050
     4  H    0.156342
     5  H    0.147906
     6  H    0.150359
     7  H    0.148826
     8  H    0.153722
     9  H    0.156013
    10  H    0.156839
    11  C   -0.298432
    12  C   -0.302282
    13  C   -0.475268
    14  H    0.146105
    15  H    0.143130
    16  H    0.177638
    17  H    0.149206
    18  H    0.148222
    19  H    0.151458
    20  H    0.157508
    21  C   -0.170553
    22  C   -0.218574
    23  C   -0.170659
    24  C    0.157914
    25  C   -0.170859
    26  C   -0.218533
    27  H    0.226064
    28  H    0.223863
    29  H    0.275830
    30  H    0.275891
    31  H    0.223916
    32  N    0.489101
    33  O   -0.459062
    34  O   -0.459914
 Sum of Mulliken charges =  -0.00000

 Dipole moment (field-independent basis, Debye):
    X=              5.3785    Y=              0.8363    Z=              1.0672  Tot=              5.5468
 Quadrupole moment (field-independent basis, Debye-Ang):
   XX=            -66.5152   YY=            -95.7003   ZZ=            -91.8183
   XY=              0.2304   XZ=              1.8686   YZ=              3.2307

 Normal termination of Gaussian 16 at Wed May  5 21:46:51 2021.
