 Gaussian 16, Revision A.03,
 Gaussian 16:  EM64L-G16RevA.03 25-Dec-2016

 -------------
 #p 6-31g* mp2
 -------------

 ------------------------------------------------------
 Input file generated by CHIRIPA (05-May-2021 14:57:25)
 ------------------------------------------------------
 Symbolic Z-matrix:
 Charge =  0 Multiplicity = 1

                         Standard orientation:
 ---------------------------------------------------------------------
 Center     Atomic      Atomic             Coordinates (Angstroms)
 Number     Number       Type             X           Y           Z
 ---------------------------------------------------------------------
      1          6           0        2.754198    2.261158    0.807795
      2          6           0        2.230950    1.080084    1.344261
      3          6           0        2.739081   -0.162780    0.954850
      4          6           0        3.775247   -0.187775    0.022635
      5          6           0        4.317679    0.971428   -0.529911
      6          6           0        3.794059    2.203163   -0.125932
      7          1           0        2.353454    3.222323    1.115957
      8          1           0        1.423369    1.122091    2.069583
      9          1           0        2.352624   -1.092598    1.354235
     10          1           0        5.122592    0.897599   -1.251077
     11          1           0        4.202373    3.118780   -0.544228
     12          7           0        4.321381   -1.497648   -0.397327
     13          8           0        5.234349   -1.492691   -1.220189
     14          8           0        3.826131   -2.504483    0.104320
     15          6           0       -1.202685    0.421769   -0.070239
     16          6           0       -1.783728   -0.346454    0.944031
     17          6           0       -3.158206   -0.602099    0.942167
     18          6           0       -3.925242   -0.071601   -0.093940
     19          6           0       -3.375768    0.697470   -1.118586
     20          6           0       -1.999155    0.940365   -1.096501
     21          1           0       -0.134128    0.615408   -0.060937
     22          1           0       -1.167630   -0.750479    1.742300
     23          1           0       -3.634001   -1.193592    1.714937
     24          1           0       -4.015758    1.086764   -1.901069
     25          1           0       -1.550633    1.537316   -1.885502
     26          7           0       -5.381470   -0.335493   -0.106617
     27          8           0       -6.035419    0.143240   -1.030631
     28          8           0       -5.841338   -1.016066    0.807702
 ---------------------------------------------------------------------

 SCF Done:  E(RHF) =  -868.336755104     A.U. after   16 cycles
 E2 =    -0.2601249788D+01 EUMP2 =    -0.87093800489188D+03

 The electronic state is 1-A.
 Alpha  occ. eigenvalues --  -20.61647 -20.61640 -20.60966 -20.60960 -15.86711
 Alpha  occ. eigenvalues --  -15.86024 -11.32314 -11.31445 -11.28986 -11.28867
 Alpha  occ. eigenvalues --  -11.28680 -11.28062 -11.28025 -11.28020 -11.27888
 Alpha  occ. eigenvalues --  -11.27678 -11.27119 -11.27021  -1.60718  -1.60041
 Alpha  occ. eigenvalues --   -1.40265  -1.39593  -1.20534  -1.19633  -1.09864
 Alpha  occ. eigenvalues --   -1.09014  -1.05979  -1.05056  -0.96650  -0.95837
 Alpha  occ. eigenvalues --   -0.87335  -0.86457  -0.83492  -0.82672  -0.78500
 Alpha  occ. eigenvalues --   -0.77716  -0.72919  -0.72240  -0.72050  -0.71578
 Alpha  occ. eigenvalues --   -0.71366  -0.70753  -0.66164  -0.65950  -0.65285
 Alpha  occ. eigenvalues --   -0.65089  -0.63283  -0.62407  -0.56403  -0.55762
 Alpha  occ. eigenvalues --   -0.54095  -0.53995  -0.53367  -0.53157  -0.49697
 Alpha  occ. eigenvalues --   -0.49663  -0.49005  -0.48990  -0.45618  -0.44986
 Alpha  occ. eigenvalues --   -0.38510  -0.37613  -0.37560  -0.36669
 Alpha virt. eigenvalues --    0.04028   0.04829   0.10001   0.10956   0.15379
 Alpha virt. eigenvalues --    0.16305   0.19182   0.21807   0.24841   0.27133
 Alpha virt. eigenvalues --    0.27917   0.29175   0.29893   0.31088   0.31675

 Mulliken charges:
               1
     1  C   -0.171932
     2  C   -0.233121
     3  C   -0.173654
     4  C    0.160335
     5  C   -0.169168
     6  C   -0.218750
     7  H    0.230421
     8  H    0.226113
     9  H    0.276679
    10  H    0.279749
    11  H    0.227943
    12  N    0.488080
    13  O   -0.456807
    14  O   -0.458280
    15  C   -0.178992
    16  C   -0.223473
    17  C   -0.169411
    18  C    0.158104
    19  C   -0.169797
    20  C   -0.221179
    21  H    0.235610
    22  H    0.216445
    23  H    0.276497
    24  H    0.276305
    25  H    0.223799
    26  N    0.488054
    27  O   -0.459757
    28  O   -0.459812
 Sum of Mulliken charges =  -0.00000

 Dipole moment (field-independent basis, Debye):
    X=              3.5154    Y=              5.5900    Z=              1.4183  Tot=              6.7541
 Quadrupole moment (field-independent basis, Debye-Ang):
   XX=           -157.0166   YY=           -104.9046   ZZ=           -100.0708
   XY=             15.5872   XZ=              2.9767   YZ=             -4.4916

 Normal termination of Gaussian 16 at Fri May  7 00:24:43 2021.
