 Gaussian 16, Revision A.03,
 Gaussian 16:  EM64L-G16RevA.03 25-Dec-2016

 -------------
 #p 6-31g* mp2
 -------------

 ------------------------------------------------------
 Input file generated by CHIRIPA (05-May-2021 14:51:08)
 ------------------------------------------------------
 Symbolic Z-matrix:
 Charge =  0 Multiplicity = 1

                         Standard orientation:
 ---------------------------------------------------------------------
 Center     Atomic      Atomic             Coordinates (Angstroms)
 Number     Number       Type             X           Y           Z
 ---------------------------------------------------------------------
      1          6           0       -2.254743   -0.748759    0.595150
      2          6           0       -1.375881   -0.962422    1.828007
      3          6           0       -1.039085   -2.434753    2.065924
      4          1           0       -3.183127   -1.324783    0.710237
      5          1           0       -1.741738   -1.155730   -0.287230
      6          1           0       -1.889786   -0.553929    2.707581
      7          1           0       -0.449566   -0.385670    1.710057
      8          1           0       -0.504335   -2.851406    1.206247
      9          1           0       -1.952739   -3.020621    2.209439
     10          1           0       -0.410104   -2.564580    2.952145
     11          6           0       -2.599983    0.718046    0.344111
     12          6           0       -3.478845    0.931710   -0.888746
     13          6           0       -3.815641    2.404040   -1.126663
     14          1           0       -3.112988    1.125017    1.226491
     15          1           0       -1.671599    1.294070    0.229024
     16          1           0       -4.405160    0.354958   -0.770796
     17          1           0       -2.964940    0.523217   -1.768320
     18          1           0       -2.901987    2.989908   -1.270178
     19          1           0       -4.350390    2.820693   -0.266986
     20          1           0       -4.444622    2.533867   -2.012884
     21          6           0        1.844930   -0.310962   -0.840736
     22          6           0        2.132563   -1.748092   -1.276523
     23          6           0        0.957930   -2.387407   -2.017677
     24          1           0        0.954417   -0.300887   -0.197441
     25          1           0        1.597662    0.290796   -1.726253
     26          1           0        2.380566   -2.346642   -0.390606
     27          1           0        3.022608   -1.754773   -1.918700
     28          1           0        0.713016   -1.814862   -2.918127
     29          1           0        0.067327   -2.410095   -1.381350
     30          1           0        1.185117   -3.414457   -2.320026
     31          6           0        3.009796    0.341675   -0.098524
     32          6           0        2.722163    1.778805    0.337262
     33          6           0        3.896795    2.418120    1.078416
     34          1           0        3.257064   -0.260084    0.786992
     35          1           0        3.900309    0.331599   -0.741820
     36          1           0        1.832118    1.785485    0.979439
     37          1           0        2.474160    2.377355   -0.548656
     38          1           0        4.787399    2.440807    0.442089
     39          1           0        4.141710    1.845574    1.978866
     40          1           0        3.669608    3.445170    1.380765
 ---------------------------------------------------------------------

 SCF Done:  E(RHF) =  -470.732643747     A.U. after   11 cycles
 E2 =    -0.1585149098D+01 EUMP2 =    -0.47231779284452D+03

 The electronic state is 1-A.
 Alpha  occ. eigenvalues --  -11.21660 -11.21659 -11.21656 -11.21588 -11.21447
 Alpha  occ. eigenvalues --  -11.21414 -11.21386 -11.21353 -11.21139 -11.21133
 Alpha  occ. eigenvalues --  -11.21106 -11.21057  -1.08530  -1.08417  -1.03612
 Alpha  occ. eigenvalues --   -1.03536  -0.96037  -0.96004  -0.87057  -0.87020
 Alpha  occ. eigenvalues --   -0.79659  -0.79617  -0.78321  -0.78262  -0.65499
 Alpha  occ. eigenvalues --   -0.64777  -0.61203  -0.60732  -0.59419  -0.59353
 Alpha  occ. eigenvalues --   -0.57654  -0.57612  -0.55357  -0.55287  -0.52727
 Alpha  occ. eigenvalues --   -0.52703  -0.52488  -0.52413  -0.50062  -0.49922
 Alpha  occ. eigenvalues --   -0.48082  -0.47882  -0.46738  -0.46640  -0.46159
 Alpha  occ. eigenvalues --   -0.45799  -0.45618  -0.45322  -0.43835  -0.43804
 Alpha virt. eigenvalues --    0.19122   0.22377   0.23284   0.24620   0.25506
 Alpha virt. eigenvalues --    0.26184   0.26820   0.27930   0.29065   0.30079
 Alpha virt. eigenvalues --    0.30543   0.31434   0.31626   0.31836   0.32274

 Mulliken charges:
               1
     1  C   -0.306045
     2  C   -0.304021
     3  C   -0.479679
     4  H    0.150299
     5  H    0.156245
     6  H    0.153118
     7  H    0.153882
     8  H    0.158141
     9  H    0.156030
    10  H    0.160385
    11  C   -0.299030
    12  C   -0.299767
    13  C   -0.475807
    14  H    0.149482
    15  H    0.150807
    16  H    0.151842
    17  H    0.152582
    18  H    0.155412
    19  H    0.155062
    20  H    0.160203
    21  C   -0.308407
    22  C   -0.299507
    23  C   -0.484005
    24  H    0.159916
    25  H    0.149189
    26  H    0.152456
    27  H    0.152447
    28  H    0.155259
    29  H    0.161919
    30  H    0.161048
    31  C   -0.297889
    32  C   -0.301139
    33  C   -0.475691
    34  H    0.149738
    35  H    0.150045
    36  H    0.152196
    37  H    0.151975
    38  H    0.155395
    39  H    0.155420
    40  H    0.160495
 Sum of Mulliken charges =  -0.00000

 Dipole moment (field-independent basis, Debye):
    X=              0.0031    Y=             -0.0054    Z=             -0.0037  Tot=              0.0073
 Quadrupole moment (field-independent basis, Debye-Ang):
   XX=            -84.5702   YY=            -86.0283   ZZ=            -84.0593
   XY=              0.1243   XZ=             -1.3255   YZ=             -0.3896

 Normal termination of Gaussian 16 at Thu May  6 00:31:07 2021.
