 Gaussian 16, Revision A.03,
 Gaussian 16:  EM64L-G16RevA.03 25-Dec-2016

 -------------
 #p 6-31g* mp2
 -------------

 ------------------------------------------------------
 Input file generated by CHIRIPA (05-May-2021 14:55:23)
 ------------------------------------------------------
 Symbolic Z-matrix:
 Charge =  0 Multiplicity = 1

                         Standard orientation:
 ---------------------------------------------------------------------
 Center     Atomic      Atomic             Coordinates (Angstroms)
 Number     Number       Type             X           Y           Z
 ---------------------------------------------------------------------
      1          6           0        3.007645   -2.349675    0.392974
      2          6           0        3.298259   -1.689814   -0.805628
      3          6           0        3.141290   -0.304499   -0.909611
      4          6           0        2.689686    0.392883    0.209765
      5          6           0        2.391833   -0.235916    1.417733
      6          6           0        2.556156   -1.621903    1.498879
      7          1           0        3.132439   -3.426082    0.464880
      8          1           0        3.649056   -2.252447   -1.666111
      9          1           0        3.358943    0.231613   -1.825378
     10          1           0        2.043870    0.351955    2.258415
     11          1           0        2.329693   -2.131712    2.431003
     12          7           0        2.519617    1.859810    0.111771
     13          8           0        2.120293    2.451400    1.112370
     14          8           0        2.788861    2.390220   -0.963780
     15          6           0       -4.110223    0.235739   -0.269293
     16          6           0       -5.253937   -0.404579    0.518043
     17          6           0       -6.510504    0.465989    0.548762
     18          1           0       -3.870677    1.212363    0.173165
     19          1           0       -4.446566    0.432122   -1.296766
     20          1           0       -4.915091   -0.600962    1.543340
     21          1           0       -5.490659   -1.379877    0.073778
     22          1           0       -6.875473    0.651617   -0.466590
     23          1           0       -6.296634    1.434958    1.011321
     24          1           0       -7.315446   -0.010802    1.116740
     25          6           0       -2.847128   -0.622596   -0.309052
     26          6           0       -1.703414    0.017723   -1.096388
     27          6           0       -0.446846   -0.852845   -1.127106
     28          1           0       -2.510784   -0.818978    0.718422
     29          1           0       -3.086675   -1.599219   -0.751509
     30          1           0       -1.466691    0.993021   -0.652122
     31          1           0       -2.042259    0.214106   -2.121684
     32          1           0       -0.660716   -1.821814   -1.589666
     33          1           0       -0.081877   -1.038473   -0.111753
     34          1           0        0.358096   -0.376055   -1.695084
 ---------------------------------------------------------------------

 SCF Done:  E(RHF) =  -669.533873677     A.U. after   15 cycles
 E2 =    -0.2094129937D+01 EUMP2 =    -0.67162800361322D+03

 The electronic state is 1-A.
 Alpha  occ. eigenvalues --  -20.60799 -20.60792 -15.85848 -11.31164 -11.27783
 Alpha  occ. eigenvalues --  -11.27759 -11.27551 -11.26819 -11.26799 -11.21516
 Alpha  occ. eigenvalues --  -11.21382 -11.21287 -11.21215 -11.20969 -11.20853
 Alpha  occ. eigenvalues --   -1.59873  -1.39428  -1.19399  -1.08786  -1.08299
 Alpha  occ. eigenvalues --   -1.04811  -1.03397  -0.95873  -0.95612  -0.86886
 Alpha  occ. eigenvalues --   -0.86201  -0.82459  -0.79467  -0.78114  -0.77503
 Alpha  occ. eigenvalues --   -0.72071  -0.71202  -0.70514  -0.65051  -0.64935
 Alpha  occ. eigenvalues --   -0.64810  -0.62156  -0.60822  -0.59269  -0.57478
 Alpha  occ. eigenvalues --   -0.55318  -0.55304  -0.53489  -0.52898  -0.52351
 Alpha  occ. eigenvalues --   -0.52048  -0.49700  -0.48828  -0.48826  -0.47786
 Alpha  occ. eigenvalues --   -0.46464  -0.45648  -0.45576  -0.44838  -0.43658
 Alpha  occ. eigenvalues --   -0.37330  -0.36332
 Alpha virt. eigenvalues --    0.05009   0.11173   0.16508   0.21369   0.22966
 Alpha virt. eigenvalues --    0.24373   0.26771   0.27198   0.27640   0.28002
 Alpha virt. eigenvalues --    0.28349   0.30876   0.31530   0.31698   0.32038

 Mulliken charges:
               1
     1  C   -0.169518
     2  C   -0.214084
     3  C   -0.174109
     4  C    0.167465
     5  C   -0.174359
     6  C   -0.218147
     7  H    0.225999
     8  H    0.223764
     9  H    0.275373
    10  H    0.275403
    11  H    0.223691
    12  N    0.487718
    13  O   -0.460977
    14  O   -0.460857
    15  C   -0.298649
    16  C   -0.299345
    17  C   -0.475728
    18  H    0.152507
    19  H    0.149821
    20  H    0.150833
    21  H    0.150603
    22  H    0.155330
    23  H    0.156359
    24  H    0.159414
    25  C   -0.297572
    26  C   -0.300690
    27  C   -0.480329
    28  H    0.146867
    29  H    0.147337
    30  H    0.157052
    31  H    0.151903
    32  H    0.149637
    33  H    0.157089
    34  H    0.160196
 Sum of Mulliken charges =  -0.00000

 Dipole moment (field-independent basis, Debye):
    X=              0.7199    Y=             -5.1453    Z=              0.3627  Tot=              5.2081
 Quadrupole moment (field-independent basis, Debye-Ang):
   XX=            -92.6991   YY=            -99.5558   ZZ=            -89.5010
   XY=            -13.6114   XZ=             -0.2781   YZ=             -0.5419

 Normal termination of Gaussian 16 at Thu May  6 06:16:25 2021.
