 Gaussian 16, Revision A.03,
 Gaussian 16:  EM64L-G16RevA.03 25-Dec-2016

 -------------
 #p 6-31g* mp2
 -------------

 ------------------------------------------------------
 Input file generated by CHIRIPA (05-May-2021 14:55:24)
 ------------------------------------------------------
 Symbolic Z-matrix:
 Charge =  0 Multiplicity = 1

                         Standard orientation:
 ---------------------------------------------------------------------
 Center     Atomic      Atomic             Coordinates (Angstroms)
 Number     Number       Type             X           Y           Z
 ---------------------------------------------------------------------
      1          6           0        3.490976    1.987519   -0.565514
      2          6           0        4.445298    1.036866   -0.188618
      3          6           0        4.064712   -0.278991    0.091061
      4          6           0        2.715132   -0.611149   -0.016627
      5          6           0        1.740717    0.313295   -0.389733
      6          6           0        2.144106    1.623341   -0.664694
      7          1           0        3.795482    3.007452   -0.780943
      8          1           0        5.492003    1.316854   -0.110773
      9          1           0        4.782691   -1.034997    0.384964
     10          1           0        0.704774    0.004288   -0.458685
     11          1           0        1.400785    2.359530   -0.957174
     12          7           0        2.300153   -2.001113    0.276959
     13          8           0        1.104869   -2.268500    0.174786
     14          8           0        3.178032   -2.796860    0.603687
     15          6           0       -3.340374    1.060276    0.538853
     16          6           0       -2.199504    1.893352   -0.046286
     17          6           0       -1.765401    3.032278    0.876858
     18          1           0       -4.197834    1.716206    0.742475
     19          1           0       -3.024939    0.648411    1.507492
     20          1           0       -2.516500    2.302388   -1.014180
     21          1           0       -1.344726    1.235329   -0.248717
     22          1           0       -1.423338    2.638781    1.839540
     23          1           0       -2.601769    3.711903    1.069729
     24          1           0       -0.948856    3.614880    0.439038
     25          6           0       -3.785453   -0.082185   -0.372417
     26          6           0       -4.926323   -0.915261    0.212720
     27          6           0       -5.360425   -2.054188   -0.710424
     28          1           0       -4.100888    0.329680   -1.341057
     29          1           0       -2.927992   -0.738116   -0.576040
     30          1           0       -5.781100   -0.257238    0.415152
     31          1           0       -4.609326   -1.324298    1.180614
     32          1           0       -4.524057   -2.733813   -0.903293
     33          1           0       -5.702488   -1.660691   -1.673105
     34          1           0       -6.176971   -2.636790   -0.272603
 ---------------------------------------------------------------------

 SCF Done:  E(RHF) =  -669.535545584     A.U. after   15 cycles
 E2 =    -0.2091729130D+01 EUMP2 =    -0.67162727471399D+03

 The electronic state is 1-A.
 Alpha  occ. eigenvalues --  -20.60790 -20.60784 -15.85840 -11.31179 -11.27748
 Alpha  occ. eigenvalues --  -11.27731 -11.27486 -11.26763 -11.26740 -11.22241
 Alpha  occ. eigenvalues --  -11.21705 -11.21625 -11.21496 -11.21381 -11.20861
 Alpha  occ. eigenvalues --   -1.59863  -1.39418  -1.19351  -1.08751  -1.08627
 Alpha  occ. eigenvalues --   -1.04753  -1.03748  -0.96172  -0.95591  -0.87195
 Alpha  occ. eigenvalues --   -0.86151  -0.82425  -0.79866  -0.78388  -0.77470
 Alpha  occ. eigenvalues --   -0.72061  -0.71185  -0.70474  -0.65277  -0.64997
 Alpha  occ. eigenvalues --   -0.64750  -0.62168  -0.61089  -0.59595  -0.57781
 Alpha  occ. eigenvalues --   -0.55434  -0.55249  -0.53081  -0.52927  -0.52879
 Alpha  occ. eigenvalues --   -0.52554  -0.50103  -0.48819  -0.48814  -0.48153
 Alpha  occ. eigenvalues --   -0.46887  -0.45929  -0.45801  -0.44829  -0.43983
 Alpha  occ. eigenvalues --   -0.37332  -0.36347
 Alpha virt. eigenvalues --    0.05051   0.11288   0.16516   0.19272   0.22938
 Alpha virt. eigenvalues --    0.23817   0.24794   0.26211   0.26952   0.28428
 Alpha virt. eigenvalues --    0.29565   0.30193   0.31397   0.31615   0.32662

 Mulliken charges:
               1
     1  C   -0.170930
     2  C   -0.218688
     3  C   -0.170609
     4  C    0.160913
     5  C   -0.179673
     6  C   -0.221684
     7  H    0.225675
     8  H    0.223448
     9  H    0.275507
    10  H    0.282633
    11  H    0.226556
    12  N    0.487989
    13  O   -0.461240
    14  O   -0.460211
    15  C   -0.298105
    16  C   -0.305445
    17  C   -0.475742
    18  H    0.150642
    19  H    0.153838
    20  H    0.152959
    21  H    0.145434
    22  H    0.159846
    23  H    0.159178
    24  H    0.151910
    25  C   -0.300855
    26  C   -0.299956
    27  C   -0.476804
    28  H    0.147997
    29  H    0.155733
    30  H    0.150433
    31  H    0.155003
    32  H    0.160110
    33  H    0.153620
    34  H    0.160518
 Sum of Mulliken charges =  -0.00000

 Dipole moment (field-independent basis, Debye):
    X=              1.3493    Y=              4.8341    Z=             -0.9706  Tot=              5.1119
 Quadrupole moment (field-independent basis, Debye-Ang):
   XX=            -81.5673   YY=           -101.4469   ZZ=            -95.4500
   XY=             10.5986   XZ=             -1.9128   YZ=             -0.4209

 Normal termination of Gaussian 16 at Thu May  6 07:55:19 2021.
