 Gaussian 16, Revision A.03,
 Gaussian 16:  EM64L-G16RevA.03 25-Dec-2016

 -------------
 #p 6-31g* mp2
 -------------

 ------------------------------------------------------
 Input file generated by CHIRIPA (05-May-2021 14:55:21)
 ------------------------------------------------------
 Symbolic Z-matrix:
 Charge =  0 Multiplicity = 1

                         Standard orientation:
 ---------------------------------------------------------------------
 Center     Atomic      Atomic             Coordinates (Angstroms)
 Number     Number       Type             X           Y           Z
 ---------------------------------------------------------------------
      1          6           0       -5.983654   -0.418444    0.041339
      2          6           0       -5.174499   -1.462508    0.501468
      3          6           0       -3.781477   -1.361203    0.440031
      4          6           0       -3.228707   -0.196355   -0.089937
      5          6           0       -4.008109    0.861100   -0.556426
      6          6           0       -5.398908    0.737989   -0.485211
      7          1           0       -7.064924   -0.505610    0.092862
      8          1           0       -5.625862   -2.361781    0.910889
      9          1           0       -3.131427   -2.154281    0.789144
     10          1           0       -3.529099    1.745197   -0.959340
     11          1           0       -6.024831    1.550416   -0.843298
     12          7           0       -1.755154   -0.077566   -0.160153
     13          8           0       -1.292705    0.959087   -0.631460
     14          8           0       -1.090534   -1.023360    0.257448
     15          6           0        3.786958    0.492772    0.425002
     16          6           0        3.394161    1.933617    0.096888
     17          6           0        2.078288    2.351800    0.753696
     18          1           0        2.983090   -0.182477    0.101303
     19          1           0        3.868607    0.381533    1.515119
     20          1           0        3.314627    2.042458   -0.992353
     21          1           0        4.199141    2.605497    0.421232
     22          1           0        2.149021    2.271586    1.843266
     23          1           0        1.259481    1.705347    0.421650
     24          1           0        1.816521    3.385204    0.505878
     25          6           0        5.100253    0.060017   -0.224389
     26          6           0        5.493050   -1.380828    0.103726
     27          6           0        6.808922   -1.799010   -0.553083
     28          1           0        5.018603    0.171256   -1.314505
     29          1           0        5.904121    0.735265    0.099310
     30          1           0        4.688069   -2.052707   -0.220618
     31          1           0        5.572583   -1.489668    1.192966
     32          1           0        7.627730   -1.152558   -0.221037
     33          1           0        6.738190   -1.718796   -1.642654
     34          1           0        7.070689   -2.832415   -0.305265
 ---------------------------------------------------------------------

 SCF Done:  E(RHF) =  -669.536700179     A.U. after   15 cycles
 E2 =    -0.2091050897D+01 EUMP2 =    -0.67162775107590D+03

 The electronic state is 1-A.
 Alpha  occ. eigenvalues --  -20.61067 -20.61043 -15.86062 -11.31348 -11.27903
 Alpha  occ. eigenvalues --  -11.27899 -11.27635 -11.26901 -11.26891 -11.20714
 Alpha  occ. eigenvalues --  -11.20357 -11.20347 -11.20209 -11.20033 -11.19269
 Alpha  occ. eigenvalues --   -1.60102  -1.39659  -1.19510  -1.08923  -1.07266
 Alpha  occ. eigenvalues --   -1.04899  -1.02338  -0.95771  -0.94774  -0.86301
 Alpha  occ. eigenvalues --   -0.85791  -0.82604  -0.78442  -0.77663  -0.77036
 Alpha  occ. eigenvalues --   -0.72279  -0.71407  -0.70618  -0.65165  -0.64902
 Alpha  occ. eigenvalues --   -0.63897  -0.62246  -0.59729  -0.58207  -0.56388
 Alpha  occ. eigenvalues --   -0.55409  -0.54050  -0.53233  -0.52990  -0.51496
 Alpha  occ. eigenvalues --   -0.51206  -0.49211  -0.49041  -0.48528  -0.46725
 Alpha  occ. eigenvalues --   -0.45473  -0.45062  -0.44585  -0.44435  -0.42603
 Alpha  occ. eigenvalues --   -0.37486  -0.36497
 Alpha virt. eigenvalues --    0.04854   0.11159   0.16360   0.21298   0.23983
 Alpha virt. eigenvalues --    0.25570   0.27219   0.27811   0.28183   0.28668
 Alpha virt. eigenvalues --    0.29276   0.30864   0.32397   0.32640   0.32793

 Mulliken charges:
               1
     1  C   -0.170423
     2  C   -0.218623
     3  C   -0.170620
     4  C    0.158203
     5  C   -0.170602
     6  C   -0.218589
     7  H    0.226198
     8  H    0.224008
     9  H    0.275981
    10  H    0.276151
    11  H    0.224053
    12  N    0.488774
    13  O   -0.458902
    14  O   -0.459308
    15  C   -0.300367
    16  C   -0.297462
    17  C   -0.487358
    18  H    0.161339
    19  H    0.145899
    20  H    0.150486
    21  H    0.144452
    22  H    0.146369
    23  H    0.186276
    24  H    0.152261
    25  C   -0.297464
    26  C   -0.299124
    27  C   -0.475040
    28  H    0.148203
    29  H    0.146032
    30  H    0.153740
    31  H    0.150282
    32  H    0.153351
    33  H    0.154148
    34  H    0.157676
 Sum of Mulliken charges =  -0.00000

 Dipole moment (field-independent basis, Debye):
    X=             -5.6492    Y=             -0.5406    Z=              0.1832  Tot=              5.6779
 Quadrupole moment (field-independent basis, Debye-Ang):
   XX=            -63.8101   YY=            -91.2786   ZZ=            -94.4166
   XY=              2.1750   XZ=              0.5127   YZ=             -2.3489

 Normal termination of Gaussian 16 at Wed May  5 22:14:42 2021.
