 Gaussian 16, Revision A.03,
 Gaussian 16:  EM64L-G16RevA.03 25-Dec-2016

 -------------
 #p 6-31g* mp2
 -------------

 ------------------------------------------------------
 Input file generated by CHIRIPA (05-May-2021 14:55:18)
 ------------------------------------------------------
 Symbolic Z-matrix:
 Charge =  0 Multiplicity = 1

                         Standard orientation:
 ---------------------------------------------------------------------
 Center     Atomic      Atomic             Coordinates (Angstroms)
 Number     Number       Type             X           Y           Z
 ---------------------------------------------------------------------
      1          6           0        1.420885    2.546875   -0.617898
      2          6           0        1.914085    1.646378   -1.567835
      3          6           0        2.568823    0.478281   -1.166069
      4          6           0        2.713520    0.241132    0.199989
      5          6           0        2.233155    1.118940    1.170552
      6          6           0        1.581711    2.280751    0.745860
      7          1           0        0.913548    3.451839   -0.938904
      8          1           0        1.790623    1.850463   -2.627623
      9          1           0        2.960368   -0.235954   -1.880198
     10          1           0        2.371371    0.888212    2.219875
     11          1           0        1.199705    2.978296    1.485824
     12          7           0        3.404918   -0.992152    0.637456
     13          8           0        3.519612   -1.178044    1.846971
     14          8           0        3.819050   -1.749556   -0.237456
     15          6           0       -3.955964   -0.601749    0.269101
     16          6           0       -4.894038    0.588786    0.067537
     17          6           0       -6.146929    0.508573    0.940250
     18          1           0       -4.499713   -1.530406    0.048014
     19          1           0       -3.664181   -0.654712    1.327142
     20          1           0       -5.182866    0.640310   -0.990073
     21          1           0       -4.347938    1.514729    0.288945
     22          1           0       -5.876544    0.480467    2.000769
     23          1           0       -6.716216   -0.398921    0.714485
     24          1           0       -6.803452    1.369519    0.780222
     25          6           0       -2.698931   -0.535896   -0.596497
     26          6           0       -1.760858   -1.726432   -0.394933
     27          6           0       -0.507968   -1.646218   -1.267644
     28          1           0       -2.990716   -0.482932   -1.654538
     29          1           0       -2.155184    0.392761   -0.375410
     30          1           0       -2.306958   -2.652375   -0.616340
     31          1           0       -1.472030   -1.777955    0.662678
     32          1           0        0.061320   -0.738725   -1.041880
     33          1           0       -0.778352   -1.618112   -2.328165
     34          1           0        0.148555   -2.507164   -1.107617
 ---------------------------------------------------------------------

 SCF Done:  E(RHF) =  -669.534802074     A.U. after   15 cycles
 E2 =    -0.2092995792D+01 EUMP2 =    -0.67162779786629D+03

 The electronic state is 1-A.
 Alpha  occ. eigenvalues --  -20.60803 -20.60795 -15.85854 -11.31228 -11.27838
 Alpha  occ. eigenvalues --  -11.27793 -11.27594 -11.26858 -11.26821 -11.21825
 Alpha  occ. eigenvalues --  -11.21575 -11.21532 -11.21472 -11.21264 -11.20887
 Alpha  occ. eigenvalues --   -1.59874  -1.39427  -1.19446  -1.08821  -1.08541
 Alpha  occ. eigenvalues --   -1.04850  -1.03607  -0.96063  -0.95648  -0.87084
 Alpha  occ. eigenvalues --   -0.86230  -0.82479  -0.79688  -0.78362  -0.77519
 Alpha  occ. eigenvalues --   -0.72074  -0.71199  -0.70537  -0.65181  -0.65084
 Alpha  occ. eigenvalues --   -0.64833  -0.62181  -0.61034  -0.59422  -0.57682
 Alpha  occ. eigenvalues --   -0.55474  -0.55337  -0.53337  -0.52926  -0.52719
 Alpha  occ. eigenvalues --   -0.52338  -0.49951  -0.48834  -0.48826  -0.47977
 Alpha  occ. eigenvalues --   -0.46707  -0.45891  -0.45820  -0.44827  -0.43864
 Alpha  occ. eigenvalues --   -0.37415  -0.36378
 Alpha virt. eigenvalues --    0.05002   0.11184   0.16480   0.21348   0.22719
 Alpha virt. eigenvalues --    0.24216   0.26495   0.27165   0.27370   0.27907
 Alpha virt. eigenvalues --    0.28358   0.30867   0.31349   0.31766   0.31895

 Mulliken charges:
               1
     1  C   -0.171173
     2  C   -0.216516
     3  C   -0.175107
     4  C    0.162746
     5  C   -0.171679
     6  C   -0.218801
     7  H    0.226308
     8  H    0.224511
     9  H    0.276693
    10  H    0.275908
    11  H    0.223781
    12  N    0.488412
    13  O   -0.460655
    14  O   -0.460167
    15  C   -0.298266
    16  C   -0.299031
    17  C   -0.475663
    18  H    0.150994
    19  H    0.149849
    20  H    0.151556
    21  H    0.148638
    22  H    0.155355
    23  H    0.156349
    24  H    0.159688
    25  C   -0.297929
    26  C   -0.298627
    27  C   -0.487122
    28  H    0.147886
    29  H    0.146443
    30  H    0.152604
    31  H    0.153206
    32  H    0.162411
    33  H    0.150550
    34  H    0.166850
 Sum of Mulliken charges =  -0.00000

 Dipole moment (field-independent basis, Debye):
    X=             -2.3459    Y=              4.3356    Z=             -1.5323  Tot=              5.1622
 Quadrupole moment (field-independent basis, Debye-Ang):
   XX=           -109.4711   YY=            -92.6091   ZZ=            -90.6654
   XY=             11.4605   XZ=             -4.7142   YZ=              2.1835

 Normal termination of Gaussian 16 at Thu May  6 06:03:41 2021.
