 Gaussian 16, Revision A.03,
 Gaussian 16:  EM64L-G16RevA.03 25-Dec-2016

 -------------
 #p 6-31g* mp2
 -------------

 ------------------------------------------------------
 Input file generated by CHIRIPA (05-May-2021 14:51:11)
 ------------------------------------------------------
 Symbolic Z-matrix:
 Charge =  0 Multiplicity = 1

                         Standard orientation:
 ---------------------------------------------------------------------
 Center     Atomic      Atomic             Coordinates (Angstroms)
 Number     Number       Type             X           Y           Z
 ---------------------------------------------------------------------
      1          6           0        3.071170    0.165565    0.208931
      2          6           0        4.220170    0.389742   -0.774699
      3          6           0        4.812761    1.796096   -0.680902
      4          1           0        2.285107    0.909546    0.020403
      5          1           0        3.432502    0.344785    1.231044
      6          1           0        3.857133    0.208805   -1.794543
      7          1           0        5.003504   -0.354980   -0.583932
      8          1           0        5.201458    1.984039    0.325176
      9          1           0        4.048573    2.551028   -0.892313
     10          1           0        5.632546    1.934610   -1.392679
     11          6           0        2.468370   -1.235746    0.127150
     12          6           0        1.319370   -1.459924    1.110780
     13          6           0        0.726778   -2.866277    1.016983
     14          1           0        2.107038   -1.414966   -0.894963
     15          1           0        3.254433   -1.979727    0.315678
     16          1           0        0.536035   -0.715202    0.920013
     17          1           0        1.682406   -1.278987    2.130624
     18          1           0        1.490967   -3.621209    1.228394
     19          1           0        0.338082   -3.054221    0.010904
     20          1           0       -0.093006   -3.004791    1.728760
     21          6           0       -3.034169    1.215824    0.055852
     22          6           0       -1.942135    2.278480    0.183170
     23          6           0       -2.486672    3.634910    0.631913
     24          1           0       -3.792859    1.562661   -0.659017
     25          1           0       -3.543452    1.105678    1.023269
     26          1           0       -1.434146    2.385600   -0.783830
     27          1           0       -1.185859    1.928988    0.897675
     28          1           0       -2.976300    3.549866    1.607430
     29          1           0       -3.225998    4.009072   -0.083629
     30          1           0       -1.689139    4.379668    0.716390
     31          6           0       -2.505371   -0.145642   -0.391934
     32          6           0       -3.597404   -1.208298   -0.519250
     33          6           0       -3.052867   -2.564728   -0.967994
     34          1           0       -1.996088   -0.035496   -1.359350
     35          1           0       -1.746682   -0.492480    0.322936
     36          1           0       -4.353681   -0.858806   -1.233756
     37          1           0       -4.105394   -1.315419    0.447749
     38          1           0       -2.313542   -2.938890   -0.252452
     39          1           0       -2.563239   -2.479684   -1.943510
     40          1           0       -3.850401   -3.309486   -1.052471
 ---------------------------------------------------------------------

 SCF Done:  E(RHF) =  -470.733052836     A.U. after   11 cycles
 E2 =    -0.1583909736D+01 EUMP2 =    -0.47231696257187D+03

 The electronic state is 1-A.
 Alpha  occ. eigenvalues --  -11.21650 -11.21601 -11.21591 -11.21585 -11.21424
 Alpha  occ. eigenvalues --  -11.21390 -11.21361 -11.21331 -11.21101 -11.21089
 Alpha  occ. eigenvalues --  -11.21062 -11.21025  -1.08470  -1.08407  -1.03565
 Alpha  occ. eigenvalues --   -1.03510  -0.96001  -0.95973  -0.87046  -0.86961
 Alpha  occ. eigenvalues --   -0.79623  -0.79587  -0.78344  -0.78172  -0.65217
 Alpha  occ. eigenvalues --   -0.64938  -0.61060  -0.60823  -0.59383  -0.59323
 Alpha  occ. eigenvalues --   -0.57660  -0.57549  -0.55333  -0.55229  -0.52703
 Alpha  occ. eigenvalues --   -0.52679  -0.52450  -0.52375  -0.50082  -0.49767
 Alpha  occ. eigenvalues --   -0.47996  -0.47859  -0.46704  -0.46620  -0.46076
 Alpha  occ. eigenvalues --   -0.45765  -0.45722  -0.45281  -0.43798  -0.43780
 Alpha virt. eigenvalues --    0.20603   0.22987   0.23408   0.24249   0.25795
 Alpha virt. eigenvalues --    0.26557   0.26660   0.27496   0.28618   0.29630
 Alpha virt. eigenvalues --    0.31011   0.31282   0.31570   0.32083   0.32384

 Mulliken charges:
               1
     1  C   -0.299041
     2  C   -0.299627
     3  C   -0.475723
     4  H    0.150674
     5  H    0.149291
     6  H    0.151901
     7  H    0.151890
     8  H    0.155129
     9  H    0.155248
    10  H    0.160185
    11  C   -0.297746
    12  C   -0.307398
    13  C   -0.478850
    14  H    0.149952
    15  H    0.149540
    16  H    0.158539
    17  H    0.151657
    18  H    0.155600
    19  H    0.159129
    20  H    0.159184
    21  C   -0.297686
    22  C   -0.301537
    23  C   -0.475652
    24  H    0.149866
    25  H    0.149569
    26  H    0.151453
    27  H    0.153003
    28  H    0.155423
    29  H    0.155386
    30  H    0.160403
    31  C   -0.306852
    32  C   -0.298728
    33  C   -0.480996
    34  H    0.148504
    35  H    0.158813
    36  H    0.151847
    37  H    0.151693
    38  H    0.161750
    39  H    0.154125
    40  H    0.160083
 Sum of Mulliken charges =  -0.00000

 Dipole moment (field-independent basis, Debye):
    X=              0.0000    Y=             -0.0037    Z=              0.0060  Tot=              0.0070
 Quadrupole moment (field-independent basis, Debye-Ang):
   XX=            -84.7327   YY=            -86.6116   ZZ=            -83.4689
   XY=             -0.5638   XZ=              0.6511   YZ=             -0.7683

 Normal termination of Gaussian 16 at Thu May  6 05:28:51 2021.
