 Gaussian 16, Revision A.03,
 Gaussian 16:  EM64L-G16RevA.03 25-Dec-2016

 -------------
 #p 6-31g* mp2
 -------------

 ------------------------------------------------------
 Input file generated by CHIRIPA (05-May-2021 14:55:21)
 ------------------------------------------------------
 Symbolic Z-matrix:
 Charge =  0 Multiplicity = 1

                         Standard orientation:
 ---------------------------------------------------------------------
 Center     Atomic      Atomic             Coordinates (Angstroms)
 Number     Number       Type             X           Y           Z
 ---------------------------------------------------------------------
      1          6           0        2.465545    2.239842    0.799872
      2          6           0        3.524333    1.408982    1.180870
      3          6           0        3.587958    0.087520    0.728943
      4          6           0        2.571232   -0.372335   -0.106577
      5          6           0        1.503401    0.430945   -0.503777
      6          6           0        1.460230    1.749037   -0.039755
      7          1           0        2.424064    3.265077    1.155638
      8          1           0        4.306471    1.787452    1.832841
      9          1           0        4.396224   -0.577346    1.008366
     10          1           0        0.738449    0.025262   -1.154690
     11          1           0        0.636765    2.392026   -0.337271
     12          7           0        2.627762   -1.769524   -0.591414
     13          8           0        1.719597   -2.150675   -1.326667
     14          8           0        3.579165   -2.457034   -0.226995
     15          6           0       -3.131571   -0.531265    0.264582
     16          6           0       -4.387749   -1.386839    0.431904
     17          6           0       -4.075996   -2.810802    0.893352
     18          1           0       -2.460519   -1.014064   -0.458979
     19          1           0       -2.589323   -0.497739    1.219693
     20          1           0       -4.928190   -1.417605   -0.522869
     21          1           0       -5.055974   -0.901850    1.155007
     22          1           0       -3.557260   -2.798478    1.857386
     23          1           0       -3.428750   -3.317163    0.169977
     24          1           0       -4.988183   -3.404916    1.006504
     25          6           0       -3.426932    0.894942   -0.196308
     26          6           0       -2.170755    1.750516   -0.363630
     27          6           0       -2.482508    3.174478   -0.825078
     28          1           0       -3.969181    0.861415   -1.151419
     29          1           0       -4.097985    1.377741    0.527253
     30          1           0       -1.502531    1.265528   -1.086733
     31          1           0       -1.630314    1.781282    0.591143
     32          1           0       -3.129754    3.680840   -0.101703
     33          1           0       -3.001244    3.162155   -1.789112
     34          1           0       -1.570321    3.768593   -0.938230
 ---------------------------------------------------------------------

 SCF Done:  E(RHF) =  -669.534549982     A.U. after   15 cycles
 E2 =    -0.2092939073D+01 EUMP2 =    -0.67162748905519D+03

 The electronic state is 1-A.
 Alpha  occ. eigenvalues --  -20.60719 -20.60714 -15.85769 -11.31105 -11.27669
 Alpha  occ. eigenvalues --  -11.27640 -11.27395 -11.26690 -11.26590 -11.22533
 Alpha  occ. eigenvalues --  -11.22043 -11.21911 -11.21712 -11.21614 -11.20989
 Alpha  occ. eigenvalues --   -1.59793  -1.39348  -1.19270  -1.08908  -1.08669
 Alpha  occ. eigenvalues --   -1.04682  -1.04002  -0.96429  -0.95514  -0.87442
 Alpha  occ. eigenvalues --   -0.86070  -0.82375  -0.80167  -0.78659  -0.77355
 Alpha  occ. eigenvalues --   -0.71990  -0.71114  -0.70390  -0.65538  -0.64920
 Alpha  occ. eigenvalues --   -0.64700  -0.62129  -0.61381  -0.59806  -0.58023
 Alpha  occ. eigenvalues --   -0.55674  -0.55167  -0.53175  -0.53019  -0.52882
 Alpha  occ. eigenvalues --   -0.52672  -0.50352  -0.48750  -0.48744  -0.48407
 Alpha  occ. eigenvalues --   -0.47169  -0.46166  -0.46045  -0.44759  -0.44240
 Alpha  occ. eigenvalues --   -0.37256  -0.36237
 Alpha virt. eigenvalues --    0.05123   0.11336   0.16580   0.19802   0.22748
 Alpha virt. eigenvalues --    0.23676   0.24459   0.26159   0.26676   0.28601
 Alpha virt. eigenvalues --    0.29608   0.30360   0.31159   0.31563   0.32342

 Mulliken charges:
               1
     1  C   -0.173352
     2  C   -0.218537
     3  C   -0.171322
     4  C    0.159298
     5  C   -0.175905
     6  C   -0.222995
     7  H    0.225292
     8  H    0.222928
     9  H    0.275136
    10  H    0.276688
    11  H    0.235778
    12  N    0.488559
    13  O   -0.461249
    14  O   -0.460656
    15  C   -0.301058
    16  C   -0.300164
    17  C   -0.476773
    18  H    0.154364
    19  H    0.150416
    20  H    0.152659
    21  H    0.151090
    22  H    0.155524
    23  H    0.160697
    24  H    0.160488
    25  C   -0.297516
    26  C   -0.309715
    27  C   -0.478545
    28  H    0.152168
    29  H    0.151380
    30  H    0.146910
    31  H    0.154201
    32  H    0.160196
    33  H    0.161338
    34  H    0.152675
 Sum of Mulliken charges =  -0.00000

 Dipole moment (field-independent basis, Debye):
    X=             -0.4074    Y=              4.8477    Z=              1.7274  Tot=              5.1624
 Quadrupole moment (field-independent basis, Debye-Ang):
   XX=            -91.8882   YY=            -99.9352   ZZ=            -93.6660
   XY=             12.2137   XZ=              6.9445   YZ=             -0.8570

 Normal termination of Gaussian 16 at Thu May  6 07:44:56 2021.
