 Gaussian 16, Revision A.03,
 Gaussian 16:  EM64L-G16RevA.03 25-Dec-2016

 -------------
 #p 6-31g* mp2
 -------------

 ------------------------------------------------------
 Input file generated by CHIRIPA (05-May-2021 14:55:21)
 ------------------------------------------------------
 Symbolic Z-matrix:
 Charge =  0 Multiplicity = 1

                         Standard orientation:
 ---------------------------------------------------------------------
 Center     Atomic      Atomic             Coordinates (Angstroms)
 Number     Number       Type             X           Y           Z
 ---------------------------------------------------------------------
      1          6           0       -5.019600    0.149027   -0.673581
      2          6           0       -4.400201   -1.067238   -0.979466
      3          6           0       -3.109368   -1.342368   -0.518379
      4          6           0       -2.464180   -0.374267    0.249607
      5          6           0       -3.054681    0.846875    0.571180
      6          6           0       -4.346051    1.100524    0.099403
      7          1           0       -6.022559    0.354411   -1.035917
      8          1           0       -4.920895   -1.808043   -1.579576
      9          1           0       -2.606360   -2.275711   -0.740350
     10          1           0       -2.510400    1.565757    1.171502
     11          1           0       -4.824622    2.045956    0.338512
     12          7           0       -1.097348   -0.654164    0.743398
     13          8           0       -0.550235    0.215272    1.418221
     14          8           0       -0.599020   -1.737683    0.446259
     15          6           0        3.397526   -0.332316   -0.091202
     16          6           0        4.721461   -1.063940   -0.314598
     17          6           0        4.615461   -2.568246   -0.062358
     18          1           0        3.056940   -0.509856    0.938083
     19          1           0        2.632607   -0.762873   -0.752198
     20          1           0        5.483996   -0.631210    0.345630
     21          1           0        5.059032   -0.884481   -1.343411
     22          1           0        3.874943   -3.019661   -0.730534
     23          1           0        4.302322   -2.764950    0.968104
     24          1           0        5.573155   -3.071530   -0.227847
     25          6           0        3.487465    1.172346   -0.339454
     26          6           0        2.163530    1.903971   -0.116057
     27          6           0        2.269531    3.408276   -0.368297
     28          1           0        4.252384    1.602903    0.321542
     29          1           0        3.828051    1.349886   -1.368738
     30          1           0        1.825960    1.724511    0.912756
     31          1           0        1.400995    1.471240   -0.776285
     32          1           0        2.582670    3.604981   -1.398759
     33          1           0        3.010049    3.859690    0.299878
     34          1           0        1.311837    3.911560   -0.202808
 ---------------------------------------------------------------------

 SCF Done:  E(RHF) =  -669.535892785     A.U. after   15 cycles
 E2 =    -0.2091810512D+01 EUMP2 =    -0.67162770329743D+03

 The electronic state is 1-A.
 Alpha  occ. eigenvalues --  -20.60944 -20.60916 -15.85952 -11.31289 -11.27852
 Alpha  occ. eigenvalues --  -11.27849 -11.27591 -11.26862 -11.26852 -11.20476
 Alpha  occ. eigenvalues --  -11.20230 -11.20171 -11.20141 -11.19994 -11.19905
 Alpha  occ. eigenvalues --   -1.59983  -1.39541  -1.19457  -1.08860  -1.07164
 Alpha  occ. eigenvalues --   -1.04855  -1.02375  -0.95700  -0.94855  -0.86255
 Alpha  occ. eigenvalues --   -0.85872  -0.82538  -0.78413  -0.77584  -0.76919
 Alpha  occ. eigenvalues --   -0.72178  -0.71290  -0.70566  -0.65113  -0.64858
 Alpha  occ. eigenvalues --   -0.63807  -0.62202  -0.59786  -0.58221  -0.56448
 Alpha  occ. eigenvalues --   -0.55359  -0.54157  -0.53187  -0.52947  -0.51598
 Alpha  occ. eigenvalues --   -0.51267  -0.48981  -0.48932  -0.48784  -0.46778
 Alpha  occ. eigenvalues --   -0.45429  -0.44987  -0.44438  -0.44264  -0.42603
 Alpha  occ. eigenvalues --   -0.37435  -0.36457
 Alpha virt. eigenvalues --    0.04929   0.11197   0.16411   0.21319   0.24036
 Alpha virt. eigenvalues --    0.25328   0.27245   0.27858   0.28068   0.28884
 Alpha virt. eigenvalues --    0.29084   0.30933   0.32272   0.32439   0.32868

 Mulliken charges:
               1
     1  C   -0.170636
     2  C   -0.218560
     3  C   -0.170863
     4  C    0.157991
     5  C   -0.170685
     6  C   -0.218531
     7  H    0.225976
     8  H    0.223780
     9  H    0.275755
    10  H    0.275733
    11  H    0.223832
    12  N    0.489447
    13  O   -0.459506
    14  O   -0.459701
    15  C   -0.297727
    16  C   -0.299385
    17  C   -0.474194
    18  H    0.160926
    19  H    0.153345
    20  H    0.148121
    21  H    0.146896
    22  H    0.156136
    23  H    0.157502
    24  H    0.154504
    25  C   -0.298963
    26  C   -0.298815
    27  C   -0.475022
    28  H    0.145068
    29  H    0.142953
    30  H    0.172552
    31  H    0.145298
    32  H    0.150150
    33  H    0.152532
    34  H    0.154086
 Sum of Mulliken charges =  -0.00000

 Dipole moment (field-independent basis, Debye):
    X=             -5.1161    Y=              0.8417    Z=             -1.5551  Tot=              5.4130
 Quadrupole moment (field-independent basis, Debye-Ang):
   XX=            -72.8573   YY=            -93.6088   ZZ=            -94.4333
   XY=             -0.6866   XZ=              4.0737   YZ=              3.7837

 Normal termination of Gaussian 16 at Thu May  6 01:25:56 2021.
