 Gaussian 16, Revision A.03,
 Gaussian 16:  EM64L-G16RevA.03 25-Dec-2016

 -------------
 #p 6-31g* mp2
 -------------

 ------------------------------------------------------
 Input file generated by CHIRIPA (05-May-2021 14:55:24)
 ------------------------------------------------------
 Symbolic Z-matrix:
 Charge =  0 Multiplicity = 1

                         Standard orientation:
 ---------------------------------------------------------------------
 Center     Atomic      Atomic             Coordinates (Angstroms)
 Number     Number       Type             X           Y           Z
 ---------------------------------------------------------------------
      1          6           0        1.057593   -1.913002    1.388639
      2          6           0        2.101127   -2.475542    0.646273
      3          6           0        2.975254   -1.661186   -0.079864
      4          6           0        2.775772   -0.282058   -0.041107
      5          6           0        1.745454    0.308417    0.689013
      6          6           0        0.883394   -0.525264    1.407606
      7          1           0        0.383238   -2.553119    1.949789
      8          1           0        2.238810   -3.552953    0.629706
      9          1           0        3.791400   -2.070213   -0.662977
     10          1           0        1.633469    1.385854    0.686172
     11          1           0        0.073840   -0.085613    1.983256
     12          7           0        3.694783    0.590294   -0.805843
     13          8           0        3.497710    1.802420   -0.755357
     14          8           0        4.594776    0.045398   -1.441248
     15          6           0       -3.671106    0.110754   -0.654116
     16          6           0       -4.802976   -0.782225   -0.144757
     17          6           0       -5.417070   -1.645104   -1.247535
     18          1           0       -4.054555    0.756331   -1.456078
     19          1           0       -2.891616   -0.518687   -1.105330
     20          1           0       -5.579463   -0.151384    0.306602
     21          1           0       -4.416835   -1.425615    0.656216
     22          1           0       -4.659449   -2.298297   -1.692452
     23          1           0       -5.828682   -1.016824   -2.044053
     24          1           0       -6.224128   -2.275544   -0.861447
     25          6           0       -3.047122    0.979376    0.436694
     26          6           0       -1.915252    1.872355   -0.072666
     27          6           0       -1.301158    2.735235    1.030112
     28          1           0       -3.826611    1.608817    0.887907
     29          1           0       -2.663673    0.333799    1.238656
     30          1           0       -2.301393    2.515746   -0.873639
     31          1           0       -1.138765    1.241515   -0.524024
     32          1           0       -0.889546    2.106955    1.826630
     33          1           0       -2.058779    3.388428    1.475029
     34          1           0       -0.494099    3.365674    0.644024
 ---------------------------------------------------------------------

 SCF Done:  E(RHF) =  -669.535125001     A.U. after   15 cycles
 E2 =    -0.2092965416D+01 EUMP2 =    -0.67162809041740D+03

 The electronic state is 1-A.
 Alpha  occ. eigenvalues --  -20.60772 -20.60767 -15.85826 -11.31195 -11.27775
 Alpha  occ. eigenvalues --  -11.27740 -11.27519 -11.26792 -11.26764 -11.22184
 Alpha  occ. eigenvalues --  -11.22106 -11.22061 -11.21903 -11.21883 -11.21487
 Alpha  occ. eigenvalues --   -1.59848  -1.39401  -1.19377  -1.09027  -1.08768
 Alpha  occ. eigenvalues --   -1.04795  -1.04115  -0.96597  -0.95600  -0.87607
 Alpha  occ. eigenvalues --   -0.86177  -0.82438  -0.80176  -0.78822  -0.77486
 Alpha  occ. eigenvalues --   -0.72044  -0.71171  -0.70486  -0.65741  -0.65023
 Alpha  occ. eigenvalues --   -0.64769  -0.62340  -0.61300  -0.59945  -0.58185
 Alpha  occ. eigenvalues --   -0.55912  -0.55256  -0.53286  -0.53105  -0.53065
 Alpha  occ. eigenvalues --   -0.52786  -0.50547  -0.48807  -0.48797  -0.48481
 Alpha  occ. eigenvalues --   -0.47212  -0.46369  -0.46277  -0.44805  -0.44367
 Alpha  occ. eigenvalues --   -0.37361  -0.36353
 Alpha virt. eigenvalues --    0.05026   0.11220   0.16414   0.19248   0.22822
 Alpha virt. eigenvalues --    0.23789   0.25085   0.26267   0.26696   0.28428
 Alpha virt. eigenvalues --    0.28867   0.30194   0.31243   0.31501   0.32281

 Mulliken charges:
               1
     1  C   -0.171793
     2  C   -0.218738
     3  C   -0.170674
     4  C    0.158052
     5  C   -0.173985
     6  C   -0.223208
     7  H    0.225721
     8  H    0.223485
     9  H    0.275681
    10  H    0.280360
    11  H    0.229186
    12  N    0.488174
    13  O   -0.460374
    14  O   -0.460465
    15  C   -0.299158
    16  C   -0.299404
    17  C   -0.475994
    18  H    0.152783
    19  H    0.151184
    20  H    0.153158
    21  H    0.148441
    22  H    0.155243
    23  H    0.157137
    24  H    0.160946
    25  C   -0.297311
    26  C   -0.305332
    27  C   -0.482597
    28  H    0.152000
    29  H    0.140204
    30  H    0.158018
    31  H    0.156567
    32  H    0.143176
    33  H    0.161299
    34  H    0.168216
 Sum of Mulliken charges =  -0.00000

 Dipole moment (field-independent basis, Debye):
    X=             -3.3368    Y=             -2.9950    Z=              2.5728  Tot=              5.1695
 Quadrupole moment (field-independent basis, Debye-Ang):
   XX=           -111.5043   YY=            -89.4961   ZZ=            -95.7464
   XY=            -11.1037   XZ=              6.7800   YZ=              0.0697

 Normal termination of Gaussian 16 at Thu May  6 17:41:51 2021.
