 Gaussian 16, Revision A.03,
 Gaussian 16:  EM64L-G16RevA.03 25-Dec-2016

 -------------
 #p 6-31g* mp2
 -------------

 ------------------------------------------------------
 Input file generated by CHIRIPA (05-May-2021 14:51:12)
 ------------------------------------------------------
 Symbolic Z-matrix:
 Charge =  0 Multiplicity = 1

                         Standard orientation:
 ---------------------------------------------------------------------
 Center     Atomic      Atomic             Coordinates (Angstroms)
 Number     Number       Type             X           Y           Z
 ---------------------------------------------------------------------
      1          6           0        2.825062    0.425194   -0.336796
      2          6           0        3.683820    1.687000   -0.245340
      3          6           0        3.724555    2.470738   -1.557548
      4          1           0        3.214087   -0.218151   -1.137865
      5          1           0        1.803698    0.705606   -0.629337
      6          1           0        4.702913    1.404429    0.048289
      7          1           0        3.292821    2.327327    0.555732
      8          1           0        2.716879    2.780970   -1.852415
      9          1           0        4.134983    1.852828   -2.362742
     10          1           0        4.343936    3.368800   -1.469726
     11          6           0        2.774506   -0.369030    0.967191
     12          6           0        1.915747   -1.630836    0.875736
     13          6           0        1.875013   -2.414574    2.187944
     14          1           0        3.795869   -0.649442    1.259733
     15          1           0        2.385481    0.274315    1.768261
     16          1           0        2.306746   -2.271164    0.074663
     17          1           0        0.896654   -1.348265    0.582107
     18          1           0        1.464585   -1.796664    2.993137
     19          1           0        2.882688   -2.724806    2.482811
     20          1           0        1.255631   -3.312636    2.100121
     21          6           0       -2.737035    0.507587    0.225685
     22          6           0       -4.014549    1.324813    0.420842
     23          6           0       -3.873341    2.392411    1.506240
     24          1           0       -2.465167    0.031094    1.177518
     25          1           0       -1.911727    1.186028   -0.031182
     26          1           0       -4.837503    0.644884    0.675907
     27          1           0       -4.283513    1.799262   -0.531614
     28          1           0       -3.071094    3.093675    1.254783
     29          1           0       -3.628232    1.932738    2.469164
     30          1           0       -4.798101    2.964754    1.629130
     31          6           0       -2.862532   -0.563751   -0.856079
     32          6           0       -1.585019   -1.380977   -1.051238
     33          6           0       -1.726226   -2.448575   -2.136636
     34          1           0       -3.687840   -1.242190   -0.599214
     35          1           0       -3.134400   -0.087257   -1.807913
     36          1           0       -1.316055   -1.855425   -0.098782
     37          1           0       -0.762064   -0.701048   -1.306303
     38          1           0       -1.971335   -1.988902   -3.099559
     39          1           0       -2.528473   -3.149839   -1.885178
     40          1           0       -0.801465   -3.020918   -2.259525
 ---------------------------------------------------------------------

 SCF Done:  E(RHF) =  -470.732797322     A.U. after   11 cycles
 E2 =    -0.1583604815D+01 EUMP2 =    -0.47231640213710D+03

 The electronic state is 1-A.
 Alpha  occ. eigenvalues --  -11.21652 -11.21629 -11.21593 -11.21464 -11.21435
 Alpha  occ. eigenvalues --  -11.21399 -11.21375 -11.21297 -11.21115 -11.21092
 Alpha  occ. eigenvalues --  -11.21077 -11.21022  -1.08494  -1.08379  -1.03590
 Alpha  occ. eigenvalues --   -1.03473  -0.96021  -0.95946  -0.87042  -0.86959
 Alpha  occ. eigenvalues --   -0.79766  -0.79471  -0.78411  -0.78078  -0.65115
 Alpha  occ. eigenvalues --   -0.65023  -0.61006  -0.60870  -0.59460  -0.59249
 Alpha  occ. eigenvalues --   -0.57664  -0.57522  -0.55309  -0.55236  -0.52720
 Alpha  occ. eigenvalues --   -0.52635  -0.52450  -0.52368  -0.49975  -0.49890
 Alpha  occ. eigenvalues --   -0.48232  -0.47738  -0.46749  -0.46548  -0.46122
 Alpha  occ. eigenvalues --   -0.45743  -0.45712  -0.45185  -0.43823  -0.43735
 Alpha virt. eigenvalues --    0.21183   0.23349   0.23554   0.24212   0.25069
 Alpha virt. eigenvalues --    0.26350   0.26953   0.27868   0.28185   0.29628
 Alpha virt. eigenvalues --    0.30742   0.31434   0.31529   0.31876   0.31988

 Mulliken charges:
               1
     1  C   -0.300122
     2  C   -0.299622
     3  C   -0.475613
     4  H    0.149529
     5  H    0.150324
     6  H    0.152134
     7  H    0.151963
     8  H    0.154652
     9  H    0.155196
    10  H    0.160290
    11  C   -0.297468
    12  C   -0.309352
    13  C   -0.475697
    14  H    0.148991
    15  H    0.149313
    16  H    0.150416
    17  H    0.164611
    18  H    0.154600
    19  H    0.154973
    20  H    0.159338
    21  C   -0.298889
    22  C   -0.299540
    23  C   -0.475760
    24  H    0.149518
    25  H    0.148687
    26  H    0.152227
    27  H    0.152172
    28  H    0.155066
    29  H    0.155215
    30  H    0.160513
    31  C   -0.297434
    32  C   -0.306206
    33  C   -0.475509
    34  H    0.149687
    35  H    0.149740
    36  H    0.155410
    37  H    0.155245
    38  H    0.155216
    39  H    0.155084
    40  H    0.161107
 Sum of Mulliken charges =  -0.00000

 Dipole moment (field-independent basis, Debye):
    X=             -0.0526    Y=             -0.0047    Z=             -0.0225  Tot=              0.0573
 Quadrupole moment (field-independent basis, Debye-Ang):
   XX=            -84.0801   YY=            -85.2090   ZZ=            -85.5840
   XY=             -0.2111   XZ=             -0.3650   YZ=             -0.2685

 Normal termination of Gaussian 16 at Thu May  6 02:21:13 2021.
