 Gaussian 16, Revision A.03,
 Gaussian 16:  EM64L-G16RevA.03 25-Dec-2016

 -------------
 #p 6-31g* mp2
 -------------

 ------------------------------------------------------
 Input file generated by CHIRIPA (05-May-2021 14:55:19)
 ------------------------------------------------------
 Symbolic Z-matrix:
 Charge =  0 Multiplicity = 1

                         Standard orientation:
 ---------------------------------------------------------------------
 Center     Atomic      Atomic             Coordinates (Angstroms)
 Number     Number       Type             X           Y           Z
 ---------------------------------------------------------------------
      1          6           0       -1.815254    2.623821    0.137382
      2          6           0       -1.193186    1.640159   -0.638480
      3          6           0       -1.790207    0.387563   -0.809114
      4          6           0       -3.015065    0.151637   -0.186738
      5          6           0       -3.659747    1.111152    0.592369
      6          6           0       -3.044382    2.356649    0.749252
      7          1           0       -1.344349    3.594110    0.264594
      8          1           0       -0.238606    1.844849   -1.114846
      9          1           0       -1.330594   -0.392072   -1.404382
     10          1           0       -4.611079    0.877611    1.054802
     11          1           0       -3.529792    3.118674    1.352360
     12          7           0       -3.656814   -1.170672   -0.360102
     13          8           0       -4.736118   -1.353621    0.198708
     14          8           0       -3.068360   -1.999112   -1.051511
     15          6           0        4.486860   -0.493178    0.172119
     16          6           0        5.106746    0.798422   -0.362200
     17          6           0        6.633737    0.742755   -0.416915
     18          1           0        4.884057   -0.694946    1.176344
     19          1           0        4.801562   -1.332810   -0.462999
     20          1           0        4.789849    1.635566    0.272923
     21          1           0        4.707881    0.997239   -1.365192
     22          1           0        6.966452   -0.073390   -1.066384
     23          1           0        7.048885    0.568564    0.581038
     24          1           0        7.055967    1.676265   -0.801806
     25          6           0        2.960940   -0.452921    0.232785
     26          6           0        2.341053   -1.744521    0.767102
     27          6           0        0.814063   -1.688854    0.821819
     28          1           0        2.646237    0.386711    0.867903
     29          1           0        2.563743   -0.251153   -0.771441
     30          1           0        2.739919   -1.943338    1.770096
     31          1           0        2.657951   -2.581665    0.131980
     32          1           0        0.398914   -1.514663   -0.176135
     33          1           0        0.481348   -0.872709    1.471288
     34          1           0        0.391833   -2.622365    1.206709
 ---------------------------------------------------------------------

 SCF Done:  E(RHF) =  -669.534846936     A.U. after   15 cycles
 E2 =    -0.2092160559D+01 EUMP2 =    -0.67162700749540D+03

 The electronic state is 1-A.
 Alpha  occ. eigenvalues --  -20.60721 -20.60714 -15.85772 -11.31124 -11.27710
 Alpha  occ. eigenvalues --  -11.27703 -11.27458 -11.26718 -11.26700 -11.22005
 Alpha  occ. eigenvalues --  -11.21850 -11.21786 -11.21719 -11.21393 -11.21166
 Alpha  occ. eigenvalues --   -1.59793  -1.39348  -1.19311  -1.08779  -1.08704
 Alpha  occ. eigenvalues --   -1.04721  -1.03815  -0.96266  -0.95540  -0.87285
 Alpha  occ. eigenvalues --   -0.86111  -0.82376  -0.79892  -0.78621  -0.77417
 Alpha  occ. eigenvalues --   -0.71993  -0.71113  -0.70440  -0.65414  -0.64964
 Alpha  occ. eigenvalues --   -0.64727  -0.62116  -0.61188  -0.59625  -0.57886
 Alpha  occ. eigenvalues --   -0.55580  -0.55205  -0.53211  -0.52915  -0.52864
 Alpha  occ. eigenvalues --   -0.52478  -0.50198  -0.48750  -0.48748  -0.48190
 Alpha  occ. eigenvalues --   -0.46921  -0.46153  -0.46075  -0.44750  -0.44079
 Alpha  occ. eigenvalues --   -0.37292  -0.36264
 Alpha virt. eigenvalues --    0.05102   0.11293   0.16578   0.20516   0.22694
 Alpha virt. eigenvalues --    0.23971   0.25591   0.26639   0.26926   0.28214
 Alpha virt. eigenvalues --    0.28859   0.30218   0.31349   0.31635   0.31803

 Mulliken charges:
               1
     1  C   -0.171231
     2  C   -0.219232
     3  C   -0.166503
     4  C    0.157680
     5  C   -0.171185
     6  C   -0.218831
     7  H    0.225380
     8  H    0.224383
     9  H    0.275738
    10  H    0.275382
    11  H    0.223064
    12  N    0.488419
    13  O   -0.460728
    14  O   -0.460926
    15  C   -0.298221
    16  C   -0.299600
    17  C   -0.475809
    18  H    0.151360
    19  H    0.151582
    20  H    0.150058
    21  H    0.150001
    22  H    0.156536
    23  H    0.156185
    24  H    0.160275
    25  C   -0.297608
    26  C   -0.300614
    27  C   -0.476087
    28  H    0.147210
    29  H    0.142752
    30  H    0.153205
    31  H    0.154477
    32  H    0.149849
    33  H    0.154946
    34  H    0.168094
 Sum of Mulliken charges =  -0.00000

 Dipole moment (field-independent basis, Debye):
    X=              2.3082    Y=              4.5699    Z=              0.6692  Tot=              5.1634
 Quadrupole moment (field-independent basis, Debye-Ang):
   XX=           -106.8871   YY=            -93.2020   ZZ=            -93.0366
   XY=            -15.3579   XZ=             -4.6095   YZ=              0.5089

 Normal termination of Gaussian 16 at Thu May  6 19:03:38 2021.
