 Gaussian 16, Revision A.03,
 Gaussian 16:  EM64L-G16RevA.03 25-Dec-2016

 -------------
 #p 6-31g* mp2
 -------------

 ------------------------------------------------------
 Input file generated by CHIRIPA (05-May-2021 14:55:23)
 ------------------------------------------------------
 Symbolic Z-matrix:
 Charge =  0 Multiplicity = 1

                         Standard orientation:
 ---------------------------------------------------------------------
 Center     Atomic      Atomic             Coordinates (Angstroms)
 Number     Number       Type             X           Y           Z
 ---------------------------------------------------------------------
      1          6           0        3.733472    2.178620   -0.816393
      2          6           0        3.741394    0.957419   -1.498396
      3          6           0        3.153482   -0.176783   -0.930512
      4          6           0        2.563885   -0.053381    0.326643
      5          6           0        2.539849    1.149319    1.031075
      6          6           0        3.133782    2.270510    0.443944
      7          1           0        4.192514    3.054642   -1.265015
      8          1           0        4.206392    0.883110   -2.477324
      9          1           0        3.145372   -1.134559   -1.436493
     10          1           0        2.068628    1.192354    2.005507
     11          1           0        3.126136    3.217614    0.975903
     12          7           0        1.938302   -1.247223    0.938024
     13          8           0        1.425358   -1.112299    2.046772
     14          8           0        1.972761   -2.295274    0.296901
     15          6           0       -3.634490    0.547676   -0.296149
     16          6           0       -5.027763    0.766152    0.294650
     17          6           0       -5.455286    2.233999    0.273581
     18          1           0       -2.906968    1.151033    0.263868
     19          1           0       -3.619639    0.920065   -1.329832
     20          1           0       -5.040374    0.392201    1.326453
     21          1           0       -5.752024    0.162058   -0.266716
     22          1           0       -5.470908    2.616006   -0.752298
     23          1           0       -4.755214    2.847456    0.849923
     24          1           0       -6.454187    2.367376    0.700511
     25          6           0       -3.193002   -0.914726   -0.282104
     26          6           0       -1.799729   -1.133202   -0.872903
     27          6           0       -1.372206   -2.601049   -0.851833
     28          1           0       -3.207854   -1.287115    0.751579
     29          1           0       -3.920524   -1.518082   -0.842120
     30          1           0       -1.075469   -0.529108   -0.311536
     31          1           0       -1.787119   -0.759250   -1.904705
     32          1           0       -2.072278   -3.214506   -1.428175
     33          1           0       -1.356584   -2.983055    0.174046
     34          1           0       -0.373306   -2.734425   -1.278763
 ---------------------------------------------------------------------

 SCF Done:  E(RHF) =  -669.535957923     A.U. after   15 cycles
 E2 =    -0.2091988336D+01 EUMP2 =    -0.67162794625845D+03

 The electronic state is 1-A.
 Alpha  occ. eigenvalues --  -20.60925 -20.60906 -15.85943 -11.31274 -11.27835
 Alpha  occ. eigenvalues --  -11.27831 -11.27569 -11.26841 -11.26831 -11.21251
 Alpha  occ. eigenvalues --  -11.20953 -11.20876 -11.20838 -11.20733 -11.19808
 Alpha  occ. eigenvalues --   -1.59975  -1.39532  -1.19438  -1.08842  -1.07880
 Alpha  occ. eigenvalues --   -1.04835  -1.02916  -0.95689  -0.95328  -0.86342
 Alpha  occ. eigenvalues --   -0.86236  -0.82518  -0.79008  -0.77690  -0.77573
 Alpha  occ. eigenvalues --   -0.72170  -0.71304  -0.70548  -0.65095  -0.64839
 Alpha  occ. eigenvalues --   -0.64508  -0.62184  -0.60306  -0.58740  -0.56946
 Alpha  occ. eigenvalues --   -0.55340  -0.54613  -0.53166  -0.52929  -0.51997
 Alpha  occ. eigenvalues --   -0.51765  -0.49305  -0.48927  -0.48885  -0.47325
 Alpha  occ. eigenvalues --   -0.46068  -0.45256  -0.45147  -0.44867  -0.43123
 Alpha  occ. eigenvalues --   -0.37410  -0.36434
 Alpha virt. eigenvalues --    0.04935   0.11213   0.16393   0.21321   0.23345
 Alpha virt. eigenvalues --    0.24819   0.27059   0.27233   0.27856   0.28147
 Alpha virt. eigenvalues --    0.28798   0.30840   0.31809   0.32064   0.32248

 Mulliken charges:
               1
     1  C   -0.170507
     2  C   -0.218429
     3  C   -0.170595
     4  C    0.158187
     5  C   -0.171270
     6  C   -0.218406
     7  H    0.225960
     8  H    0.223781
     9  H    0.275505
    10  H    0.275665
    11  H    0.223757
    12  N    0.489503
    13  O   -0.460344
    14  O   -0.458321
    15  C   -0.297410
    16  C   -0.299404
    17  C   -0.475201
    18  H    0.147949
    19  H    0.146734
    20  H    0.153072
    21  H    0.151511
    22  H    0.153747
    23  H    0.153673
    24  H    0.159443
    25  C   -0.297950
    26  C   -0.299151
    27  C   -0.477267
    28  H    0.153681
    29  H    0.148094
    30  H    0.146348
    31  H    0.145592
    32  H    0.146694
    33  H    0.165694
    34  H    0.169666
 Sum of Mulliken charges =  -0.00000

 Dipole moment (field-independent basis, Debye):
    X=              2.4022    Y=              4.1040    Z=             -2.0656  Tot=              5.1846
 Quadrupole moment (field-independent basis, Debye-Ang):
   XX=            -84.3423   YY=            -95.0185   ZZ=            -92.4799
   XY=             10.7674   XZ=             -5.9967   YZ=              3.9036

 Normal termination of Gaussian 16 at Thu May  6 11:01:06 2021.
