 Gaussian 16, Revision A.03,
 Gaussian 16:  EM64L-G16RevA.03 25-Dec-2016

 -------------
 #p 6-31g* mp2
 -------------

 ------------------------------------------------------
 Input file generated by CHIRIPA (05-May-2021 14:57:26)
 ------------------------------------------------------
 Symbolic Z-matrix:
 Charge =  0 Multiplicity = 1

                         Standard orientation:
 ---------------------------------------------------------------------
 Center     Atomic      Atomic             Coordinates (Angstroms)
 Number     Number       Type             X           Y           Z
 ---------------------------------------------------------------------
      1          6           0       -2.634407   -1.882633    1.515016
      2          6           0       -3.935060   -2.062462    1.032849
      3          6           0       -4.530043   -1.095237    0.217362
      4          6           0       -3.792266    0.044843   -0.097588
      5          6           0       -2.494599    0.252880    0.367247
      6          6           0       -1.919588   -0.727572    1.181264
      7          1           0       -2.179968   -2.639134    2.147935
      8          1           0       -4.492564   -2.958504    1.290420
      9          1           0       -5.535382   -1.208982   -0.169645
     10          1           0       -1.963786    1.156561    0.093360
     11          1           0       -0.909318   -0.585245    1.554282
     12          7           0       -4.411576    1.075801   -0.960130
     13          8           0       -3.740543    2.071380   -1.223140
     14          8           0       -5.556298    0.868767   -1.356848
     15          6           0        2.829137    2.143936    1.199894
     16          6           0        1.948511    1.122864    0.827829
     17          6           0        2.414519   -0.000326    0.138026
     18          6           0        3.773441   -0.070104   -0.164879
     19          6           0        4.675739    0.930731    0.192160
     20          6           0        4.187545    2.044785    0.881433
     21          1           0        2.458513    3.012909    1.735543
     22          1           0        0.893044    1.197182    1.073820
     23          1           0        1.754747   -0.805352   -0.162064
     24          1           0        5.722514    0.828376   -0.067074
     25          1           0        4.873753    2.836239    1.169119
     26          7           0        4.278525   -1.254340   -0.894863
     27          8           0        5.480268   -1.291947   -1.149886
     28          8           0        3.463104   -2.122514   -1.198178
 ---------------------------------------------------------------------

 SCF Done:  E(RHF) =  -868.336797206     A.U. after   16 cycles
 E2 =    -0.2599876825D+01 EUMP2 =    -0.87093667403066D+03

 The electronic state is 1-A.
 Alpha  occ. eigenvalues --  -20.61196 -20.61193 -20.61184 -20.61184 -15.86253
 Alpha  occ. eigenvalues --  -15.86252 -11.31711 -11.31708 -11.28399 -11.28373
 Alpha  occ. eigenvalues --  -11.28270 -11.28252 -11.28061 -11.28035 -11.27461
 Alpha  occ. eigenvalues --  -11.27440 -11.27266 -11.27246  -1.60266  -1.60265
 Alpha  occ. eigenvalues --   -1.39818  -1.39817  -1.19909  -1.19895  -1.09275
 Alpha  occ. eigenvalues --   -1.09259  -1.05382  -1.05308  -0.96090  -0.96083
 Alpha  occ. eigenvalues --   -0.86746  -0.86710  -0.83004  -0.82880  -0.78069
 Alpha  occ. eigenvalues --   -0.77888  -0.72471  -0.72466  -0.71590  -0.71589
 Alpha  occ. eigenvalues --   -0.71000  -0.70981  -0.65601  -0.65565  -0.65462
 Alpha  occ. eigenvalues --   -0.65266  -0.62937  -0.62451  -0.55837  -0.55758
 Alpha  occ. eigenvalues --   -0.53653  -0.53627  -0.53518  -0.53362  -0.49239
 Alpha  occ. eigenvalues --   -0.49232  -0.49218  -0.49214  -0.45205  -0.45203
 Alpha  occ. eigenvalues --   -0.37864  -0.37845  -0.36958  -0.36934
 Alpha virt. eigenvalues --    0.04578   0.04602   0.10690   0.10710   0.15994
 Alpha virt. eigenvalues --    0.16036   0.17756   0.22134   0.24452   0.26864
 Alpha virt. eigenvalues --    0.28095   0.28809   0.30258   0.31307   0.32319

 Mulliken charges:
               1
     1  C   -0.168973
     2  C   -0.218061
     3  C   -0.169222
     4  C    0.159585
     5  C   -0.171788
     6  C   -0.223209
     7  H    0.229303
     8  H    0.226537
     9  H    0.277946
    10  H    0.270714
    11  H    0.217602
    12  N    0.488365
    13  O   -0.461145
    14  O   -0.458014
    15  C   -0.169583
    16  C   -0.222325
    17  C   -0.171770
    18  C    0.159091
    19  C   -0.169320
    20  C   -0.218312
    21  H    0.228726
    22  H    0.216826
    23  H    0.273812
    24  H    0.277772
    25  H    0.226164
    26  N    0.488195
    27  O   -0.458432
    28  O   -0.460484
 Sum of Mulliken charges =  -0.00000

 Dipole moment (field-independent basis, Debye):
    X=              0.4050    Y=              0.4856    Z=              5.5759  Tot=              5.6117
 Quadrupole moment (field-independent basis, Debye-Ang):
   XX=           -125.3121   YY=           -104.0513   ZZ=           -107.8303
   XY=             35.3528   XZ=             -1.3416   YZ=             -0.1961

 Normal termination of Gaussian 16 at Fri May  7 00:26:15 2021.
