 Gaussian 16, Revision A.03,
 Gaussian 16:  EM64L-G16RevA.03 25-Dec-2016

 -------------
 #p 6-31g* mp2
 -------------

 ------------------------------------------------------
 Input file generated by CHIRIPA (05-May-2021 14:57:22)
 ------------------------------------------------------
 Symbolic Z-matrix:
 Charge =  0 Multiplicity = 1

                         Standard orientation:
 ---------------------------------------------------------------------
 Center     Atomic      Atomic             Coordinates (Angstroms)
 Number     Number       Type             X           Y           Z
 ---------------------------------------------------------------------
      1          6           0       -4.084552    1.029107   -0.972591
      2          6           0       -3.247639    1.873576   -0.235727
      3          6           0       -2.241952    1.343109    0.577752
      4          6           0       -2.100611   -0.042704    0.630995
      5          6           0       -2.918617   -0.910236   -0.091185
      6          6           0       -3.917664   -0.357659   -0.898100
      7          1           0       -4.863214    1.449775   -1.601972
      8          1           0       -3.374939    2.950941   -0.291638
      9          1           0       -1.580073    1.973780    1.158775
     10          1           0       -2.767418   -1.980168   -0.015010
     11          1           0       -4.566158   -1.015905   -1.469251
     12          7           0       -1.039451   -0.615990    1.488714
     13          8           0       -0.935444   -1.840302    1.518365
     14          8           0       -0.331813    0.169836    2.115103
     15          6           0        3.374556    2.128790    0.145287
     16          6           0        3.876691    0.921260    0.641528
     17          6           0        3.275720   -0.292931    0.296392
     18          6           0        2.169251   -0.262590   -0.551015
     19          6           0        1.645615    0.924118   -1.061719
     20          6           0        2.262582    2.126369   -0.703257
     21          1           0        3.847618    3.067365    0.418574
     22          1           0        4.740135    0.920111    1.300702
     23          1           0        3.643856   -1.242216    0.666193
     24          1           0        0.783509    0.893344   -1.716886
     25          1           0        1.870458    3.062637   -1.090151
     26          7           0        1.524564   -1.541679   -0.923449
     27          8           0        0.550931   -1.487998   -1.671644
     28          8           0        2.005096   -2.573691   -0.460116
 ---------------------------------------------------------------------

 SCF Done:  E(RHF) =  -868.337850506     A.U. after   16 cycles
 E2 =    -0.2603010604D+01 EUMP2 =    -0.87094086111046D+03

 The electronic state is 1-A.
 Alpha  occ. eigenvalues --  -20.60477 -20.60410 -20.60131 -20.60035 -15.85457
 Alpha  occ. eigenvalues --  -15.85125 -11.30795 -11.30465 -11.27475 -11.27284
 Alpha  occ. eigenvalues --  -11.27174 -11.27135 -11.27006 -11.26857 -11.26486
 Alpha  occ. eigenvalues --  -11.26334 -11.26173 -11.26052  -1.59528  -1.59134
 Alpha  occ. eigenvalues --   -1.39065  -1.38702  -1.18987  -1.18651  -1.08400
 Alpha  occ. eigenvalues --   -1.08070  -1.04392  -1.04081  -0.95235  -0.94908
 Alpha  occ. eigenvalues --   -0.85792  -0.85497  -0.82067  -0.81759  -0.77108
 Alpha  occ. eigenvalues --   -0.76795  -0.71690  -0.71394  -0.71284  -0.70114
 Alpha  occ. eigenvalues --   -0.69985  -0.69817  -0.64649  -0.64412  -0.64343
 Alpha  occ. eigenvalues --   -0.64132  -0.61737  -0.61457  -0.54925  -0.54625
 Alpha  occ. eigenvalues --   -0.52728  -0.52494  -0.52371  -0.52206  -0.48480
 Alpha  occ. eigenvalues --   -0.48435  -0.48138  -0.48093  -0.44459  -0.44104
 Alpha  occ. eigenvalues --   -0.36977  -0.36603  -0.36013  -0.35605
 Alpha virt. eigenvalues --    0.05400   0.05773   0.11535   0.12083   0.16874
 Alpha virt. eigenvalues --    0.17278   0.21713   0.21973   0.27582   0.27861
 Alpha virt. eigenvalues --    0.28665   0.28853   0.31213   0.31398   0.32962

 Mulliken charges:
               1
     1  C   -0.170847
     2  C   -0.220997
     3  C   -0.175997
     4  C    0.159540
     5  C   -0.159042
     6  C   -0.219154
     7  H    0.223894
     8  H    0.219154
     9  H    0.271481
    10  H    0.282324
    11  H    0.224425
    12  N    0.482158
    13  O   -0.450210
    14  O   -0.465862
    15  C   -0.168979
    16  C   -0.216353
    17  C   -0.161867
    18  C    0.162988
    19  C   -0.174165
    20  C   -0.218111
    21  H    0.222416
    22  H    0.222194
    23  H    0.277015
    24  H    0.270953
    25  H    0.216882
    26  N    0.489731
    27  O   -0.472029
    28  O   -0.451543
 Sum of Mulliken charges =  -0.00000

 Dipole moment (field-independent basis, Debye):
    X=             -1.4055    Y=              6.0664    Z=             -1.5656  Tot=              6.4209
 Quadrupole moment (field-independent basis, Debye-Ang):
   XX=            -77.2991   YY=           -102.4552   ZZ=           -109.8523
   XY=              4.9490   XZ=              8.8207   YZ=             -1.6497

 Normal termination of Gaussian 16 at Fri May  7 06:26:32 2021.
