 Gaussian 16, Revision A.03,
 Gaussian 16:  EM64L-G16RevA.03 25-Dec-2016

 -------------
 #p 6-31g* mp2
 -------------

 ------------------------------------------------------
 Input file generated by CHIRIPA (05-May-2021 14:57:21)
 ------------------------------------------------------
 Symbolic Z-matrix:
 Charge =  0 Multiplicity = 1

                         Standard orientation:
 ---------------------------------------------------------------------
 Center     Atomic      Atomic             Coordinates (Angstroms)
 Number     Number       Type             X           Y           Z
 ---------------------------------------------------------------------
      1          6           0        3.786880    2.514270   -0.284806
      2          6           0        2.651642    1.697217   -0.271335
      3          6           0        2.776351    0.310529   -0.144477
      4          6           0        4.057317   -0.227921   -0.032735
      5          6           0        5.207512    0.559632   -0.042882
      6          6           0        5.058949    1.943875   -0.170737
      7          1           0        3.680738    3.590533   -0.383739
      8          1           0        1.662482    2.137432   -0.359746
      9          1           0        1.914367   -0.345386   -0.131161
     10          1           0        6.180329    0.091714    0.047108
     11          1           0        5.942358    2.575959   -0.180896
     12          7           0        4.201968   -1.694652    0.102092
     13          8           0        5.341668   -2.144469    0.198969
     14          8           0        3.172906   -2.366685    0.108339
     15          6           0       -1.551690    0.096412    0.495985
     16          6           0       -2.022049   -0.231827   -0.779767
     17          6           0       -3.395008   -0.295850   -1.035564
     18          6           0       -4.273407   -0.024470    0.012319
     19          6           0       -3.835703    0.305364    1.294081
     20          6           0       -2.458419    0.363489    1.527019
     21          1           0       -0.483463    0.143856    0.685815
     22          1           0       -1.320184   -0.439731   -1.582391
     23          1           0       -3.786433   -0.547490   -2.013768
     24          1           0       -4.559720    0.507463    2.074064
     25          1           0       -2.095993    0.618662    2.518774
     26          7           0       -5.729187   -0.089126   -0.246382
     27          8           0       -6.482489    0.154309    0.693783
     28          8           0       -6.089359   -0.382015   -1.384420
 ---------------------------------------------------------------------

 SCF Done:  E(RHF) =  -868.336860186     A.U. after   16 cycles
 E2 =    -0.2599851987D+01 EUMP2 =    -0.87093671217227D+03

 The electronic state is 1-A.
 Alpha  occ. eigenvalues --  -20.61541 -20.61523 -20.60983 -20.60978 -15.86592
 Alpha  occ. eigenvalues --  -15.86038 -11.32070 -11.31498 -11.28761 -11.28569
 Alpha  occ. eigenvalues --  -11.28333 -11.28058 -11.28053 -11.27939 -11.27722
 Alpha  occ. eigenvalues --  -11.27588 -11.27150 -11.27127  -1.60607  -1.60055
 Alpha  occ. eigenvalues --   -1.40159  -1.39606  -1.20235  -1.19683  -1.09590
 Alpha  occ. eigenvalues --   -1.09087  -1.05672  -1.05090  -0.96421  -0.95903
 Alpha  occ. eigenvalues --   -0.87047  -0.86498  -0.83266  -0.82721  -0.78313
 Alpha  occ. eigenvalues --   -0.77731  -0.72806  -0.72256  -0.71932  -0.71384
 Alpha  occ. eigenvalues --   -0.71378  -0.70822  -0.65887  -0.65665  -0.65346
 Alpha  occ. eigenvalues --   -0.65103  -0.63034  -0.62426  -0.56144  -0.55648
 Alpha  occ. eigenvalues --   -0.53961  -0.53760  -0.53417  -0.53189  -0.49574
 Alpha  occ. eigenvalues --   -0.49555  -0.49023  -0.49004  -0.45541  -0.44990
 Alpha  occ. eigenvalues --   -0.38177  -0.37703  -0.37275  -0.36678
 Alpha virt. eigenvalues --    0.04234   0.04778   0.10384   0.10960   0.15695
 Alpha virt. eigenvalues --    0.16203   0.17873   0.21953   0.24766   0.26925
 Alpha virt. eigenvalues --    0.27237   0.29596   0.30239   0.30915   0.31912

 Mulliken charges:
               1
     1  C   -0.170341
     2  C   -0.219561
     3  C   -0.178971
     4  C    0.161749
     5  C   -0.169757
     6  C   -0.217784
     7  H    0.228816
     8  H    0.221669
     9  H    0.269649
    10  H    0.278425
    11  H    0.226951
    12  N    0.488029
    13  O   -0.456671
    14  O   -0.461727
    15  C   -0.175463
    16  C   -0.218654
    17  C   -0.170284
    18  C    0.159215
    19  C   -0.170424
    20  C   -0.218433
    21  H    0.221579
    22  H    0.223244
    23  H    0.277316
    24  H    0.276873
    25  H    0.225262
    26  N    0.487917
    27  O   -0.459409
    28  O   -0.459215
 Sum of Mulliken charges =  -0.00000

 Dipole moment (field-independent basis, Debye):
    X=              4.7480    Y=              5.4354    Z=              0.4324  Tot=              7.2300
 Quadrupole moment (field-independent basis, Debye-Ang):
   XX=           -146.0942   YY=           -107.9622   ZZ=           -101.0351
   XY=             20.8533   XZ=             -6.5819   YZ=              1.2931

 Normal termination of Gaussian 16 at Thu May  6 08:02:44 2021.
