 Gaussian 16, Revision A.03,
 Gaussian 16:  EM64L-G16RevA.03 25-Dec-2016

 -------------
 #p 6-31g* mp2
 -------------

 ------------------------------------------------------
 Input file generated by CHIRIPA (05-May-2021 14:51:13)
 ------------------------------------------------------
 Symbolic Z-matrix:
 Charge =  0 Multiplicity = 1

                         Standard orientation:
 ---------------------------------------------------------------------
 Center     Atomic      Atomic             Coordinates (Angstroms)
 Number     Number       Type             X           Y           Z
 ---------------------------------------------------------------------
      1          6           0        2.741927   -0.146568   -0.556857
      2          6           0        2.607004    1.373772   -0.648217
      3          6           0        3.373387    1.965204   -1.831712
      4          1           0        3.805437   -0.409672   -0.475196
      5          1           0        2.379448   -0.596679   -1.491418
      6          1           0        2.968344    1.820798    0.286779
      7          1           0        1.543679    1.633297   -0.729477
      8          1           0        3.008114    1.546655   -2.775106
      9          1           0        4.440873    1.735222   -1.753076
     10          1           0        3.263242    3.053130   -1.878026
     11          6           0        1.981299   -0.752558    0.621256
     12          6           0        2.116222   -2.272898    0.712616
     13          6           0        1.349839   -2.864330    1.896110
     14          1           0        2.343778   -0.302447    1.555817
     15          1           0        0.917789   -0.489454    0.539595
     16          1           0        3.179547   -2.532423    0.793875
     17          1           0        1.754883   -2.719924   -0.222380
     18          1           0        0.282353   -2.634347    1.817475
     19          1           0        1.715112   -2.445781    2.839505
     20          1           0        1.459984   -3.952256    1.942425
     21          6           0       -2.180496   -0.193247   -0.402908
     22          6           0       -3.396038   -0.935171   -0.959673
     23          6           0       -3.017525   -2.219110   -1.698606
     24          1           0       -1.494987    0.045158   -1.227642
     25          1           0       -1.632034   -0.860318    0.276504
     26          1           0       -3.942814   -0.266438   -1.636761
     27          1           0       -4.078824   -1.171668   -0.133544
     28          1           0       -2.491535   -2.907840   -1.029587
     29          1           0       -2.354752   -1.997468   -2.541345
     30          1           0       -3.901481   -2.733491   -2.088344
     31          6           0       -2.542731    1.092372    0.338510
     32          6           0       -1.327188    1.834297    0.895274
     33          6           0       -1.705701    3.118236    1.634208
     34          1           0       -3.091192    1.759444   -0.340902
     35          1           0       -3.228239    0.853969    1.163244
     36          1           0       -0.644402    2.070794    0.069145
     37          1           0       -0.780412    1.165564    1.572362
     38          1           0       -2.368474    2.896592    2.476946
     39          1           0       -2.231691    3.806966    0.965189
     40          1           0       -0.821745    3.632617    2.023945
 ---------------------------------------------------------------------

 SCF Done:  E(RHF) =  -470.732481433     A.U. after   11 cycles
 E2 =    -0.1585087308D+01 EUMP2 =    -0.47231756874021D+03

 The electronic state is 1-A.
 Alpha  occ. eigenvalues --  -11.21680 -11.21603 -11.21553 -11.21530 -11.21502
 Alpha  occ. eigenvalues --  -11.21421 -11.21325 -11.21230 -11.21138 -11.21087
 Alpha  occ. eigenvalues --  -11.21083 -11.21046  -1.08528  -1.08352  -1.03587
 Alpha  occ. eigenvalues --   -1.03491  -0.96038  -0.95943  -0.87054  -0.86962
 Alpha  occ. eigenvalues --   -0.79701  -0.79528  -0.78555  -0.77969  -0.65153
 Alpha  occ. eigenvalues --   -0.65006  -0.61031  -0.60861  -0.59425  -0.59294
 Alpha  occ. eigenvalues --   -0.57656  -0.57549  -0.55329  -0.55233  -0.52739
 Alpha  occ. eigenvalues --   -0.52639  -0.52463  -0.52375  -0.50010  -0.49876
 Alpha  occ. eigenvalues --   -0.48130  -0.47841  -0.46825  -0.46627  -0.46419
 Alpha  occ. eigenvalues --   -0.45685  -0.45624  -0.44905  -0.43835  -0.43726
 Alpha virt. eigenvalues --    0.20351   0.22335   0.23600   0.24112   0.25174
 Alpha virt. eigenvalues --    0.26439   0.27106   0.27468   0.28079   0.30118
 Alpha virt. eigenvalues --    0.30688   0.31521   0.31643   0.31982   0.32113

 Mulliken charges:
               1
     1  C   -0.297309
     2  C   -0.306545
     3  C   -0.475169
     4  H    0.149198
     5  H    0.148833
     6  H    0.151532
     7  H    0.158626
     8  H    0.154618
     9  H    0.155176
    10  H    0.159793
    11  C   -0.308747
    12  C   -0.299002
    13  C   -0.477293
    14  H    0.148156
    15  H    0.162838
    16  H    0.151711
    17  H    0.152020
    18  H    0.154658
    19  H    0.155205
    20  H    0.160442
    21  C   -0.303500
    22  C   -0.299374
    23  C   -0.475901
    24  H    0.149275
    25  H    0.152742
    26  H    0.152371
    27  H    0.152403
    28  H    0.155246
    29  H    0.155026
    30  H    0.160739
    31  C   -0.297484
    32  C   -0.308551
    33  C   -0.475200
    34  H    0.149587
    35  H    0.149827
    36  H    0.157766
    37  H    0.155477
    38  H    0.155149
    39  H    0.154891
    40  H    0.160769
 Sum of Mulliken charges =  -0.00000

 Dipole moment (field-independent basis, Debye):
    X=             -0.0554    Y=              0.0191    Z=              0.0067  Tot=              0.0589
 Quadrupole moment (field-independent basis, Debye-Ang):
   XX=            -84.4403   YY=            -85.7831   ZZ=            -84.6650
   XY=             -0.0327   XZ=              0.9275   YZ=             -0.4127

 Normal termination of Gaussian 16 at Thu May  6 00:46:49 2021.
