 Gaussian 16, Revision A.03,
 Gaussian 16:  EM64L-G16RevA.03 25-Dec-2016

 -------------
 #p 6-31g* mp2
 -------------

 ------------------------------------------------------
 Input file generated by CHIRIPA (05-May-2021 14:53:17)
 ------------------------------------------------------
 Symbolic Z-matrix:
 Charge =  0 Multiplicity = 1

                         Standard orientation:
 ---------------------------------------------------------------------
 Center     Atomic      Atomic             Coordinates (Angstroms)
 Number     Number       Type             X           Y           Z
 ---------------------------------------------------------------------
      1          6           0       -5.147564   -0.010490   -0.320872
      2          6           0       -5.928574   -1.325006   -0.313329
      3          6           0       -6.987576   -1.389754   -1.414291
      4          1           0       -5.849786    0.826526   -0.205831
      5          1           0       -4.667230    0.116929   -1.300892
      6          1           0       -6.406159   -1.450577    0.666855
      7          1           0       -5.224392   -2.159000   -0.428208
      8          1           0       -6.524016   -1.289812   -2.401066
      9          1           0       -7.712497   -0.577365   -1.299780
     10          1           0       -7.533912   -2.337812   -1.390564
     11          6           0       -4.085200    0.069279    0.774001
     12          6           0       -3.304190    1.383795    0.766458
     13          6           0       -2.245189    1.448544    1.867420
     14          1           0       -4.565534   -0.058140    1.754021
     15          1           0       -3.382978   -0.767736    0.658961
     16          1           0       -4.008372    2.217789    0.881338
     17          1           0       -2.826605    1.509367   -0.213726
     18          1           0       -1.520267    0.636154    1.752910
     19          1           0       -2.708749    1.348602    2.854195
     20          1           0       -1.698852    2.396601    1.843693
     21          6           0        1.875002    1.705894   -0.792405
     22          6           0        1.570514    0.712827    0.144412
     23          6           0        2.522160   -0.250195    0.492988
     24          6           0        3.773948   -0.190104   -0.117509
     25          6           0        4.107488    0.786808   -1.054356
     26          6           0        3.140287    1.739656   -1.387749
     27          1           0        1.129698    2.450041   -1.057290
     28          1           0        0.588695    0.684161    0.608368
     29          1           0        2.313058   -1.030028    1.215175
     30          1           0        5.094836    0.789604   -1.499951
     31          1           0        3.379547    2.509728   -2.115614
     32          7           0        4.789647   -1.204228    0.243476
     33          8           0        5.885195   -1.129521   -0.308640
     34          8           0        4.470973   -2.054599    1.071697
 ---------------------------------------------------------------------

 SCF Done:  E(RHF) =  -669.535498191     A.U. after   15 cycles
 E2 =    -0.2090882581D+01 EUMP2 =    -0.67162638077195D+03

 The electronic state is 1-A.
 Alpha  occ. eigenvalues --  -20.60728 -20.60723 -15.85780 -11.31138 -11.27706
 Alpha  occ. eigenvalues --  -11.27693 -11.27442 -11.26726 -11.26667 -11.22554
 Alpha  occ. eigenvalues --  -11.22244 -11.22116 -11.22059 -11.21950 -11.21449
 Alpha  occ. eigenvalues --   -1.59803  -1.39357  -1.19307  -1.09128  -1.08704
 Alpha  occ. eigenvalues --   -1.04710  -1.04257  -0.96715  -0.95541  -0.87736
 Alpha  occ. eigenvalues --   -0.86105  -0.82374  -0.80329  -0.78895  -0.77423
 Alpha  occ. eigenvalues --   -0.71999  -0.71126  -0.70419  -0.65782  -0.64958
 Alpha  occ. eigenvalues --   -0.64725  -0.62137  -0.61585  -0.60103  -0.58300
 Alpha  occ. eigenvalues --   -0.56032  -0.55201  -0.53431  -0.53153  -0.53040
 Alpha  occ. eigenvalues --   -0.52769  -0.50634  -0.48760  -0.48754  -0.48629
 Alpha  occ. eigenvalues --   -0.47355  -0.46445  -0.46345  -0.44764  -0.44488
 Alpha  occ. eigenvalues --   -0.37290  -0.36312
 Alpha virt. eigenvalues --    0.05110   0.11336   0.16606   0.19538   0.22612
 Alpha virt. eigenvalues --    0.23765   0.25572   0.26293   0.26884   0.28062
 Alpha virt. eigenvalues --    0.29065   0.29851   0.30951   0.31407   0.32095

 Mulliken charges:
               1
     1  C   -0.298749
     2  C   -0.300291
     3  C   -0.476091
     4  H    0.150709
     5  H    0.149369
     6  H    0.153050
     7  H    0.152976
     8  H    0.155475
     9  H    0.155619
    10  H    0.162048
    11  C   -0.298766
    12  C   -0.300322
    13  C   -0.481572
    14  H    0.152197
    15  H    0.149633
    16  H    0.156039
    17  H    0.148090
    18  H    0.149323
    19  H    0.163353
    20  H    0.159549
    21  C   -0.173656
    22  C   -0.226067
    23  C   -0.173590
    24  C    0.158899
    25  C   -0.171392
    26  C   -0.218422
    27  H    0.225776
    28  H    0.235856
    29  H    0.275563
    30  H    0.275372
    31  H    0.223115
    32  N    0.488087
    33  O   -0.460669
    34  O   -0.460510
 Sum of Mulliken charges =  -0.00000

 Dipole moment (field-independent basis, Debye):
    X=             -3.8263    Y=              3.5772    Z=             -1.2386  Tot=              5.3824
 Quadrupole moment (field-independent basis, Debye-Ang):
   XX=           -119.3945   YY=            -95.6535   ZZ=            -92.9716
   XY=             15.4014   XZ=             -8.0063   YZ=             -1.5959

 Normal termination of Gaussian 16 at Wed May  5 22:01:19 2021.
