 Gaussian 16, Revision A.03,
 Gaussian 16:  EM64L-G16RevA.03 25-Dec-2016

 -------------
 #p 6-31g* mp2
 -------------

 ------------------------------------------------------
 Input file generated by CHIRIPA (05-May-2021 14:55:25)
 ------------------------------------------------------
 Symbolic Z-matrix:
 Charge =  0 Multiplicity = 1

                         Standard orientation:
 ---------------------------------------------------------------------
 Center     Atomic      Atomic             Coordinates (Angstroms)
 Number     Number       Type             X           Y           Z
 ---------------------------------------------------------------------
      1          6           0       -2.201883    2.626914    0.486600
      2          6           0       -2.696851    1.666985    1.375456
      3          6           0       -2.885176    0.345280    0.960511
      4          6           0       -2.566730    0.016799   -0.356296
      5          6           0       -2.071859    0.950454   -1.265516
      6          6           0       -1.891514    2.266221   -0.828730
      7          1           0       -2.058686    3.651339    0.817423
      8          1           0       -2.938740    1.944247    2.397542
      9          1           0       -3.266845   -0.417935    1.627782
     10          1           0       -1.839716    0.643965   -2.278231
     11          1           0       -1.506956    3.009611   -1.521212
     12          7           0       -2.761877   -1.379288   -0.807141
     13          8           0       -2.473741   -1.643268   -1.972443
     14          8           0       -3.199275   -2.183125    0.013326
     15          6           0        2.507634   -0.194555    0.522445
     16          6           0        1.870423   -1.323605    1.333120
     17          6           0        0.396618   -1.066066    1.648349
     18          1           0        2.409345    0.747978    1.078248
     19          1           0        1.948568   -0.064644   -0.414552
     20          1           0        2.431364   -1.452270    2.267682
     21          1           0        1.970411   -2.263592    0.775410
     22          1           0       -0.181816   -0.958963    0.725017
     23          1           0        0.281758   -0.143031    2.225768
     24          1           0       -0.039002   -1.885562    2.228455
     25          6           0        3.980857   -0.437485    0.199453
     26          6           0        4.618069    0.691565   -0.611221
     27          6           0        6.091873    0.434027   -0.926451
     28          1           0        4.539923   -0.567395    1.136451
     29          1           0        4.079147   -1.380018   -0.356350
     30          1           0        4.518081    1.631553   -0.053511
     31          1           0        4.057127    0.820231   -1.545784
     32          1           0        6.206734   -0.489009   -1.503869
     33          1           0        6.670307    0.326923   -0.003118
     34          1           0        6.527493    1.253522   -1.506557
 ---------------------------------------------------------------------

 SCF Done:  E(RHF) =  -669.534222538     A.U. after   15 cycles
 E2 =    -0.2093551903D+01 EUMP2 =    -0.67162777444050D+03

 The electronic state is 1-A.
 Alpha  occ. eigenvalues --  -20.60787 -20.60773 -15.85824 -11.31128 -11.27762
 Alpha  occ. eigenvalues --  -11.27722 -11.27506 -11.26771 -11.26757 -11.21671
 Alpha  occ. eigenvalues --  -11.21470 -11.21392 -11.21333 -11.21120 -11.20906
 Alpha  occ. eigenvalues --   -1.59858  -1.39410  -1.19362  -1.08764  -1.08409
 Alpha  occ. eigenvalues --   -1.04758  -1.03497  -0.95957  -0.95591  -0.86984
 Alpha  occ. eigenvalues --   -0.86154  -0.82425  -0.79582  -0.78231  -0.77470
 Alpha  occ. eigenvalues --   -0.72050  -0.71208  -0.70469  -0.65046  -0.65005
 Alpha  occ. eigenvalues --   -0.64764  -0.62105  -0.60903  -0.59315  -0.57594
 Alpha  occ. eigenvalues --   -0.55311  -0.55235  -0.53376  -0.52855  -0.52625
 Alpha  occ. eigenvalues --   -0.52125  -0.49903  -0.48808  -0.48806  -0.47852
 Alpha  occ. eigenvalues --   -0.46614  -0.45758  -0.45696  -0.44810  -0.43752
 Alpha  occ. eigenvalues --   -0.37268  -0.36327
 Alpha virt. eigenvalues --    0.05030   0.11249   0.16520   0.21396   0.22869
 Alpha virt. eigenvalues --    0.24288   0.26588   0.27207   0.27445   0.27925
 Alpha virt. eigenvalues --    0.28367   0.30724   0.31443   0.31727   0.31860

 Mulliken charges:
               1
     1  C   -0.170837
     2  C   -0.217529
     3  C   -0.165428
     4  C    0.152611
     5  C   -0.172893
     6  C   -0.217039
     7  H    0.225561
     8  H    0.223379
     9  H    0.275594
    10  H    0.275358
    11  H    0.223478
    12  N    0.492102
    13  O   -0.461266
    14  O   -0.459842
    15  C   -0.297352
    16  C   -0.300555
    17  C   -0.476409
    18  H    0.146149
    19  H    0.149076
    20  H    0.150377
    21  H    0.156312
    22  H    0.155646
    23  H    0.149723
    24  H    0.164036
    25  C   -0.298421
    26  C   -0.299260
    27  C   -0.475668
    28  H    0.149278
    29  H    0.151900
    30  H    0.149736
    31  H    0.151040
    32  H    0.156479
    33  H    0.155237
    34  H    0.159427
 Sum of Mulliken charges =  -0.00000

 Dipole moment (field-independent basis, Debye):
    X=              0.6318    Y=              4.8793    Z=              1.6027  Tot=              5.1745
 Quadrupole moment (field-independent basis, Debye-Ang):
   XX=            -99.6656   YY=            -94.5611   ZZ=            -91.3033
   XY=            -12.2417   XZ=             -5.7396   YZ=             -2.6240

 Normal termination of Gaussian 16 at Thu May  6 14:22:50 2021.
