 Gaussian 16, Revision A.03,
 Gaussian 16:  EM64L-G16RevA.03 25-Dec-2016

 -------------
 #p 6-31g* mp2
 -------------

 ------------------------------------------------------
 Input file generated by CHIRIPA (05-May-2021 14:57:23)
 ------------------------------------------------------
 Symbolic Z-matrix:
 Charge =  0 Multiplicity = 1

                         Standard orientation:
 ---------------------------------------------------------------------
 Center     Atomic      Atomic             Coordinates (Angstroms)
 Number     Number       Type             X           Y           Z
 ---------------------------------------------------------------------
      1          6           0        1.748502    2.305250    0.720324
      2          6           0        1.308899    1.779409   -0.499004
      3          6           0        1.916081    0.643410   -1.042496
      4          6           0        2.964928    0.055970   -0.336717
      5          6           0        3.425565    0.556183    0.880201
      6          6           0        2.803572    1.693039    1.404829
      7          1           0        1.271076    3.188054    1.135195
      8          1           0        0.489735    2.252777   -1.032799
      9          1           0        1.595740    0.215413   -1.984631
     10          1           0        4.244433    0.062357    1.389129
     11          1           0        3.147068    2.099222    2.351966
     12          7           0        3.615564   -1.147115   -0.902102
     13          8           0        4.537670   -1.646119   -0.260734
     14          8           0        3.191106   -1.568308   -1.975913
     15          6           0       -1.279204   -1.204483    1.967296
     16          6           0       -2.360024   -1.966856    1.512175
     17          6           0       -3.241014   -1.450514    0.557294
     18          6           0       -3.010298   -0.162388    0.076887
     19          6           0       -1.942500    0.621827    0.510600
     20          6           0       -1.074253    0.085152    1.465939
     21          1           0       -0.599779   -1.613487    2.709248
     22          1           0       -2.521645   -2.968701    1.899768
     23          1           0       -4.085735   -2.018974    0.187541
     24          1           0       -1.807233    1.617368    0.105607
     25          1           0       -0.235711    0.679501    1.817567
     26          7           0       -3.936217    0.395003   -0.934245
     27          8           0       -3.711137    1.532503   -1.341762
     28          8           0       -4.869500   -0.316169   -1.300108
 ---------------------------------------------------------------------

 SCF Done:  E(RHF) =  -868.335941324     A.U. after   16 cycles
 E2 =    -0.2603562406D+01 EUMP2 =    -0.87093950373065D+03

 The electronic state is 1-A.
 Alpha  occ. eigenvalues --  -20.61393 -20.61377 -20.61143 -20.61110 -15.86444
 Alpha  occ. eigenvalues --  -15.86177 -11.31999 -11.31489 -11.28590 -11.28499
 Alpha  occ. eigenvalues --  -11.28336 -11.28071 -11.27956 -11.27679 -11.27658
 Alpha  occ. eigenvalues --  -11.27565 -11.26979 -11.26902  -1.60459  -1.60203
 Alpha  occ. eigenvalues --   -1.40006  -1.39761  -1.20205  -1.19613  -1.09589
 Alpha  occ. eigenvalues --   -1.09008  -1.05614  -1.04995  -0.96366  -0.95873
 Alpha  occ. eigenvalues --   -0.87001  -0.86410  -0.83168  -0.82710  -0.78188
 Alpha  occ. eigenvalues --   -0.77783  -0.72656  -0.72395  -0.71787  -0.71525
 Alpha  occ. eigenvalues --   -0.71288  -0.70738  -0.65832  -0.65641  -0.65252
 Alpha  occ. eigenvalues --   -0.65004  -0.62944  -0.62380  -0.56115  -0.55519
 Alpha  occ. eigenvalues --   -0.54197  -0.53696  -0.53254  -0.52813  -0.49432
 Alpha  occ. eigenvalues --   -0.49400  -0.49166  -0.49135  -0.45368  -0.45179
 Alpha  occ. eigenvalues --   -0.38246  -0.37615  -0.37496  -0.36187
 Alpha virt. eigenvalues --    0.04232   0.04788   0.10326   0.11032   0.15576
 Alpha virt. eigenvalues --    0.16405   0.19649   0.21916   0.25199   0.27185
 Alpha virt. eigenvalues --    0.27969   0.29030   0.29978   0.31225   0.31539

 Mulliken charges:
               1
     1  C   -0.188776
     2  C   -0.219479
     3  C   -0.166737
     4  C    0.159207
     5  C   -0.172677
     6  C   -0.220226
     7  H    0.228548
     8  H    0.231353
     9  H    0.281470
    10  H    0.277585
    11  H    0.225966
    12  N    0.487650
    13  O   -0.459660
    14  O   -0.456224
    15  C   -0.173688
    16  C   -0.216818
    17  C   -0.171635
    18  C    0.159312
    19  C   -0.177340
    20  C   -0.215141
    21  H    0.226961
    22  H    0.225478
    23  H    0.276551
    24  H    0.264074
    25  H    0.228507
    26  N    0.488389
    27  O   -0.465208
    28  O   -0.457444
 Sum of Mulliken charges =  -0.00000

 Dipole moment (field-independent basis, Debye):
    X=              1.1687    Y=              2.0897    Z=              5.4394  Tot=              5.9431
 Quadrupole moment (field-independent basis, Debye-Ang):
   XX=           -135.4197   YY=           -100.9185   ZZ=           -103.3948
   XY=             20.6770   XZ=             -1.2976   YZ=             -2.4531

 Normal termination of Gaussian 16 at Wed May  5 21:01:14 2021.
