 Gaussian 16, Revision A.03,
 Gaussian 16:  EM64L-G16RevA.03 25-Dec-2016

 -------------
 #p 6-31g* mp2
 -------------

 ------------------------------------------------------
 Input file generated by CHIRIPA (05-May-2021 14:57:22)
 ------------------------------------------------------
 Symbolic Z-matrix:
 Charge =  0 Multiplicity = 1

                         Standard orientation:
 ---------------------------------------------------------------------
 Center     Atomic      Atomic             Coordinates (Angstroms)
 Number     Number       Type             X           Y           Z
 ---------------------------------------------------------------------
      1          6           0       -1.098532    2.732810    0.223215
      2          6           0       -2.225255    2.444588    1.000354
      3          6           0       -2.936737    1.256873    0.806262
      4          6           0       -2.491552    0.375976   -0.178177
      5          6           0       -1.372763    0.634740   -0.968520
      6          6           0       -0.676626    1.828560   -0.757014
      7          1           0       -0.551796    3.657827    0.380755
      8          1           0       -2.555209    3.144988    1.762335
      9          1           0       -3.812355    1.008684    1.393726
     10          1           0       -1.068047   -0.082973   -1.720487
     11          1           0        0.198051    2.049771   -1.362036
     12          7           0       -3.236644   -0.884637   -0.392872
     13          8           0       -2.824005   -1.644229   -1.266592
     14          8           0       -4.219177   -1.089244    0.316635
     15          6           0        0.657524   -2.288745    0.871204
     16          6           0        0.849309   -2.026606   -0.489319
     17          6           0        1.794670   -1.083978   -0.904400
     18          6           0        2.534187   -0.418906    0.072373
     19          6           0        2.366232   -0.658006    1.435425
     20          6           0        1.415262   -1.604814    1.827548
     21          1           0       -0.079033   -3.022624    1.184733
     22          1           0        0.262267   -2.556243   -1.234242
     23          1           0        1.963547   -0.861561   -1.951027
     24          1           0        2.966467   -0.114107    2.154667
     25          1           0        1.268460   -1.806353    2.884845
     26          7           0        3.537967    0.581224   -0.354903
     27          8           0        4.176781    1.153704    0.525336
     28          8           0        3.666910    0.773709   -1.561949
 ---------------------------------------------------------------------

 SCF Done:  E(RHF) =  -868.338720184     A.U. after   16 cycles
 E2 =    -0.2603427934D+01 EUMP2 =    -0.87094214811790D+03

 The electronic state is 1-A.
 Alpha  occ. eigenvalues --  -20.61403 -20.61368 -20.61298 -20.61283 -15.86415
 Alpha  occ. eigenvalues --  -15.86327 -11.31505 -11.31440 -11.28012 -11.28012
 Alpha  occ. eigenvalues --  -11.28006 -11.28004 -11.27642 -11.27580 -11.26971
 Alpha  occ. eigenvalues --  -11.26922 -11.26849 -11.26837  -1.60459  -1.60374
 Alpha  occ. eigenvalues --   -1.40025  -1.39931  -1.19671  -1.19558  -1.09058
 Alpha  occ. eigenvalues --   -1.09014  -1.05093  -1.04873  -0.95944  -0.95903
 Alpha  occ. eigenvalues --   -0.86440  -0.86312  -0.82794  -0.82748  -0.77980
 Alpha  occ. eigenvalues --   -0.77759  -0.72649  -0.72540  -0.71785  -0.71705
 Alpha  occ. eigenvalues --   -0.70728  -0.70657  -0.65287  -0.65257  -0.64999
 Alpha  occ. eigenvalues --   -0.64858  -0.62499  -0.62178  -0.55464  -0.55396
 Alpha  occ. eigenvalues --   -0.53866  -0.53116  -0.52992  -0.52740  -0.49428
 Alpha  occ. eigenvalues --   -0.49362  -0.49317  -0.49268  -0.45503  -0.45374
 Alpha  occ. eigenvalues --   -0.37920  -0.37308  -0.37032  -0.35906
 Alpha virt. eigenvalues --    0.04350   0.04893   0.10549   0.11521   0.16158
 Alpha virt. eigenvalues --    0.16197   0.20501   0.21913   0.25922   0.27422
 Alpha virt. eigenvalues --    0.28248   0.29201   0.30052   0.31334   0.32283

 Mulliken charges:
               1
     1  C   -0.170049
     2  C   -0.219741
     3  C   -0.171981
     4  C    0.155038
     5  C   -0.160211
     6  C   -0.222710
     7  H    0.230267
     8  H    0.223917
     9  H    0.274330
    10  H    0.267057
    11  H    0.230908
    12  N    0.488544
    13  O   -0.469741
    14  O   -0.458878
    15  C   -0.173077
    16  C   -0.222319
    17  C   -0.182010
    18  C    0.160930
    19  C   -0.171836
    20  C   -0.217050
    21  H    0.234510
    22  H    0.239534
    23  H    0.272273
    24  H    0.274568
    25  H    0.224891
    26  N    0.486408
    27  O   -0.459583
    28  O   -0.463987
 Sum of Mulliken charges =  -0.00000

 Dipole moment (field-independent basis, Debye):
    X=             -0.9281    Y=              0.8659    Z=              2.4100  Tot=              2.7238
 Quadrupole moment (field-independent basis, Debye-Ang):
   XX=           -135.4133   YY=            -98.5223   ZZ=            -98.1458
   XY=            -18.4452   XZ=             -0.1301   YZ=              0.4837

 Normal termination of Gaussian 16 at Thu May  6 01:46:34 2021.
