 Gaussian 16, Revision A.03,
 Gaussian 16:  EM64L-G16RevA.03 25-Dec-2016

 -------------
 #p 6-31g* mp2
 -------------

 ------------------------------------------------------
 Input file generated by CHIRIPA (05-May-2021 14:55:23)
 ------------------------------------------------------
 Symbolic Z-matrix:
 Charge =  0 Multiplicity = 1

                         Standard orientation:
 ---------------------------------------------------------------------
 Center     Atomic      Atomic             Coordinates (Angstroms)
 Number     Number       Type             X           Y           Z
 ---------------------------------------------------------------------
      1          6           0       -5.304736   -0.859519    0.211884
      2          6           0       -4.845050    0.231151    0.957304
      3          6           0       -3.529472    0.683003    0.817192
      4          6           0       -2.696946    0.017775   -0.081508
      5          6           0       -3.125433   -1.071674   -0.838337
      6          6           0       -4.444976   -1.506310   -0.681981
      7          1           0       -6.328248   -1.203842    0.327035
      8          1           0       -5.510525    0.735382    1.652242
      9          1           0       -3.147561    1.524903    1.381787
     10          1           0       -2.438593   -1.554032   -1.523173
     11          1           0       -4.799244   -2.353596   -1.262193
     12          7           0       -1.302104    0.487018   -0.238436
     13          8           0       -0.588456   -0.116174   -1.036874
     14          8           0       -0.948887    1.449118    0.439972
     15          6           0        4.243474   -0.477581   -0.100762
     16          6           0        3.989679   -1.778461    0.661657
     17          6           0        4.992369   -2.876872    0.306832
     18          1           0        4.202601   -0.678624   -1.180047
     19          1           0        5.262878   -0.127968    0.113673
     20          1           0        2.970576   -2.124782    0.446935
     21          1           0        4.030972   -1.574259    1.739252
     22          1           0        6.013259   -2.555754    0.537635
     23          1           0        4.946838   -3.109405   -0.762026
     24          1           0        4.792470   -3.797921    0.863221
     25          6           0        3.249219    0.630058    0.243212
     26          6           0        3.503013    1.930939   -0.519207
     27          6           0        2.500324    3.029350   -0.164382
     28          1           0        2.229814    0.280446    0.028776
     29          1           0        3.290092    0.831102    1.322497
     30          1           0        3.461721    1.726737   -1.596802
     31          1           0        4.522117    2.277260   -0.304485
     32          1           0        2.545856    3.261884    0.904476
     33          1           0        1.479435    2.708233   -0.395185
     34          1           0        2.700223    3.950400   -0.720770
 ---------------------------------------------------------------------

 SCF Done:  E(RHF) =  -669.537253776     A.U. after   15 cycles
 E2 =    -0.2092177921D+01 EUMP2 =    -0.67162943169740D+03

 The electronic state is 1-A.
 Alpha  occ. eigenvalues --  -20.61239 -20.61232 -15.86212 -11.31447 -11.27992
 Alpha  occ. eigenvalues --  -11.27986 -11.27712 -11.26974 -11.26964 -11.20534
 Alpha  occ. eigenvalues --  -11.20246 -11.20064 -11.19932 -11.19562 -11.19071
 Alpha  occ. eigenvalues --   -1.60259  -1.39818  -1.19599  -1.09023  -1.06971
 Alpha  occ. eigenvalues --   -1.04979  -1.02109  -0.95878  -0.94547  -0.86384
 Alpha  occ. eigenvalues --   -0.85565  -0.82714  -0.78233  -0.77781  -0.76708
 Alpha  occ. eigenvalues --   -0.72418  -0.71554  -0.70707  -0.65254  -0.64982
 Alpha  occ. eigenvalues --   -0.63600  -0.62325  -0.59510  -0.57993  -0.56152
 Alpha  occ. eigenvalues --   -0.55487  -0.53823  -0.53315  -0.53068  -0.51312
 Alpha  occ. eigenvalues --   -0.50965  -0.49283  -0.49210  -0.48402  -0.46497
 Alpha  occ. eigenvalues --   -0.45292  -0.45220  -0.44291  -0.43983  -0.42348
 Alpha  occ. eigenvalues --   -0.37572  -0.36574
 Alpha virt. eigenvalues --    0.04722   0.11084   0.16244   0.21221   0.24248
 Alpha virt. eigenvalues --    0.25794   0.27156   0.27973   0.28225   0.29007
 Alpha virt. eigenvalues --    0.29436   0.30821   0.32334   0.32811   0.32922

 Mulliken charges:
               1
     1  C   -0.170174
     2  C   -0.218623
     3  C   -0.170455
     4  C    0.158398
     5  C   -0.170416
     6  C   -0.218629
     7  H    0.226593
     8  H    0.224438
     9  H    0.276448
    10  H    0.276025
    11  H    0.224364
    12  N    0.488952
    13  O   -0.459576
    14  O   -0.456704
    15  C   -0.296670
    16  C   -0.299022
    17  C   -0.474725
    18  H    0.148219
    19  H    0.143956
    20  H    0.154007
    21  H    0.148940
    22  H    0.153096
    23  H    0.153839
    24  H    0.155943
    25  C   -0.306898
    26  C   -0.296581
    27  C   -0.484525
    28  H    0.174408
    29  H    0.143089
    30  H    0.149085
    31  H    0.142774
    32  H    0.148506
    33  H    0.183261
    34  H    0.148658
 Sum of Mulliken charges =  -0.00000

 Dipole moment (field-independent basis, Debye):
    X=             -5.5378    Y=             -1.7014    Z=              0.5168  Tot=              5.8163
 Quadrupole moment (field-independent basis, Debye-Ang):
   XX=            -70.5091   YY=            -94.2654   ZZ=            -92.6187
   XY=              4.3379   XZ=             -1.4151   YZ=              3.2734

 Normal termination of Gaussian 16 at Wed May  5 19:05:53 2021.
