 Gaussian 16, Revision A.03,
 Gaussian 16:  EM64L-G16RevA.03 25-Dec-2016

 -------------
 #p 6-31g* mp2
 -------------

 ------------------------------------------------------
 Input file generated by CHIRIPA (05-May-2021 14:51:14)
 ------------------------------------------------------
 Symbolic Z-matrix:
 Charge =  0 Multiplicity = 1

                         Standard orientation:
 ---------------------------------------------------------------------
 Center     Atomic      Atomic             Coordinates (Angstroms)
 Number     Number       Type             X           Y           Z
 ---------------------------------------------------------------------
      1          6           0       -3.082000    0.106468   -0.374787
      2          6           0       -2.894736   -1.318629    0.146766
      3          6           0       -3.714873   -2.346292   -0.633668
      4          1           0       -4.147080    0.371233   -0.325302
      5          1           0       -2.800342    0.140940   -1.436330
      6          1           0       -3.175348   -1.350097    1.207371
      7          1           0       -1.829952   -1.579964    0.096213
      8          1           0       -3.429797   -2.344223   -1.690705
      9          1           0       -4.782837   -2.113051   -0.573235
     10          1           0       -3.566043   -3.358205   -0.244128
     11          6           0       -2.268522    1.145197    0.395294
     12          6           0       -2.455787    2.570293   -0.126259
     13          6           0       -1.635649    3.597956    0.654175
     14          1           0       -2.550181    1.110724    1.456838
     15          1           0       -1.203442    0.880431    0.345810
     16          1           0       -3.520571    2.831628   -0.075706
     17          1           0       -2.175175    2.601761   -1.186863
     18          1           0       -0.567685    3.364715    0.593742
     19          1           0       -1.920726    3.595887    1.711213
     20          1           0       -1.784479    4.609869    0.264635
     21          6           0        3.218455   -0.119421    0.168409
     22          6           0        3.185183    1.137712   -0.701359
     23          6           0        4.277916    2.141301   -0.331848
     24          1           0        3.111816    0.169168    1.223061
     25          1           0        4.203525   -0.596851    0.073057
     26          1           0        2.199996    1.611871   -0.605470
     27          1           0        3.291722    0.846080   -1.754078
     28          1           0        5.269199    1.690644   -0.445273
     29          1           0        4.171271    2.460785    0.709861
     30          1           0        4.235749    3.032337   -0.965991
     31          6           0        2.132068   -1.132243   -0.188917
     32          6           0        2.165339   -2.389376    0.680852
     33          6           0        1.072607   -3.392965    0.311341
     34          1           0        1.146998   -0.654813   -0.093564
     35          1           0        2.238707   -1.420832   -1.243567
     36          1           0        2.058801   -2.097744    1.733571
     37          1           0        3.150527   -2.863535    0.584963
     38          1           0        1.179252   -3.712449   -0.730369
     39          1           0        0.081324   -2.942308    0.424765
     40          1           0        1.114774   -4.284001    0.945483
 ---------------------------------------------------------------------

 SCF Done:  E(RHF) =  -470.733361187     A.U. after   11 cycles
 E2 =    -0.1583657841D+01 EUMP2 =    -0.47231701902824D+03

 The electronic state is 1-A.
 Alpha  occ. eigenvalues --  -11.21653 -11.21638 -11.21625 -11.21619 -11.21454
 Alpha  occ. eigenvalues --  -11.21448 -11.21392 -11.21383 -11.21113 -11.21099
 Alpha  occ. eigenvalues --  -11.21071 -11.21066  -1.08485  -1.08453  -1.03580
 Alpha  occ. eigenvalues --   -1.03540  -0.96025  -0.95990  -0.87039  -0.87008
 Alpha  occ. eigenvalues --   -0.79682  -0.79572  -0.78364  -0.78209  -0.65239
 Alpha  occ. eigenvalues --   -0.64967  -0.61098  -0.60835  -0.59409  -0.59342
 Alpha  occ. eigenvalues --   -0.57696  -0.57551  -0.55398  -0.55195  -0.52699
 Alpha  occ. eigenvalues --   -0.52697  -0.52467  -0.52401  -0.50066  -0.49846
 Alpha  occ. eigenvalues --   -0.48089  -0.47831  -0.46846  -0.46484  -0.46187
 Alpha  occ. eigenvalues --   -0.45795  -0.45779  -0.45279  -0.43821  -0.43808
 Alpha virt. eigenvalues --    0.19381   0.22261   0.23613   0.24616   0.25252
 Alpha virt. eigenvalues --    0.26627   0.26994   0.27158   0.28114   0.29475
 Alpha virt. eigenvalues --    0.30985   0.31489   0.31700   0.31795   0.32001

 Mulliken charges:
               1
     1  C   -0.297189
     2  C   -0.309295
     3  C   -0.475410
     4  H    0.149922
     5  H    0.149889
     6  H    0.151852
     7  H    0.159783
     8  H    0.155455
     9  H    0.155238
    10  H    0.160814
    11  C   -0.302806
    12  C   -0.299552
    13  C   -0.476184
    14  H    0.149686
    15  H    0.152400
    16  H    0.152273
    17  H    0.152322
    18  H    0.155015
    19  H    0.155279
    20  H    0.160627
    21  C   -0.298124
    22  C   -0.300236
    23  C   -0.475761
    24  H    0.150037
    25  H    0.149955
    26  H    0.151305
    27  H    0.152108
    28  H    0.155363
    29  H    0.155475
    30  H    0.160455
    31  C   -0.303765
    32  C   -0.299036
    33  C   -0.483698
    34  H    0.153134
    35  H    0.149746
    36  H    0.152219
    37  H    0.152129
    38  H    0.155052
    39  H    0.162940
    40  H    0.160582
 Sum of Mulliken charges =  -0.00000

 Dipole moment (field-independent basis, Debye):
    X=             -0.0052    Y=             -0.0055    Z=             -0.0017  Tot=              0.0077
 Quadrupole moment (field-independent basis, Debye-Ang):
   XX=            -84.4711   YY=            -85.9520   ZZ=            -84.1384
   XY=             -1.4464   XZ=             -1.2788   YZ=             -0.1364

 Normal termination of Gaussian 16 at Wed May  5 15:23:02 2021.
