 Gaussian 16, Revision A.03,
 Gaussian 16:  EM64L-G16RevA.03 25-Dec-2016

 -------------
 #p 6-31g* mp2
 -------------

 ------------------------------------------------------
 Input file generated by CHIRIPA (05-May-2021 14:51:11)
 ------------------------------------------------------
 Symbolic Z-matrix:
 Charge =  0 Multiplicity = 1

                         Standard orientation:
 ---------------------------------------------------------------------
 Center     Atomic      Atomic             Coordinates (Angstroms)
 Number     Number       Type             X           Y           Z
 ---------------------------------------------------------------------
      1          6           0       -2.778481   -1.015654    0.441027
      2          6           0       -1.407023   -1.648858    0.204087
      3          6           0       -1.252400   -3.001704    0.899568
      4          1           0       -2.937657   -0.894519    1.521274
      5          1           0       -3.558393   -1.703112    0.085313
      6          1           0       -0.629874   -0.959816    0.558878
      7          1           0       -1.251014   -1.768323   -0.875731
      8          1           0       -2.006387   -3.708758    0.538765
      9          1           0       -1.381719   -2.895657    1.981525
     10          1           0       -0.264720   -3.436439    0.716939
     11          6           0       -2.948301    0.337224   -0.247892
     12          6           0       -4.319759    0.970428   -0.010952
     13          6           0       -4.474382    2.323274   -0.706433
     14          1           0       -2.168388    1.024682    0.107822
     15          1           0       -2.789125    0.216090   -1.328140
     16          1           0       -4.475768    1.089893    1.068865
     17          1           0       -5.096907    0.281386   -0.365743
     18          1           0       -4.345063    2.217227   -1.788390
     19          1           0       -3.720394    3.030328   -0.345630
     20          1           0       -5.462062    2.758010   -0.523805
     21          6           0        2.526837    1.002995    0.075363
     22          6           0        3.512198    2.163523    0.217568
     23          6           0        2.823815    3.484711    0.561641
     24          1           0        1.791101    1.248278   -0.702759
     25          1           0        1.964779    0.891381    1.012928
     26          1           0        4.073202    2.272029   -0.719510
     27          1           0        4.245787    1.915367    0.995309
     28          1           0        2.278585    3.400191    1.507252
     29          1           0        2.105019    3.758880   -0.217310
     30          1           0        3.546715    4.300721    0.658606
     31          6           0        3.199944   -0.324565   -0.268497
     32          6           0        2.214583   -1.485094   -0.410703
     33          6           0        2.902967   -2.806281   -0.754776
     34          1           0        3.762002   -0.212952   -1.206063
     35          1           0        3.935680   -0.569848    0.509625
     36          1           0        1.480994   -1.236938   -1.188444
     37          1           0        1.653579   -1.593600    0.526375
     38          1           0        3.621763   -3.080450    0.024176
     39          1           0        3.448197   -2.721761   -1.700388
     40          1           0        2.180068   -3.622292   -0.851741
 ---------------------------------------------------------------------

 SCF Done:  E(RHF) =  -470.732122788     A.U. after   11 cycles
 E2 =    -0.1584224755D+01 EUMP2 =    -0.47231634754329D+03

 The electronic state is 1-A.
 Alpha  occ. eigenvalues --  -11.21621 -11.21575 -11.21510 -11.21473 -11.21416
 Alpha  occ. eigenvalues --  -11.21355 -11.21343 -11.21288 -11.21093 -11.21068
 Alpha  occ. eigenvalues --  -11.21052 -11.21031  -1.08460  -1.08357  -1.03597
 Alpha  occ. eigenvalues --   -1.03424  -0.96017  -0.95916  -0.87014  -0.86949
 Alpha  occ. eigenvalues --   -0.79792  -0.79415  -0.78411  -0.77997  -0.65127
 Alpha  occ. eigenvalues --   -0.64963  -0.61046  -0.60791  -0.59663  -0.59087
 Alpha  occ. eigenvalues --   -0.57808  -0.57275  -0.55289  -0.55221  -0.52744
 Alpha  occ. eigenvalues --   -0.52584  -0.52447  -0.52314  -0.49938  -0.49878
 Alpha  occ. eigenvalues --   -0.48210  -0.47646  -0.46809  -0.46476  -0.46063
 Alpha  occ. eigenvalues --   -0.45815  -0.45541  -0.45234  -0.43808  -0.43702
 Alpha virt. eigenvalues --    0.21263   0.22935   0.23346   0.24663   0.25617
 Alpha virt. eigenvalues --    0.25876   0.26682   0.27173   0.28744   0.29410
 Alpha virt. eigenvalues --    0.30478   0.30664   0.31460   0.31649   0.32336

 Mulliken charges:
               1
     1  C   -0.298006
     2  C   -0.301240
     3  C   -0.480583
     4  H    0.149019
     5  H    0.148859
     6  H    0.156806
     7  H    0.151371
     8  H    0.155184
     9  H    0.154516
    10  H    0.163681
    11  C   -0.298397
    12  C   -0.299508
    13  C   -0.475708
    14  H    0.149918
    15  H    0.149035
    16  H    0.151867
    17  H    0.151849
    18  H    0.154965
    19  H    0.155246
    20  H    0.160167
    21  C   -0.299314
    22  C   -0.299535
    23  C   -0.475759
    24  H    0.150356
    25  H    0.148727
    26  H    0.152195
    27  H    0.152004
    28  H    0.154854
    29  H    0.155304
    30  H    0.160399
    31  C   -0.297967
    32  C   -0.303699
    33  C   -0.477580
    34  H    0.149229
    35  H    0.149205
    36  H    0.155071
    37  H    0.156562
    38  H    0.155010
    39  H    0.155170
    40  H    0.160727
 Sum of Mulliken charges =  -0.00000

 Dipole moment (field-independent basis, Debye):
    X=              0.0279    Y=              0.0072    Z=             -0.0091  Tot=              0.0302
 Quadrupole moment (field-independent basis, Debye-Ang):
   XX=            -85.0472   YY=            -86.6438   ZZ=            -83.3357
   XY=              0.7707   XZ=              0.3864   YZ=              0.3778

 Normal termination of Gaussian 16 at Thu May  6 07:02:11 2021.
