 Gaussian 16, Revision A.03,
 Gaussian 16:  EM64L-G16RevA.03 25-Dec-2016

 -------------
 #p 6-31g* mp2
 -------------

 ------------------------------------------------------
 Input file generated by CHIRIPA (05-May-2021 14:51:11)
 ------------------------------------------------------
 Symbolic Z-matrix:
 Charge =  0 Multiplicity = 1

                         Standard orientation:
 ---------------------------------------------------------------------
 Center     Atomic      Atomic             Coordinates (Angstroms)
 Number     Number       Type             X           Y           Z
 ---------------------------------------------------------------------
      1          6           0       -1.856543    1.133794    0.096718
      2          6           0       -2.072594    2.493899    0.761113
      3          6           0       -0.760224    3.194275    1.114597
      4          1           0       -1.267281    0.494332    0.768137
      5          1           0       -1.255534    1.269307   -0.813128
      6          1           0       -2.674187    2.356038    1.668690
      7          1           0       -2.661574    3.130133    0.088115
      8          1           0       -0.158134    3.360851    0.215519
      9          1           0       -0.170818    2.582358    1.805075
     10          1           0       -0.938012    4.164696    1.588448
     11          6           0       -3.159234    0.421329   -0.262610
     12          6           0       -2.943183   -0.938777   -0.927005
     13          6           0       -4.255554   -1.639153   -1.280490
     14          1           0       -3.760243    0.285815    0.647235
     15          1           0       -3.748497    1.060791   -0.934029
     16          1           0       -2.354203   -1.575010   -0.254007
     17          1           0       -2.341591   -0.800915   -1.834583
     18          1           0       -4.844960   -1.027235   -1.970967
     19          1           0       -4.857644   -1.805728   -0.381412
     20          1           0       -4.077766   -2.609574   -1.754340
     21          6           0        1.928449   -1.274326    0.052835
     22          6           0        1.579875   -1.882459    1.411752
     23          6           0        0.418745   -2.874282    1.335219
     24          1           0        1.041024   -0.771375   -0.355161
     25          1           0        2.180310   -2.081725   -0.648642
     26          1           0        1.330089   -1.074065    2.110838
     27          1           0        2.468287   -2.383857    1.816646
     28          1           0        0.661747   -3.700481    0.659240
     29          1           0       -0.482919   -2.383246    0.955104
     30          1           0        0.186340   -3.296910    2.317682
     31          6           0        3.087329   -0.280797    0.113057
     32          6           0        3.435902    0.327337   -1.245859
     33          6           0        4.597033    1.319159   -1.169326
     34          1           0        2.835468    0.526603    0.814533
     35          1           0        3.974754   -0.783748    0.521053
     36          1           0        2.547490    0.828735   -1.650755
     37          1           0        3.685689   -0.481057   -1.944946
     38          1           0        5.498697    0.828123   -0.789211
     39          1           0        4.354031    2.145358   -0.493348
     40          1           0        4.829438    1.741787   -2.151790
 ---------------------------------------------------------------------

 SCF Done:  E(RHF) =  -470.733285079     A.U. after   11 cycles
 E2 =    -0.1584053010D+01 EUMP2 =    -0.47231733808936D+03

 The electronic state is 1-A.
 Alpha  occ. eigenvalues --  -11.21685 -11.21641 -11.21591 -11.21568 -11.21496
 Alpha  occ. eigenvalues --  -11.21425 -11.21344 -11.21278 -11.21159 -11.21095
 Alpha  occ. eigenvalues --  -11.21061 -11.21040  -1.08516  -1.08382  -1.03596
 Alpha  occ. eigenvalues --   -1.03505  -0.96045  -0.95952  -0.87067  -0.86964
 Alpha  occ. eigenvalues --   -0.79680  -0.79555  -0.78388  -0.78141  -0.65216
 Alpha  occ. eigenvalues --   -0.64956  -0.61029  -0.60881  -0.59423  -0.59310
 Alpha  occ. eigenvalues --   -0.57675  -0.57543  -0.55331  -0.55247  -0.52736
 Alpha  occ. eigenvalues --   -0.52652  -0.52498  -0.52359  -0.50053  -0.49855
 Alpha  occ. eigenvalues --   -0.48052  -0.47842  -0.46812  -0.46552  -0.46122
 Alpha  occ. eigenvalues --   -0.45777  -0.45680  -0.45287  -0.43850  -0.43750
 Alpha virt. eigenvalues --    0.19816   0.22627   0.23686   0.24422   0.25229
 Alpha virt. eigenvalues --    0.26047   0.26777   0.28127   0.28356   0.29809
 Alpha virt. eigenvalues --    0.30823   0.31431   0.31738   0.31935   0.32125

 Mulliken charges:
               1
     1  C   -0.302895
     2  C   -0.299671
     3  C   -0.475996
     4  H    0.152920
     5  H    0.149848
     6  H    0.152372
     7  H    0.152492
     8  H    0.155107
     9  H    0.154763
    10  H    0.160875
    11  C   -0.297704
    12  C   -0.308814
    13  C   -0.475077
    14  H    0.149682
    15  H    0.150046
    16  H    0.160110
    17  H    0.152227
    18  H    0.155228
    19  H    0.155272
    20  H    0.160754
    21  C   -0.302549
    22  C   -0.298989
    23  C   -0.484621
    24  H    0.154986
    25  H    0.149026
    26  H    0.150873
    27  H    0.152024
    28  H    0.155597
    29  H    0.162528
    30  H    0.160011
    31  C   -0.298225
    32  C   -0.299471
    33  C   -0.475798
    34  H    0.149860
    35  H    0.149301
    36  H    0.151609
    37  H    0.151735
    38  H    0.155101
    39  H    0.155492
    40  H    0.159971
 Sum of Mulliken charges =  -0.00000

 Dipole moment (field-independent basis, Debye):
    X=             -0.0477    Y=              0.0155    Z=             -0.0118  Tot=              0.0515
 Quadrupole moment (field-independent basis, Debye-Ang):
   XX=            -85.7372   YY=            -84.9180   ZZ=            -84.0512
   XY=             -1.6581   XZ=             -0.3044   YZ=             -0.3546

 Normal termination of Gaussian 16 at Thu May  6 00:40:20 2021.
