 Gaussian 16, Revision A.03,
 Gaussian 16:  EM64L-G16RevA.03 25-Dec-2016

 -------------
 #p 6-31g* mp2
 -------------

 ------------------------------------------------------
 Input file generated by CHIRIPA (05-May-2021 14:51:14)
 ------------------------------------------------------
 Symbolic Z-matrix:
 Charge =  0 Multiplicity = 1

                         Standard orientation:
 ---------------------------------------------------------------------
 Center     Atomic      Atomic             Coordinates (Angstroms)
 Number     Number       Type             X           Y           Z
 ---------------------------------------------------------------------
      1          6           0        3.245140   -0.066343    0.459419
      2          6           0        2.016298    0.286750   -0.379186
      3          6           0        0.756251    0.471199    0.467014
      4          1           0        3.043365   -0.986540    1.024636
      5          1           0        3.413694    0.725931    1.201906
      6          1           0        1.850929   -0.505277   -1.120780
      7          1           0        2.221092    1.206108   -0.942619
      8          1           0        0.896656    1.274980    1.196961
      9          1           0        0.524390   -0.446129    1.017788
     10          1           0       -0.110100    0.723084   -0.152543
     11          6           0        4.512691   -0.253916   -0.372361
     12          6           0        5.741533   -0.607009    0.466244
     13          6           0        7.001580   -0.791457   -0.379955
     14          1           0        4.344137   -1.046189   -1.114848
     15          1           0        4.714466    0.666281   -0.937578
     16          1           0        5.536740   -1.526367    1.029677
     17          1           0        5.906902    0.185018    1.207839
     18          1           0        7.233441    0.125870   -0.930729
     19          1           0        6.861175   -1.595238   -1.109903
     20          1           0        7.867931   -1.043342    0.239601
     21          6           0       -4.235301   -0.405806   -0.412499
     22          6           0       -4.845689   -1.449828    0.523145
     23          6           0       -5.555187   -2.575625   -0.229841
     24          1           0       -5.026995    0.016983   -1.046072
     25          1           0       -3.524559   -0.900613   -1.088817
     26          1           0       -5.554039   -0.952976    1.198418
     27          1           0       -4.052481   -1.870044    1.154697
     28          1           0       -4.855767   -3.097367   -0.891050
     29          1           0       -6.365856   -2.175089   -0.847081
     30          1           0       -5.984131   -3.310758    0.458235
     31          6           0       -3.522530    0.726065    0.325441
     32          6           0       -2.912143    1.770087   -0.610204
     33          6           0       -2.202644    2.895883    0.142782
     34          1           0       -4.233272    1.220871    1.001760
     35          1           0       -2.730837    0.303276    0.959014
     36          1           0       -3.705350    2.190302   -1.241756
     37          1           0       -2.203792    1.273235   -1.285476
     38          1           0       -1.391975    2.495348    0.760023
     39          1           0       -2.902064    3.417626    0.803992
     40          1           0       -1.773702    3.631017   -0.545293
 ---------------------------------------------------------------------

 SCF Done:  E(RHF) =  -470.732144008     A.U. after   11 cycles
 E2 =    -0.1583671935D+01 EUMP2 =    -0.47231581594307D+03

 The electronic state is 1-A.
 Alpha  occ. eigenvalues --  -11.21646 -11.21620 -11.21576 -11.21572 -11.21433
 Alpha  occ. eigenvalues --  -11.21373 -11.21362 -11.21298 -11.21099 -11.21085
 Alpha  occ. eigenvalues --  -11.21054 -11.20921  -1.08468  -1.08390  -1.03605
 Alpha  occ. eigenvalues --   -1.03461  -0.96068  -0.95892  -0.87073  -0.86926
 Alpha  occ. eigenvalues --   -0.79661  -0.79538  -0.78278  -0.78200  -0.65101
 Alpha  occ. eigenvalues --   -0.65070  -0.61142  -0.60929  -0.59321  -0.59245
 Alpha  occ. eigenvalues --   -0.57614  -0.57544  -0.55479  -0.55086  -0.52691
 Alpha  occ. eigenvalues --   -0.52620  -0.52436  -0.52316  -0.50127  -0.49698
 Alpha  occ. eigenvalues --   -0.47966  -0.47850  -0.46714  -0.46524  -0.45840
 Alpha  occ. eigenvalues --   -0.45747  -0.45730  -0.45644  -0.43796  -0.43712
 Alpha virt. eigenvalues --    0.21342   0.23026   0.23836   0.25110   0.26086
 Alpha virt. eigenvalues --    0.26474   0.26725   0.27720   0.27923   0.29038
 Alpha virt. eigenvalues --    0.30340   0.31015   0.31470   0.31774   0.32315

 Mulliken charges:
               1
     1  C   -0.298862
     2  C   -0.299359
     3  C   -0.484684
     4  H    0.149601
     5  H    0.149766
     6  H    0.151678
     7  H    0.152451
     8  H    0.155697
     9  H    0.154568
    10  H    0.170868
    11  C   -0.298282
    12  C   -0.299651
    13  C   -0.475719
    14  H    0.149511
    15  H    0.149760
    16  H    0.151936
    17  H    0.152000
    18  H    0.155232
    19  H    0.155187
    20  H    0.160321
    21  C   -0.298101
    22  C   -0.299618
    23  C   -0.475675
    24  H    0.149491
    25  H    0.149249
    26  H    0.151896
    27  H    0.151961
    28  H    0.155067
    29  H    0.155139
    30  H    0.160143
    31  C   -0.300340
    32  C   -0.302995
    33  C   -0.481476
    34  H    0.149592
    35  H    0.152584
    36  H    0.153090
    37  H    0.151047
    38  H    0.163101
    39  H    0.154643
    40  H    0.159183
 Sum of Mulliken charges =  -0.00000

 Dipole moment (field-independent basis, Debye):
    X=              0.0322    Y=             -0.0038    Z=              0.0162  Tot=              0.0363
 Quadrupole moment (field-independent basis, Debye-Ang):
   XX=            -85.3710   YY=            -84.4012   ZZ=            -85.1877
   XY=             -0.4971   XZ=              0.2031   YZ=             -0.2838

 Normal termination of Gaussian 16 at Thu May  6 05:37:59 2021.
