 Gaussian 16, Revision A.03,
 Gaussian 16:  EM64L-G16RevA.03 25-Dec-2016

 -------------
 #p 6-31g* mp2
 -------------

 ------------------------------------------------------
 Input file generated by CHIRIPA (05-May-2021 14:57:27)
 ------------------------------------------------------
 Symbolic Z-matrix:
 Charge =  0 Multiplicity = 1

                         Standard orientation:
 ---------------------------------------------------------------------
 Center     Atomic      Atomic             Coordinates (Angstroms)
 Number     Number       Type             X           Y           Z
 ---------------------------------------------------------------------
      1          6           0       -1.482483    1.352753   -0.731629
      2          6           0       -1.409841    0.485178    0.363157
      3          6           0       -2.524758   -0.264157    0.750462
      4          6           0       -3.701624   -0.120668    0.017191
      5          6           0       -3.805410    0.735304   -1.078177
      6          6           0       -2.677928    1.474832   -1.447540
      7          1           0       -0.611508    1.931046   -1.025529
      8          1           0       -0.482754    0.388348    0.920991
      9          1           0       -2.496238   -0.943231    1.593945
     10          1           0       -4.743401    0.810525   -1.614771
     11          1           0       -2.737248    2.147824   -2.298192
     12          7           0       -4.888587   -0.908764    0.417716
     13          8           0       -5.913736   -0.764364   -0.244746
     14          8           0       -4.771306   -1.655952    1.386526
     15          6           0        2.616799    2.136992    1.033209
     16          6           0        2.422898    1.855885   -0.323222
     17          6           0        2.911224    0.669815   -0.879391
     18          6           0        3.591962   -0.216708   -0.046346
     19          6           0        3.801154    0.034915    1.308723
     20          6           0        3.304097    1.227215    1.843424
     21          1           0        2.234065    3.060780    1.456915
     22          1           0        1.889507    2.560589   -0.954831
     23          1           0        2.775234    0.427085   -1.926294
     24          1           0        4.336796   -0.686973    1.913193
     25          1           0        3.456163    1.442896    2.897180
     26          7           0        4.113553   -1.475644   -0.623774
     27          8           0        4.709965   -2.240289    0.131374
     28          8           0        3.916086   -1.673916   -1.820575
 ---------------------------------------------------------------------

 SCF Done:  E(RHF) =  -868.337070669     A.U. after   16 cycles
 E2 =    -0.2600825132D+01 EUMP2 =    -0.87093789580110D+03

 The electronic state is 1-A.
 Alpha  occ. eigenvalues --  -20.61528 -20.61522 -20.60936 -20.60930 -15.86593
 Alpha  occ. eigenvalues --  -15.85990 -11.32200 -11.31429 -11.28866 -11.28784
 Alpha  occ. eigenvalues --  -11.28642 -11.27997 -11.27986 -11.27975 -11.27817
 Alpha  occ. eigenvalues --  -11.27816 -11.27073 -11.27000  -1.60599  -1.60008
 Alpha  occ. eigenvalues --   -1.40145  -1.39560  -1.20434  -1.19607  -1.09779
 Alpha  occ. eigenvalues --   -1.09006  -1.05872  -1.05012  -0.96555  -0.95832
 Alpha  occ. eigenvalues --   -0.87251  -0.86412  -0.83389  -0.82652  -0.78389
 Alpha  occ. eigenvalues --   -0.77671  -0.72804  -0.72208  -0.71930  -0.71499
 Alpha  occ. eigenvalues --   -0.71331  -0.70799  -0.66072  -0.65875  -0.65263
 Alpha  occ. eigenvalues --   -0.65017  -0.63195  -0.62354  -0.56352  -0.55612
 Alpha  occ. eigenvalues --   -0.54199  -0.53916  -0.53348  -0.53078  -0.49583
 Alpha  occ. eigenvalues --   -0.49543  -0.48972  -0.48958  -0.45497  -0.44949
 Alpha  occ. eigenvalues --   -0.38434  -0.37672  -0.37436  -0.36605
 Alpha virt. eigenvalues --    0.04151   0.04854   0.10039   0.11036   0.15499
 Alpha virt. eigenvalues --    0.16320   0.19028   0.21776   0.24883   0.26935
 Alpha virt. eigenvalues --    0.27381   0.28655   0.29701   0.31293   0.32186

 Mulliken charges:
               1
     1  C   -0.171502
     2  C   -0.221678
     3  C   -0.170543
     4  C    0.159323
     5  C   -0.170581
     6  C   -0.218573
     7  H    0.216111
     8  H    0.226898
     9  H    0.276555
    10  H    0.276404
    11  H    0.222723
    12  N    0.487971
    13  O   -0.459731
    14  O   -0.459434
    15  C   -0.174585
    16  C   -0.226665
    17  C   -0.169749
    18  C    0.158463
    19  C   -0.169521
    20  C   -0.220428
    21  H    0.229140
    22  H    0.219688
    23  H    0.278594
    24  H    0.279853
    25  H    0.228005
    26  N    0.488124
    27  O   -0.457097
    28  O   -0.457765
 Sum of Mulliken charges =  -0.00000

 Dipole moment (field-independent basis, Debye):
    X=              2.5812    Y=              7.0409    Z=              0.7212  Tot=              7.5337
 Quadrupole moment (field-independent basis, Debye-Ang):
   XX=           -146.8643   YY=           -107.6209   ZZ=            -98.4891
   XY=              3.7328   XZ=             17.1245   YZ=             -3.3706

 Normal termination of Gaussian 16 at Thu May  6 22:58:30 2021.
