 Gaussian 16, Revision A.03,
 Gaussian 16:  EM64L-G16RevA.03 25-Dec-2016

 -------------
 #p 6-31g* mp2
 -------------

 ------------------------------------------------------
 Input file generated by CHIRIPA (05-May-2021 14:57:25)
 ------------------------------------------------------
 Symbolic Z-matrix:
 Charge =  0 Multiplicity = 1

                         Standard orientation:
 ---------------------------------------------------------------------
 Center     Atomic      Atomic             Coordinates (Angstroms)
 Number     Number       Type             X           Y           Z
 ---------------------------------------------------------------------
      1          6           0       -1.202135    0.245564    1.556380
      2          6           0       -1.736355    1.385133    0.946041
      3          6           0       -2.953122    1.319169    0.260715
      4          6           0       -3.611909    0.091892    0.205209
      5          6           0       -3.105435   -1.061076    0.803071
      6          6           0       -1.887173   -0.971757    1.483076
      7          1           0       -0.256340    0.305878    2.086692
      8          1           0       -1.206541    2.331856    1.001349
      9          1           0       -3.389446    2.185867   -0.220819
     10          1           0       -3.656709   -1.990753    0.730854
     11          1           0       -1.474676   -1.858388    1.956127
     12          7           0       -4.900838    0.009697   -0.517499
     13          8           0       -5.461703   -1.083408   -0.551976
     14          8           0       -5.325829    1.039934   -1.035796
     15          6           0        5.758571    0.497424    0.336860
     16          6           0        5.368817   -0.844733    0.280066
     17          6           0        4.064303   -1.190413   -0.085029
     18          6           0        3.171410   -0.163722   -0.388241
     19          6           0        3.529555    1.182671   -0.340827
     20          6           0        4.839317    1.505067    0.026778
     21          1           0        6.773988    0.756913    0.621449
     22          1           0        6.080597   -1.629386    0.520349
     23          1           0        3.735941   -2.221377   -0.137087
     24          1           0        2.797620    1.942677   -0.585936
     25          1           0        5.139215    2.548251    0.070037
     26          7           0        1.787601   -0.517353   -0.776078
     27          8           0        1.019872    0.405885   -1.038496
     28          8           0        1.496903   -1.711069   -0.810305
 ---------------------------------------------------------------------

 SCF Done:  E(RHF) =  -868.337491122     A.U. after   16 cycles
 E2 =    -0.2600677383D+01 EUMP2 =    -0.87093816850515D+03

 The electronic state is 1-A.
 Alpha  occ. eigenvalues --  -20.61527 -20.61502 -20.59785 -20.59780 -15.86539
 Alpha  occ. eigenvalues --  -15.84832 -11.31901 -11.29986 -11.28473 -11.28439
 Alpha  occ. eigenvalues --  -11.28156 -11.27451 -11.27429 -11.26540 -11.26536
 Alpha  occ. eigenvalues --  -11.26314 -11.25558 -11.25536  -1.60585  -1.58863
 Alpha  occ. eigenvalues --   -1.40141  -1.38424  -1.20062  -1.18132  -1.09453
 Alpha  occ. eigenvalues --   -1.07586  -1.05453  -1.03526  -0.96292  -0.94467
 Alpha  occ. eigenvalues --   -0.86850  -0.84958  -0.83121  -0.81320  -0.78184
 Alpha  occ. eigenvalues --   -0.76378  -0.72764  -0.71949  -0.71149  -0.71066
 Alpha  occ. eigenvalues --   -0.70175  -0.69330  -0.65705  -0.65440  -0.63825
 Alpha  occ. eigenvalues --   -0.63583  -0.62799  -0.60918  -0.55932  -0.54127
 Alpha  occ. eigenvalues --   -0.53796  -0.53535  -0.51840  -0.51673  -0.49527
 Alpha  occ. eigenvalues --   -0.49480  -0.47825  -0.47803  -0.45550  -0.43878
 Alpha  occ. eigenvalues --   -0.38044  -0.37061  -0.36007  -0.35060
 Alpha virt. eigenvalues --    0.04312   0.06178   0.10591   0.12579   0.15850
 Alpha virt. eigenvalues --    0.17713   0.20772   0.22370   0.26676   0.27601
 Alpha virt. eigenvalues --    0.28391   0.29084   0.30446   0.31691   0.32051

 Mulliken charges:
               1
     1  C   -0.160463
     2  C   -0.203963
     3  C   -0.171143
     4  C    0.159011
     5  C   -0.169881
     6  C   -0.211625
     7  H    0.215170
     8  H    0.216204
     9  H    0.271247
    10  H    0.272350
    11  H    0.220291
    12  N    0.488282
    13  O   -0.463151
    14  O   -0.463760
    15  C   -0.170591
    16  C   -0.218264
    17  C   -0.171784
    18  C    0.156383
    19  C   -0.173173
    20  C   -0.218210
    21  H    0.227860
    22  H    0.225573
    23  H    0.276340
    24  H    0.273698
    25  H    0.225005
    26  N    0.486143
    27  O   -0.458344
    28  O   -0.459206
 Sum of Mulliken charges =  -0.00000

 Dipole moment (field-independent basis, Debye):
    X=              9.7674    Y=              1.4871    Z=              3.8287  Tot=             10.5959
 Quadrupole moment (field-independent basis, Debye-Ang):
   XX=           -108.0436   YY=            -95.8345   ZZ=           -106.3914
   XY=              1.7968   XZ=             -5.5984   YZ=             -2.2877

 Normal termination of Gaussian 16 at Thu May  6 13:05:57 2021.
