 Gaussian 16, Revision A.03,
 Gaussian 16:  EM64L-G16RevA.03 25-Dec-2016

 -------------
 #p 6-31g* mp2
 -------------

 ------------------------------------------------------
 Input file generated by CHIRIPA (05-May-2021 14:55:21)
 ------------------------------------------------------
 Symbolic Z-matrix:
 Charge =  0 Multiplicity = 1

                         Standard orientation:
 ---------------------------------------------------------------------
 Center     Atomic      Atomic             Coordinates (Angstroms)
 Number     Number       Type             X           Y           Z
 ---------------------------------------------------------------------
      1          6           0       -1.485099    1.743175   -1.073869
      2          6           0       -1.083294    0.415685   -1.255101
      3          6           0       -1.879304   -0.636507   -0.792706
      4          6           0       -3.076381   -0.323601   -0.150534
      5          6           0       -3.503985    0.988706    0.045154
      6          6           0       -2.692034    2.024952   -0.425463
      7          1           0       -0.860548    2.554349   -1.436262
      8          1           0       -0.146474    0.193879   -1.758306
      9          1           0       -1.592306   -1.673296   -0.919667
     10          1           0       -4.443137    1.178468    0.550526
     11          1           0       -3.006604    3.054945   -0.283317
     12          7           0       -3.927519   -1.429069    0.343336
     13          8           0       -4.977685   -1.126934    0.905921
     14          8           0       -3.528358   -2.576736    0.158493
     15          6           0        4.314256   -0.057615   -0.169296
     16          6           0        5.067476   -1.278288    0.360424
     17          6           0        6.176799   -1.743781   -0.583246
     18          1           0        3.885179   -0.297393   -1.151815
     19          1           0        5.027247    0.762617   -0.331339
     20          1           0        4.353065   -2.095534    0.522729
     21          1           0        5.494647   -1.035640    1.341882
     22          1           0        6.911505   -0.946786   -0.736891
     23          1           0        5.763436   -2.012702   -1.560699
     24          1           0        6.702234   -2.617427   -0.185098
     25          6           0        3.202170    0.419617    0.763035
     26          6           0        2.448950    1.640290    0.233315
     27          6           0        1.339626    2.105783    1.176985
     28          1           0        2.489178   -0.400615    0.925077
     29          1           0        3.631247    0.659393    1.745554
     30          1           0        2.021777    1.397641   -0.748144
     31          1           0        3.163360    2.457536    0.071010
     32          1           0        1.752990    2.374704    2.154437
     33          1           0        0.604920    1.308788    1.330629
     34          1           0        0.814191    2.979428    0.778837
 ---------------------------------------------------------------------

 SCF Done:  E(RHF) =  -669.534820460     A.U. after   15 cycles
 E2 =    -0.2092809143D+01 EUMP2 =    -0.67162762960299D+03

 The electronic state is 1-A.
 Alpha  occ. eigenvalues --  -20.60777 -20.60772 -15.85832 -11.31199 -11.27790
 Alpha  occ. eigenvalues --  -11.27781 -11.27514 -11.26779 -11.26768 -11.22423
 Alpha  occ. eigenvalues --  -11.22038 -11.22009 -11.21929 -11.21681 -11.21437
 Alpha  occ. eigenvalues --   -1.59853  -1.39407  -1.19386  -1.09041  -1.08769
 Alpha  occ. eigenvalues --   -1.04793  -1.04105  -0.96540  -0.95601  -0.87547
 Alpha  occ. eigenvalues --   -0.86187  -0.82440  -0.80183  -0.78835  -0.77487
 Alpha  occ. eigenvalues --   -0.72051  -0.71178  -0.70500  -0.65712  -0.65033
 Alpha  occ. eigenvalues --   -0.64776  -0.62165  -0.61477  -0.59934  -0.58158
 Alpha  occ. eigenvalues --   -0.55855  -0.55285  -0.53334  -0.52984  -0.52945
 Alpha  occ. eigenvalues --   -0.52870  -0.50431  -0.48814  -0.48805  -0.48483
 Alpha  occ. eigenvalues --   -0.47220  -0.46376  -0.46290  -0.44812  -0.44370
 Alpha  occ. eigenvalues --   -0.37293  -0.36390
 Alpha virt. eigenvalues --    0.05040   0.11162   0.16483   0.19535   0.22668
 Alpha virt. eigenvalues --    0.24124   0.25099   0.26398   0.26611   0.28194
 Alpha virt. eigenvalues --    0.28821   0.30032   0.31112   0.31582   0.32203

 Mulliken charges:
               1
     1  C   -0.165207
     2  C   -0.219855
     3  C   -0.172320
     4  C    0.158206
     5  C   -0.170571
     6  C   -0.219649
     7  H    0.226486
     8  H    0.224489
     9  H    0.275521
    10  H    0.275798
    11  H    0.223538
    12  N    0.488131
    13  O   -0.460352
    14  O   -0.460606
    15  C   -0.297911
    16  C   -0.300249
    17  C   -0.475962
    18  H    0.145647
    19  H    0.150611
    20  H    0.153085
    21  H    0.153650
    22  H    0.155572
    23  H    0.154720
    24  H    0.162325
    25  C   -0.299214
    26  C   -0.300520
    27  C   -0.476035
    28  H    0.150720
    29  H    0.153238
    30  H    0.139939
    31  H    0.153863
    32  H    0.157824
    33  H    0.163793
    34  H    0.151295
 Sum of Mulliken charges =  -0.00000

 Dipole moment (field-independent basis, Debye):
    X=              3.0633    Y=              3.8720    Z=             -1.6487  Tot=              5.2052
 Quadrupole moment (field-independent basis, Debye-Ang):
   XX=           -111.2460   YY=            -95.3555   ZZ=            -94.4411
   XY=            -15.0488   XZ=              4.6633   YZ=              1.3367

 Normal termination of Gaussian 16 at Thu May  6 09:19:32 2021.
