 Gaussian 16, Revision A.03,
 Gaussian 16:  EM64L-G16RevA.03 25-Dec-2016

 -------------
 #p 6-31g* mp2
 -------------

 ------------------------------------------------------
 Input file generated by CHIRIPA (05-May-2021 14:51:11)
 ------------------------------------------------------
 Symbolic Z-matrix:
 Charge =  0 Multiplicity = 1

                         Standard orientation:
 ---------------------------------------------------------------------
 Center     Atomic      Atomic             Coordinates (Angstroms)
 Number     Number       Type             X           Y           Z
 ---------------------------------------------------------------------
      1          6           0        3.076139    0.852901    0.106176
      2          6           0        2.212414    2.037481    0.540611
      3          6           0        3.040616    3.218265    1.048178
      4          1           0        3.697093    0.529992    0.952989
      5          1           0        3.768197    1.181990   -0.681320
      6          1           0        1.521243    1.705920    1.326083
      7          1           0        1.593304    2.357486   -0.307278
      8          1           0        3.719332    3.576645    0.267467
      9          1           0        3.646861    2.921377    1.910109
     10          1           0        2.403220    4.053974    1.353430
     11          6           0        2.262552   -0.335302   -0.403705
     12          6           0        3.126277   -1.519882   -0.838140
     13          6           0        2.298075   -2.700666   -1.345706
     14          1           0        1.570493   -0.664390    0.383792
     15          1           0        1.641598   -0.012392   -1.250517
     16          1           0        3.745386   -1.839886    0.009750
     17          1           0        3.817448   -1.188321   -1.623612
     18          1           0        1.691830   -2.403778   -2.207637
     19          1           0        1.619359   -3.059045   -0.564995
     20          1           0        2.935471   -3.536374   -1.650958
     21          6           0       -2.598416    0.376610   -0.269154
     22          6           0       -3.887763    1.194242   -0.353093
     23          6           0       -3.729966    2.462410   -1.192524
     24          1           0       -1.801822    1.002558    0.155785
     25          1           0       -2.276338    0.107535   -1.284664
     26          1           0       -4.208064    1.460517    0.662347
     27          1           0       -4.681429    0.566215   -0.777704
     28          1           0       -3.433448    2.212314   -2.216307
     29          1           0       -2.957393    3.111697   -0.768073
     30          1           0       -4.663546    3.031716   -1.239194
     31          6           0       -2.740275   -0.894210    0.566683
     32          6           0       -1.450927   -1.711841    0.650622
     33          6           0       -1.608725   -2.980010    1.490052
     34          1           0       -3.062352   -0.625134    1.582192
     35          1           0       -3.536869   -1.520158    0.141744
     36          1           0       -0.657261   -1.083815    1.075233
     37          1           0       -1.130627   -1.978117   -0.364819
     38          1           0       -2.381298   -3.629297    1.065601
     39          1           0       -1.905243   -2.729913    2.513835
     40          1           0       -0.675145   -3.549315    1.536722
 ---------------------------------------------------------------------

 SCF Done:  E(RHF) =  -470.733067230     A.U. after   11 cycles
 E2 =    -0.1583830176D+01 EUMP2 =    -0.47231689740622D+03

 The electronic state is 1-A.
 Alpha  occ. eigenvalues --  -11.21623 -11.21585 -11.21576 -11.21552 -11.21379
 Alpha  occ. eigenvalues --  -11.21371 -11.21319 -11.21280 -11.21088 -11.21087
 Alpha  occ. eigenvalues --  -11.21062 -11.21058  -1.08442  -1.08381  -1.03550
 Alpha  occ. eigenvalues --   -1.03494  -0.95977  -0.95964  -0.87005  -0.86968
 Alpha  occ. eigenvalues --   -0.79683  -0.79512  -0.78404  -0.78025  -0.65120
 Alpha  occ. eigenvalues --   -0.64976  -0.60943  -0.60911  -0.59427  -0.59253
 Alpha  occ. eigenvalues --   -0.57618  -0.57543  -0.55303  -0.55216  -0.52684
 Alpha  occ. eigenvalues --   -0.52657  -0.52466  -0.52332  -0.49971  -0.49861
 Alpha  occ. eigenvalues --   -0.48103  -0.47770  -0.46696  -0.46592  -0.46173
 Alpha  occ. eigenvalues --   -0.45769  -0.45611  -0.45148  -0.43776  -0.43758
 Alpha virt. eigenvalues --    0.20869   0.22557   0.23438   0.24291   0.25370
 Alpha virt. eigenvalues --    0.26084   0.26568   0.27473   0.28619   0.29963
 Alpha virt. eigenvalues --    0.30546   0.31390   0.31495   0.31714   0.32316

 Mulliken charges:
               1
     1  C   -0.297942
     2  C   -0.300238
     3  C   -0.475627
     4  H    0.149268
     5  H    0.149434
     6  H    0.150757
     7  H    0.152621
     8  H    0.155466
     9  H    0.155201
    10  H    0.160076
    11  C   -0.304389
    12  C   -0.299292
    13  C   -0.478107
    14  H    0.157297
    15  H    0.149719
    16  H    0.151472
    17  H    0.151685
    18  H    0.154749
    19  H    0.158195
    20  H    0.159951
    21  C   -0.299037
    22  C   -0.299591
    23  C   -0.475696
    24  H    0.151002
    25  H    0.149264
    26  H    0.151835
    27  H    0.151865
    28  H    0.154958
    29  H    0.155265
    30  H    0.160185
    31  C   -0.297970
    32  C   -0.305173
    33  C   -0.476954
    34  H    0.149068
    35  H    0.149493
    36  H    0.155679
    37  H    0.154867
    38  H    0.155658
    39  H    0.155020
    40  H    0.159967
 Sum of Mulliken charges =  -0.00000

 Dipole moment (field-independent basis, Debye):
    X=             -0.0027    Y=             -0.0020    Z=             -0.0064  Tot=              0.0073
 Quadrupole moment (field-independent basis, Debye-Ang):
   XX=            -85.0365   YY=            -86.2102   ZZ=            -83.6837
   XY=             -0.2066   XZ=              0.0141   YZ=              0.2614

 Normal termination of Gaussian 16 at Wed May  5 15:13:23 2021.
