 Gaussian 16, Revision A.03,
 Gaussian 16:  EM64L-G16RevA.03 25-Dec-2016

 -------------
 #p 6-31g* mp2
 -------------

 ------------------------------------------------------
 Input file generated by CHIRIPA (05-May-2021 14:53:15)
 ------------------------------------------------------
 Symbolic Z-matrix:
 Charge =  0 Multiplicity = 1

                         Standard orientation:
 ---------------------------------------------------------------------
 Center     Atomic      Atomic             Coordinates (Angstroms)
 Number     Number       Type             X           Y           Z
 ---------------------------------------------------------------------
      1          6           0       -3.437299    0.896870    0.442250
      2          6           0       -3.052490    2.162655   -0.324362
      3          6           0       -2.674933    3.321280    0.599127
      4          1           0       -4.278337    1.122887    1.111964
      5          1           0       -2.598113    0.596360    1.084789
      6          1           0       -3.891641    2.459903   -0.966301
      7          1           0       -2.212395    1.933551   -0.992469
      8          1           0       -1.822921    3.048877    1.230374
      9          1           0       -3.511708    3.578220    1.256691
     10          1           0       -2.403355    4.215990    0.030269
     11          6           0       -3.817299   -0.270244   -0.467240
     12          6           0       -4.202107   -1.536029    0.299372
     13          6           0       -4.579664   -2.694654   -0.624117
     14          1           0       -4.656485    0.030266   -1.109779
     15          1           0       -2.976261   -0.496261   -1.136954
     16          1           0       -5.042203   -1.306925    0.967479
     17          1           0       -3.362956   -1.833277    0.941311
     18          1           0       -3.742889   -2.951594   -1.281681
     19          1           0       -5.431677   -2.422251   -1.255364
     20          1           0       -4.851242   -3.589364   -0.055258
     21          6           0        0.387779   -0.812131    0.256492
     22          6           0        1.363277   -1.742198    0.630522
     23          6           0        2.721538   -1.438611    0.498196
     24          6           0        3.070302   -0.189926   -0.014091
     25          6           0        2.121915    0.757888   -0.395537
     26          6           0        0.769538    0.432749   -0.254443
     27          1           0       -0.665067   -1.056336    0.362692
     28          1           0        1.069720   -2.709763    1.027620
     29          1           0        3.497496   -2.139963    0.780001
     30          1           0        2.445337    1.714238   -0.788234
     31          1           0        0.014129    1.157009   -0.545731
     32          7           0        4.505118    0.142876   -0.158820
     33          8           0        4.786385    1.249865   -0.612805
     34          8           0        5.321290   -0.709564    0.184467
 ---------------------------------------------------------------------

 SCF Done:  E(RHF) =  -669.535187815     A.U. after   15 cycles
 E2 =    -0.2092827831D+01 EUMP2 =    -0.67162801564595D+03

 The electronic state is 1-A.
 Alpha  occ. eigenvalues --  -20.60747 -20.60742 -15.85800 -11.31169 -11.27738
 Alpha  occ. eigenvalues --  -11.27731 -11.27460 -11.26750 -11.26722 -11.22821
 Alpha  occ. eigenvalues --  -11.22763 -11.22633 -11.22565 -11.22047 -11.22015
 Alpha  occ. eigenvalues --   -1.59823  -1.39376  -1.19339  -1.09648  -1.08731
 Alpha  occ. eigenvalues --   -1.04752  -1.04640  -0.97065  -0.95569  -0.88071
 Alpha  occ. eigenvalues --   -0.86143  -0.82404  -0.80710  -0.79442  -0.77452
 Alpha  occ. eigenvalues --   -0.72019  -0.71146  -0.70497  -0.66394  -0.64985
 Alpha  occ. eigenvalues --   -0.64683  -0.62314  -0.61825  -0.60422  -0.58668
 Alpha  occ. eigenvalues --   -0.56423  -0.55178  -0.53720  -0.53462  -0.53072
 Alpha  occ. eigenvalues --   -0.52836  -0.51006  -0.49006  -0.48774  -0.48771
 Alpha  occ. eigenvalues --   -0.47772  -0.46946  -0.46933  -0.44911  -0.44781
 Alpha  occ. eigenvalues --   -0.37316  -0.36345
 Alpha virt. eigenvalues --    0.05071   0.11249   0.16526   0.17488   0.21711
 Alpha virt. eigenvalues --    0.23666   0.25174   0.25524   0.26739   0.28072
 Alpha virt. eigenvalues --    0.29533   0.30473   0.30769   0.31186   0.32683

 Mulliken charges:
               1
     1  C   -0.302884
     2  C   -0.304338
     3  C   -0.478458
     4  H    0.156472
     5  H    0.144902
     6  H    0.158941
     7  H    0.144885
     8  H    0.155747
     9  H    0.160067
    10  H    0.164021
    11  C   -0.302425
    12  C   -0.301585
    13  C   -0.476307
    14  H    0.156306
    15  H    0.145626
    16  H    0.157285
    17  H    0.145109
    18  H    0.154807
    19  H    0.159052
    20  H    0.163269
    21  C   -0.180181
    22  C   -0.219721
    23  C   -0.170777
    24  C    0.158766
    25  C   -0.172260
    26  C   -0.227767
    27  H    0.234860
    28  H    0.223611
    29  H    0.275510
    30  H    0.276183
    31  H    0.234196
    32  N    0.487964
    33  O   -0.460367
    34  O   -0.460511
 Sum of Mulliken charges =  -0.00000

 Dipole moment (field-independent basis, Debye):
    X=             -5.3551    Y=             -1.1059    Z=              0.5167  Tot=              5.4924
 Quadrupole moment (field-independent basis, Debye-Ang):
   XX=           -123.7591   YY=            -90.6558   ZZ=            -95.1504
   XY=             -4.6840   XZ=              1.9990   YZ=             -2.3890

 Normal termination of Gaussian 16 at Thu May  6 17:10:41 2021.
