 Gaussian 16, Revision A.03,
 Gaussian 16:  EM64L-G16RevA.03 25-Dec-2016

 -------------
 #p 6-31g* mp2
 -------------

 ------------------------------------------------------
 Input file generated by CHIRIPA (05-May-2021 14:55:20)
 ------------------------------------------------------
 Symbolic Z-matrix:
 Charge =  0 Multiplicity = 1

                         Standard orientation:
 ---------------------------------------------------------------------
 Center     Atomic      Atomic             Coordinates (Angstroms)
 Number     Number       Type             X           Y           Z
 ---------------------------------------------------------------------
      1          6           0        4.045129    1.340409    0.394390
      2          6           0        3.369243    0.761786    1.473694
      3          6           0        2.388423   -0.210888    1.258183
      4          6           0        2.107476   -0.582956   -0.055561
      5          6           0        2.763493   -0.024970   -1.151729
      6          6           0        3.740634    0.945880   -0.912572
      7          1           0        4.805624    2.095297    0.570989
      8          1           0        3.603644    1.066240    2.489769
      9          1           0        1.849835   -0.675170    2.075363
     10          1           0        2.507972   -0.348940   -2.153312
     11          1           0        4.263927    1.393534   -1.752699
     12          7           0        1.071073   -1.611717   -0.296229
     13          8           0        0.842014   -1.922223   -1.463172
     14          8           0        0.507425   -2.088074    0.686634
     15          6           0       -2.794454   -0.183699   -0.225504
     16          6           0       -3.502484   -1.245012    0.617286
     17          6           0       -3.249316   -2.666059    0.112978
     18          1           0       -3.129282   -0.269314   -1.268339
     19          1           0       -1.714521   -0.386530   -0.226305
     20          1           0       -4.580610   -1.039438    0.617631
     21          1           0       -3.166075   -1.156738    1.658272
     22          1           0       -2.178946   -2.895528    0.128937
     23          1           0       -3.601518   -2.777562   -0.917616
     24          1           0       -3.764745   -3.408775    0.729878
     25          6           0       -3.037963    1.242014    0.266199
     26          6           0       -2.329933    2.303327   -0.576591
     27          6           0       -2.583101    3.724374   -0.072282
     28          1           0       -4.117895    1.444844    0.267000
     29          1           0       -2.703134    1.327628    1.309034
     30          1           0       -2.666341    2.215052   -1.617577
     31          1           0       -1.251807    2.097753   -0.576937
     32          1           0       -2.230898    3.835876    0.958310
     33          1           0       -3.653470    3.953842   -0.088243
     34          1           0       -2.067671    4.467088   -0.689184
 ---------------------------------------------------------------------

 SCF Done:  E(RHF) =  -669.536505831     A.U. after   15 cycles
 E2 =    -0.2092848408D+01 EUMP2 =    -0.67162935423918D+03

 The electronic state is 1-A.
 Alpha  occ. eigenvalues --  -20.61131 -20.61123 -15.86116 -11.31397 -11.27948
 Alpha  occ. eigenvalues --  -11.27941 -11.27670 -11.26934 -11.26923 -11.21189
 Alpha  occ. eigenvalues --  -11.20819 -11.20714 -11.20376 -11.20293 -11.19311
 Alpha  occ. eigenvalues --   -1.60174  -1.39728  -1.19553  -1.08969  -1.07591
 Alpha  occ. eigenvalues --   -1.04937  -1.02617  -0.95820  -0.95055  -0.86340
 Alpha  occ. eigenvalues --   -0.86071  -0.82654  -0.78769  -0.77717  -0.77322
 Alpha  occ. eigenvalues --   -0.72340  -0.71497  -0.70658  -0.65207  -0.64938
 Alpha  occ. eigenvalues --   -0.64221  -0.62283  -0.60007  -0.58533  -0.56652
 Alpha  occ. eigenvalues --   -0.55444  -0.54330  -0.53273  -0.53026  -0.51784
 Alpha  occ. eigenvalues --   -0.51467  -0.49284  -0.49103  -0.48842  -0.47025
 Alpha  occ. eigenvalues --   -0.45805  -0.45235  -0.44852  -0.44571  -0.42888
 Alpha  occ. eigenvalues --   -0.37527  -0.36532
 Alpha virt. eigenvalues --    0.04777   0.11123   0.16264   0.21253   0.23548
 Alpha virt. eigenvalues --    0.25371   0.27174   0.27226   0.28047   0.28279
 Alpha virt. eigenvalues --    0.29042   0.30888   0.32246   0.32375   0.32498

 Mulliken charges:
               1
     1  C   -0.170184
     2  C   -0.218594
     3  C   -0.170821
     4  C    0.157165
     5  C   -0.170417
     6  C   -0.218624
     7  H    0.226500
     8  H    0.224254
     9  H    0.276006
    10  H    0.276419
    11  H    0.224333
    12  N    0.487198
    13  O   -0.456244
    14  O   -0.458761
    15  C   -0.298621
    16  C   -0.295653
    17  C   -0.487601
    18  H    0.148624
    19  H    0.154541
    20  H    0.144735
    21  H    0.149387
    22  H    0.186866
    23  H    0.149330
    24  H    0.151809
    25  C   -0.297848
    26  C   -0.298008
    27  C   -0.474748
    28  H    0.147666
    29  H    0.146419
    30  H    0.152297
    31  H    0.147405
    32  H    0.152805
    33  H    0.155381
    34  H    0.156985
 Sum of Mulliken charges =  -0.00000

 Dipole moment (field-independent basis, Debye):
    X=              4.0051    Y=              3.4718    Z=              0.8000  Tot=              5.3605
 Quadrupole moment (field-independent basis, Debye-Ang):
   XX=            -80.1392   YY=           -101.1947   ZZ=            -89.6832
   XY=              5.8629   XZ=              1.3947   YZ=             -1.3540

 Normal termination of Gaussian 16 at Thu May  6 01:23:56 2021.
