 Gaussian 16, Revision A.03,
 Gaussian 16:  EM64L-G16RevA.03 25-Dec-2016

 -------------
 #p 6-31g* mp2
 -------------

 ------------------------------------------------------
 Input file generated by CHIRIPA (05-May-2021 14:55:22)
 ------------------------------------------------------
 Symbolic Z-matrix:
 Charge =  0 Multiplicity = 1

                         Standard orientation:
 ---------------------------------------------------------------------
 Center     Atomic      Atomic             Coordinates (Angstroms)
 Number     Number       Type             X           Y           Z
 ---------------------------------------------------------------------
      1          6           0        6.140338    1.173066    0.138058
      2          6           0        4.977395    1.948743    0.088966
      3          6           0        3.721989    1.340892   -0.006022
      4          6           0        3.666101   -0.051315   -0.049917
      5          6           0        4.806646   -0.851465   -0.002916
      6          6           0        6.051408   -0.222103    0.092041
      7          1           0        7.111433    1.653614    0.211835
      8          1           0        5.043433    3.032449    0.124522
      9          1           0        2.805685    1.917285   -0.045713
     10          1           0        4.708933   -1.929647   -0.040263
     11          1           0        6.952889   -0.827031    0.129990
     12          7           0        2.342693   -0.706207   -0.150461
     13          8           0        2.320373   -1.934524   -0.187526
     14          8           0        1.352785    0.021208   -0.190297
     15          6           0       -4.411405   -0.435103    0.414024
     16          6           0       -3.135082   -0.587879   -0.414014
     17          6           0       -2.023167   -1.315319    0.342473
     18          1           0       -4.177844    0.109972    1.338841
     19          1           0       -4.764054   -1.430305    0.718335
     20          1           0       -2.785711    0.407232   -0.717838
     21          1           0       -3.371746   -1.132486   -1.337057
     22          1           0       -2.347828   -2.319913    0.632279
     23          1           0       -1.758464   -0.771446    1.255017
     24          1           0       -1.120074   -1.413552   -0.267963
     25          6           0       -5.532186    0.290158   -0.328656
     26          6           0       -6.808508    0.442936    0.499381
     27          6           0       -7.920423    1.170375   -0.257106
     28          1           0       -5.179536    1.285360   -0.632969
     29          1           0       -5.765746   -0.254916   -1.253474
     30          1           0       -6.571845    0.987542    1.422425
     31          1           0       -7.157879   -0.552175    0.803206
     32          1           0       -8.185127    0.626502   -1.169649
     33          1           0       -7.595762    2.174969   -0.546912
     34          1           0       -8.823516    1.268608    0.353331
 ---------------------------------------------------------------------

 SCF Done:  E(RHF) =  -669.536264349     A.U. after   15 cycles
 E2 =    -0.2091036378D+01 EUMP2 =    -0.67162730072739D+03

 The electronic state is 1-A.
 Alpha  occ. eigenvalues --  -20.60993 -20.60984 -15.86003 -11.31320 -11.27878
 Alpha  occ. eigenvalues --  -11.27874 -11.27614 -11.26882 -11.26873 -11.20950
 Alpha  occ. eigenvalues --  -11.20561 -11.20543 -11.20317 -11.20176 -11.19055
 Alpha  occ. eigenvalues --   -1.60039  -1.39596  -1.19484  -1.08891  -1.07450
 Alpha  occ. eigenvalues --   -1.04878  -1.02425  -0.95736  -0.94840  -0.86279
 Alpha  occ. eigenvalues --   -0.85856  -0.82566  -0.78545  -0.77623  -0.77211
 Alpha  occ. eigenvalues --   -0.72217  -0.71348  -0.70592  -0.65139  -0.64881
 Alpha  occ. eigenvalues --   -0.64098  -0.62225  -0.59839  -0.58297  -0.56430
 Alpha  occ. eigenvalues --   -0.55381  -0.54160  -0.53210  -0.52970  -0.51517
 Alpha  occ. eigenvalues --   -0.51290  -0.48996  -0.48975  -0.48740  -0.46808
 Alpha  occ. eigenvalues --   -0.45625  -0.45010  -0.44747  -0.44660  -0.42614
 Alpha  occ. eigenvalues --   -0.37463  -0.36478
 Alpha virt. eigenvalues --    0.04911   0.11177   0.16414   0.21316   0.23750
 Alpha virt. eigenvalues --    0.25496   0.27233   0.27553   0.28200   0.28403
 Alpha virt. eigenvalues --    0.29231   0.30881   0.32416   0.32447   0.32628

 Mulliken charges:
               1
     1  C   -0.170544
     2  C   -0.218551
     3  C   -0.170786
     4  C    0.158286
     5  C   -0.170712
     6  C   -0.218588
     7  H    0.226071
     8  H    0.223888
     9  H    0.275811
    10  H    0.275971
    11  H    0.223914
    12  N    0.488600
    13  O   -0.459116
    14  O   -0.458606
    15  C   -0.296927
    16  C   -0.299813
    17  C   -0.478559
    18  H    0.147300
    19  H    0.147177
    20  H    0.151128
    21  H    0.147379
    22  H    0.144974
    23  H    0.150702
    24  H    0.187844
    25  C   -0.297187
    26  C   -0.298772
    27  C   -0.475088
    28  H    0.147788
    29  H    0.148217
    30  H    0.150631
    31  H    0.151015
    32  H    0.154421
    33  H    0.154019
    34  H    0.158116
 Sum of Mulliken charges =  -0.00000

 Dipole moment (field-independent basis, Debye):
    X=              5.1227    Y=              2.3031    Z=              0.3134  Tot=              5.6254
 Quadrupole moment (field-independent basis, Debye-Ang):
   XX=            -62.2999   YY=            -90.6162   ZZ=            -95.9107
   XY=              6.8366   XZ=              0.9593   YZ=              0.4963

 Normal termination of Gaussian 16 at Thu May  6 17:33:12 2021.
