 Gaussian 16, Revision A.03,
 Gaussian 16:  EM64L-G16RevA.03 25-Dec-2016

 -------------
 #p 6-31g* mp2
 -------------

 ------------------------------------------------------
 Input file generated by CHIRIPA (05-May-2021 14:57:24)
 ------------------------------------------------------
 Symbolic Z-matrix:
 Charge =  0 Multiplicity = 1

                         Standard orientation:
 ---------------------------------------------------------------------
 Center     Atomic      Atomic             Coordinates (Angstroms)
 Number     Number       Type             X           Y           Z
 ---------------------------------------------------------------------
      1          6           0       -3.587319   -1.938842    0.198197
      2          6           0       -4.014706   -0.721411    0.738311
      3          6           0       -3.385218    0.474345    0.379900
      4          6           0       -2.326763    0.415672   -0.525374
      5          6           0       -1.877858   -0.781542   -1.080760
      6          6           0       -2.522136   -1.964976   -0.708017
      7          1           0       -4.082065   -2.862948    0.482187
      8          1           0       -4.841681   -0.698097    1.442310
      9          1           0       -3.695715    1.430731    0.782811
     10          1           0       -1.050747   -0.772977   -1.780212
     11          1           0       -2.188086   -2.908992   -1.129073
     12          7           0       -1.652523    1.675043   -0.912394
     13          8           0       -0.722337    1.596498   -1.711908
     14          8           0       -2.067006    2.716836   -0.408899
     15          6           0        4.337702   -0.511280   -1.170807
     16          6           0        3.307277   -1.455407   -1.112753
     17          6           0        2.249630   -1.297615   -0.212179
     18          6           0        2.254219   -0.178803    0.619402
     19          6           0        3.266289    0.779238    0.585317
     20          6           0        4.313960    0.601069   -0.323081
     21          1           0        5.155433   -0.641771   -1.873433
     22          1           0        3.323103   -2.320247   -1.769903
     23          1           0        1.439056   -2.013188   -0.146275
     24          1           0        3.222988    1.631070    1.253094
     25          1           0        5.112854    1.335898   -0.365970
     26          7           0        1.139815   -0.000969    1.576941
     27          8           0        1.167096    0.993388    2.298846
     28          8           0        0.260167   -0.859308    1.587424
 ---------------------------------------------------------------------

 SCF Done:  E(RHF) =  -868.337730830     A.U. after   16 cycles
 E2 =    -0.2601878242D+01 EUMP2 =    -0.87093960907193D+03

 The electronic state is 1-A.
 Alpha  occ. eigenvalues --  -20.60652 -20.60638 -20.60157 -20.60111 -15.85662
 Alpha  occ. eigenvalues --  -15.85175 -11.30947 -11.30299 -11.27591 -11.27452
 Alpha  occ. eigenvalues --  -11.27245 -11.26988 -11.26870 -11.26666 -11.26575
 Alpha  occ. eigenvalues --  -11.26473 -11.25960 -11.25864  -1.59715  -1.59210
 Alpha  occ. eigenvalues --   -1.39271  -1.38773  -1.19105  -1.18477  -1.08524
 Alpha  occ. eigenvalues --   -1.07939  -1.04518  -1.03902  -0.95382  -0.94815
 Alpha  occ. eigenvalues --   -0.85925  -0.85334  -0.82228  -0.81682  -0.77290
 Alpha  occ. eigenvalues --   -0.76743  -0.71909  -0.71419  -0.71133  -0.70411
 Alpha  occ. eigenvalues --   -0.70251  -0.69685  -0.64783  -0.64548  -0.64193
 Alpha  occ. eigenvalues --   -0.63977  -0.61897  -0.61302  -0.55034  -0.54464
 Alpha  occ. eigenvalues --   -0.52819  -0.52635  -0.52152  -0.52058  -0.48690
 Alpha  occ. eigenvalues --   -0.48639  -0.48183  -0.48146  -0.44690  -0.44223
 Alpha  occ. eigenvalues --   -0.37062  -0.36393  -0.36102  -0.35401
 Alpha virt. eigenvalues --    0.05216   0.05834   0.11465   0.12259   0.16762
 Alpha virt. eigenvalues --    0.17319   0.21344   0.22196   0.26875   0.27935
 Alpha virt. eigenvalues --    0.28663   0.29172   0.31171   0.31517   0.32675

 Mulliken charges:
               1
     1  C   -0.166852
     2  C   -0.215920
     3  C   -0.164339
     4  C    0.164352
     5  C   -0.163296
     6  C   -0.214244
     7  H    0.222309
     8  H    0.221216
     9  H    0.274683
    10  H    0.266255
    11  H    0.215164
    12  N    0.486920
    13  O   -0.469146
    14  O   -0.458218
    15  C   -0.169373
    16  C   -0.217350
    17  C   -0.172420
    18  C    0.164233
    19  C   -0.166051
    20  C   -0.216894
    21  H    0.225080
    22  H    0.220036
    23  H    0.267601
    24  H    0.277476
    25  H    0.224182
    26  N    0.486036
    27  O   -0.456390
    28  O   -0.465050
 Sum of Mulliken charges =  -0.00000

 Dipole moment (field-independent basis, Debye):
    X=              1.6105    Y=             -4.8680    Z=             -1.7900  Tot=              5.4309
 Quadrupole moment (field-independent basis, Debye-Ang):
   XX=            -73.7631   YY=           -104.3642   ZZ=           -109.6148
   XY=              7.8395   XZ=             -9.0587   YZ=              6.5736

 Normal termination of Gaussian 16 at Fri May  7 00:22:16 2021.
