 Gaussian 16, Revision A.03,
 Gaussian 16:  EM64L-G16RevA.03 25-Dec-2016

 -------------
 #p 6-31g* mp2
 -------------

 ------------------------------------------------------
 Input file generated by CHIRIPA (05-May-2021 14:57:25)
 ------------------------------------------------------
 Symbolic Z-matrix:
 Charge =  0 Multiplicity = 1

                         Standard orientation:
 ---------------------------------------------------------------------
 Center     Atomic      Atomic             Coordinates (Angstroms)
 Number     Number       Type             X           Y           Z
 ---------------------------------------------------------------------
      1          6           0       -4.845738    1.246348    0.456873
      2          6           0       -4.283405    0.515403    1.508549
      3          6           0       -3.272301   -0.418420    1.263209
      4          6           0       -2.845609   -0.596734   -0.051868
      5          6           0       -3.386091    0.116185   -1.120940
      6          6           0       -4.396079    1.044762   -0.852207
      7          1           0       -5.630755    1.969726    0.656546
      8          1           0       -4.630645    0.669873    2.526197
      9          1           0       -2.819506   -0.997829    2.058620
     10          1           0       -3.019173   -0.059757   -2.124849
     11          1           0       -4.830965    1.611005   -1.670918
     12          7           0       -1.775789   -1.582554   -0.323982
     13          8           0       -1.417409   -1.721111   -1.491459
     14          8           0       -1.315900   -2.198015    0.635366
     15          6           0        4.937071   -1.183486    0.291719
     16          6           0        5.175681    0.194593    0.313687
     17          6           0        4.122158    1.100170    0.156940
     18          6           0        2.836779    0.590657   -0.020503
     19          6           0        2.567009   -0.776754   -0.046969
     20          6           0        3.635790   -1.663914    0.111778
     21          1           0        5.761399   -1.879806    0.414260
     22          1           0        6.185243    0.570554    0.453261
     23          1           0        4.278614    2.171978    0.169907
     24          1           0        1.549790   -1.121465   -0.187894
     25          1           0        3.447519   -2.733632    0.094294
     26          7           0        1.713385    1.539602   -0.187503
     27          8           0        0.590112    1.065337   -0.342320
     28          8           0        1.977413    2.739682   -0.160418
 ---------------------------------------------------------------------

 SCF Done:  E(RHF) =  -868.341301831     A.U. after   16 cycles
 E2 =    -0.2599532521D+01 EUMP2 =    -0.87094083435183D+03

 The electronic state is 1-A.
 Alpha  occ. eigenvalues --  -20.60457 -20.60412 -20.60304 -20.60296 -15.85451
 Alpha  occ. eigenvalues --  -15.85348 -11.30486 -11.30432 -11.27088 -11.27076
 Alpha  occ. eigenvalues --  -11.27021 -11.26813 -11.26800 -11.26777 -11.26063
 Alpha  occ. eigenvalues --  -11.26056 -11.26013 -11.25885  -1.59480  -1.59372
 Alpha  occ. eigenvalues --   -1.39045  -1.38933  -1.18641  -1.18612  -1.08114
 Alpha  occ. eigenvalues --   -1.08077  -1.04029  -1.03960  -0.95005  -0.94943
 Alpha  occ. eigenvalues --   -0.85449  -0.85383  -0.81870  -0.81782  -0.76935
 Alpha  occ. eigenvalues --   -0.76842  -0.71699  -0.71670  -0.70684  -0.70628
 Alpha  occ. eigenvalues --   -0.69814  -0.69727  -0.64335  -0.64270  -0.64080
 Alpha  occ. eigenvalues --   -0.63963  -0.61402  -0.61274  -0.54601  -0.54522
 Alpha  occ. eigenvalues --   -0.52345  -0.52329  -0.52155  -0.52030  -0.48463
 Alpha  occ. eigenvalues --   -0.48443  -0.48331  -0.48304  -0.44595  -0.44332
 Alpha  occ. eigenvalues --   -0.36638  -0.36586  -0.35595  -0.35555
 Alpha virt. eigenvalues --    0.05547   0.05709   0.12064   0.12090   0.17122
 Alpha virt. eigenvalues --    0.17186   0.22022   0.22277   0.27966   0.28185
 Alpha virt. eigenvalues --    0.28826   0.29221   0.31462   0.31816   0.33173

 Mulliken charges:
               1
     1  C   -0.169256
     2  C   -0.218472
     3  C   -0.168694
     4  C    0.168755
     5  C   -0.163140
     6  C   -0.218072
     7  H    0.223620
     8  H    0.220726
     9  H    0.272051
    10  H    0.275233
    11  H    0.222028
    12  N    0.493253
    13  O   -0.462252
    14  O   -0.471861
    15  C   -0.170569
    16  C   -0.219992
    17  C   -0.171620
    18  C    0.154947
    19  C   -0.173052
    20  C   -0.221889
    21  H    0.223378
    22  H    0.220105
    23  H    0.272065
    24  H    0.294448
    25  H    0.228051
    26  N    0.490021
    27  O   -0.465561
    28  O   -0.464251
 Sum of Mulliken charges =  -0.00000

 Dipole moment (field-independent basis, Debye):
    X=              0.0217    Y=              0.0699    Z=              1.4409  Tot=              1.4428
 Quadrupole moment (field-independent basis, Debye-Ang):
   XX=            -60.8893   YY=           -111.0911   ZZ=           -101.1118
   XY=            -13.0753   XZ=             -0.2409   YZ=             -1.1575

 Normal termination of Gaussian 16 at Fri May  7 09:38:28 2021.
