 Gaussian 16, Revision A.03,
 Gaussian 16:  EM64L-G16RevA.03 25-Dec-2016

 -------------
 #p 6-31g* mp2
 -------------

 ------------------------------------------------------
 Input file generated by CHIRIPA (05-May-2021 14:51:08)
 ------------------------------------------------------
 Symbolic Z-matrix:
 Charge =  0 Multiplicity = 1

                         Standard orientation:
 ---------------------------------------------------------------------
 Center     Atomic      Atomic             Coordinates (Angstroms)
 Number     Number       Type             X           Y           Z
 ---------------------------------------------------------------------
      1          6           0       -4.131826   -0.297312   -0.348229
      2          6           0       -5.616479   -0.455140   -0.018261
      3          6           0       -6.425449   -1.017229   -1.187627
      4          1           0       -4.024671    0.361908   -1.220521
      5          1           0       -3.722902   -1.273872   -0.642350
      6          1           0       -6.022156    0.521163    0.276483
      7          1           0       -5.720102   -1.113908    0.853464
      8          1           0       -6.048004   -2.002832   -1.478696
      9          1           0       -6.351774   -0.358471   -2.058955
     10          1           0       -7.483996   -1.121854   -0.929960
     11          6           0       -3.309902    0.263558    0.810905
     12          6           0       -1.825248    0.421386    0.480936
     13          6           0       -1.016278    0.983475    1.650303
     14          1           0       -3.718826    1.240118    1.105025
     15          1           0       -3.417056   -0.395662    1.683196
     16          1           0       -1.721625    1.080154   -0.390788
     17          1           0       -1.419571   -0.554917    0.186192
     18          1           0       -1.089954    0.324718    2.521630
     19          1           0       -1.393724    1.969079    1.941371
     20          1           0        0.042269    1.088100    1.392636
     21          6           0        3.782384    0.695448   -0.576574
     22          6           0        2.768357    1.724605   -0.076004
     23          6           0        2.903996    3.077083   -0.776146
     24          1           0        4.797649    1.087443   -0.426502
     25          1           0        3.655474    0.562899   -1.659957
     26          1           0        2.896220    1.854149    1.006348
     27          1           0        1.755393    1.330033   -0.227109
     28          1           0        2.755284    2.968814   -1.855388
     29          1           0        3.902593    3.495907   -0.614922
     30          1           0        2.169576    3.797718   -0.403090
     31          6           0        3.659343   -0.661694    0.113899
     32          6           0        4.673370   -1.690852   -0.386672
     33          6           0        4.537731   -3.043329    0.313471
     34          1           0        3.786253   -0.529146    1.197282
     35          1           0        2.644078   -1.053690   -0.036173
     36          1           0        5.686334   -1.296279   -0.235566
     37          1           0        4.545508   -1.820395   -1.469023
     38          1           0        3.539135   -3.462153    0.152247
     39          1           0        4.686443   -2.935060    1.392712
     40          1           0        5.272151   -3.763964   -0.059587
 ---------------------------------------------------------------------

 SCF Done:  E(RHF) =  -470.733230484     A.U. after   11 cycles
 E2 =    -0.1582623764D+01 EUMP2 =    -0.47231585424715D+03

 The electronic state is 1-A.
 Alpha  occ. eigenvalues --  -11.21625 -11.21613 -11.21599 -11.21594 -11.21423
 Alpha  occ. eigenvalues --  -11.21399 -11.21363 -11.21339 -11.21091 -11.21080
 Alpha  occ. eigenvalues --  -11.21071 -11.20964  -1.08455  -1.08417  -1.03563
 Alpha  occ. eigenvalues --   -1.03501  -0.96000  -0.95952  -0.87027  -0.86960
 Alpha  occ. eigenvalues --   -0.79653  -0.79548  -0.78272  -0.78236  -0.65085
 Alpha  occ. eigenvalues --   -0.65051  -0.60968  -0.60904  -0.59517  -0.59202
 Alpha  occ. eigenvalues --   -0.57683  -0.57491  -0.55283  -0.55237  -0.52757
 Alpha  occ. eigenvalues --   -0.52624  -0.52442  -0.52347  -0.49934  -0.49896
 Alpha  occ. eigenvalues --   -0.48050  -0.47771  -0.46641  -0.46610  -0.45800
 Alpha  occ. eigenvalues --   -0.45767  -0.45724  -0.45704  -0.43824  -0.43705
 Alpha virt. eigenvalues --    0.21671   0.23093   0.23581   0.24693   0.26365
 Alpha virt. eigenvalues --    0.26645   0.26708   0.27590   0.27964   0.28977
 Alpha virt. eigenvalues --    0.30775   0.31255   0.31437   0.31796   0.32057

 Mulliken charges:
               1
     1  C   -0.298273
     2  C   -0.299651
     3  C   -0.475700
     4  H    0.149542
     5  H    0.149347
     6  H    0.151953
     7  H    0.151968
     8  H    0.155134
     9  H    0.155147
    10  H    0.160263
    11  C   -0.298073
    12  C   -0.299695
    13  C   -0.483552
    14  H    0.149610
    15  H    0.149784
    16  H    0.151474
    17  H    0.151065
    18  H    0.154766
    19  H    0.154541
    20  H    0.168910
    21  C   -0.297614
    22  C   -0.305918
    23  C   -0.475497
    24  H    0.149758
    25  H    0.149569
    26  H    0.152438
    27  H    0.157602
    28  H    0.155166
    29  H    0.155328
    30  H    0.160636
    31  C   -0.298758
    32  C   -0.299622
    33  C   -0.475702
    34  H    0.149684
    35  H    0.149687
    36  H    0.152029
    37  H    0.151978
    38  H    0.155127
    39  H    0.155261
    40  H    0.160290
 Sum of Mulliken charges =  -0.00000

 Dipole moment (field-independent basis, Debye):
    X=              0.0362    Y=              0.0085    Z=             -0.0058  Tot=              0.0377
 Quadrupole moment (field-independent basis, Debye-Ang):
   XX=            -84.8236   YY=            -84.9900   ZZ=            -84.9194
   XY=             -0.1950   XZ=              0.0099   YZ=              0.0127

 Normal termination of Gaussian 16 at Wed May  5 18:06:39 2021.
