 Gaussian 16, Revision A.03,
 Gaussian 16:  EM64L-G16RevA.03 25-Dec-2016

 -------------
 #p 6-31g* mp2
 -------------

 ------------------------------------------------------
 Input file generated by CHIRIPA (05-May-2021 14:53:17)
 ------------------------------------------------------
 Symbolic Z-matrix:
 Charge =  0 Multiplicity = 1

                         Standard orientation:
 ---------------------------------------------------------------------
 Center     Atomic      Atomic             Coordinates (Angstroms)
 Number     Number       Type             X           Y           Z
 ---------------------------------------------------------------------
      1          6           0        3.801758   -0.245605    0.214203
      2          6           0        3.218378   -1.629584   -0.072599
      3          6           0        1.718435   -1.709620    0.212985
      4          1           0        3.612672    0.014504    1.264696
      5          1           0        3.271594    0.501132   -0.393008
      6          1           0        3.750414   -2.373667    0.533944
      7          1           0        3.409042   -1.886510   -1.122481
      8          1           0        1.170117   -0.989058   -0.402432
      9          1           0        1.513429   -1.478983    1.263404
     10          1           0        1.322117   -2.707580    0.001161
     11          6           0        5.300349   -0.149819   -0.066470
     12          6           0        5.883728    1.234160    0.220331
     13          6           0        7.383672    1.314197   -0.065253
     14          1           0        5.830513   -0.896556    0.540740
     15          1           0        5.489434   -0.409928   -1.116963
     16          1           0        5.693064    1.491086    1.270213
     17          1           0        5.351692    1.978243   -0.386211
     18          1           0        7.588677    1.083559   -1.115672
     19          1           0        7.931989    0.593634    0.550165
     20          1           0        7.779990    2.312156    0.146572
     21          6           0       -3.023881   -2.310670   -0.137803
     22          6           0       -4.285293   -1.880033    0.286356
     23          6           0       -4.590900   -0.516650    0.334718
     24          6           0       -3.606906    0.392782   -0.049965
     25          6           0       -2.340988   -0.005057   -0.477123
     26          6           0       -2.057458   -1.373460   -0.517519
     27          1           0       -2.795053   -3.371729   -0.172279
     28          1           0       -5.037784   -2.605632    0.581837
     29          1           0       -5.559376   -0.155721    0.659067
     30          1           0       -1.611452    0.741971   -0.765473
     31          1           0       -1.076983   -1.705012   -0.847349
     32          7           0       -3.918752    1.838793   -0.002982
     33          8           0       -3.034474    2.619981   -0.347123
     34          8           0       -5.041550    2.163606    0.377095
 ---------------------------------------------------------------------

 SCF Done:  E(RHF) =  -669.535259115     A.U. after   15 cycles
 E2 =    -0.2091180678D+01 EUMP2 =    -0.67162643979289D+03

 The electronic state is 1-A.
 Alpha  occ. eigenvalues --  -20.60701 -20.60696 -15.85752 -11.31098 -11.27661
 Alpha  occ. eigenvalues --  -11.27645 -11.27384 -11.26681 -11.26584 -11.22295
 Alpha  occ. eigenvalues --  -11.22113 -11.21866 -11.21834 -11.21716 -11.21252
 Alpha  occ. eigenvalues --   -1.59777  -1.39331  -1.19260  -1.08892  -1.08659
 Alpha  occ. eigenvalues --   -1.04661  -1.04041  -0.96522  -0.95501  -0.87562
 Alpha  occ. eigenvalues --   -0.86050  -0.82336  -0.80122  -0.78657  -0.77380
 Alpha  occ. eigenvalues --   -0.71972  -0.71099  -0.70375  -0.65529  -0.64911
 Alpha  occ. eigenvalues --   -0.64672  -0.62072  -0.61394  -0.59914  -0.58096
 Alpha  occ. eigenvalues --   -0.55825  -0.55156  -0.53357  -0.53019  -0.52931
 Alpha  occ. eigenvalues --   -0.52599  -0.50437  -0.48728  -0.48727  -0.48419
 Alpha  occ. eigenvalues --   -0.47119  -0.46209  -0.46104  -0.44741  -0.44278
 Alpha  occ. eigenvalues --   -0.37241  -0.36250
 Alpha virt. eigenvalues --    0.05140   0.11373   0.16615   0.20498   0.22576
 Alpha virt. eigenvalues --    0.23884   0.25639   0.26419   0.26944   0.27907
 Alpha virt. eigenvalues --    0.28978   0.30580   0.30785   0.31274   0.32177

 Mulliken charges:
               1
     1  C   -0.299464
     2  C   -0.299723
     3  C   -0.479195
     4  H    0.151830
     5  H    0.150686
     6  H    0.154600
     7  H    0.152854
     8  H    0.148777
     9  H    0.162365
    10  H    0.155378
    11  C   -0.298804
    12  C   -0.300264
    13  C   -0.476030
    14  H    0.149996
    15  H    0.149975
    16  H    0.153055
    17  H    0.153433
    18  H    0.155347
    19  H    0.155209
    20  H    0.161785
    21  C   -0.172515
    22  C   -0.218392
    23  C   -0.171521
    24  C    0.158613
    25  C   -0.173217
    26  C   -0.221269
    27  H    0.225104
    28  H    0.222886
    29  H    0.275170
    30  H    0.274450
    31  H    0.232265
    32  N    0.488125
    33  O   -0.460753
    34  O   -0.460757
 Sum of Mulliken charges =  -0.00000

 Dipole moment (field-independent basis, Debye):
    X=              1.3198    Y=             -5.0895    Z=             -0.1108  Tot=              5.2590
 Quadrupole moment (field-independent basis, Debye-Ang):
   XX=            -99.1368   YY=            -99.2002   ZZ=            -94.0598
   XY=             19.8804   XZ=             -0.7758   YZ=             -0.5148

 Normal termination of Gaussian 16 at Wed May  5 18:46:16 2021.
