 Gaussian 16, Revision A.03,
 Gaussian 16:  EM64L-G16RevA.03 25-Dec-2016

 -------------
 #p 6-31g* mp2
 -------------

 ------------------------------------------------------
 Input file generated by CHIRIPA (05-May-2021 14:57:24)
 ------------------------------------------------------
 Symbolic Z-matrix:
 Charge =  0 Multiplicity = 1

                         Standard orientation:
 ---------------------------------------------------------------------
 Center     Atomic      Atomic             Coordinates (Angstroms)
 Number     Number       Type             X           Y           Z
 ---------------------------------------------------------------------
      1          6           0        3.172772   -2.008459   -0.690557
      2          6           0        3.560942   -0.889231   -1.434313
      3          6           0        3.275449    0.400806   -0.977317
      4          6           0        2.597238    0.535526    0.233126
      5          6           0        2.197330   -0.559914    0.996915
      6          6           0        2.493402   -1.840525    0.520548
      7          1           0        3.398659   -3.006930   -1.053086
      8          1           0        4.088674   -1.016636   -2.375223
      9          1           0        3.564342    1.284635   -1.533018
     10          1           0        1.672565   -0.401142    1.931170
     11          1           0        2.190726   -2.707912    1.100265
     12          7           0        2.289398    1.896241    0.727180
     13          8           0        1.690793    1.988108    1.796698
     14          8           0        2.652549    2.845136    0.035548
     15          6           0       -1.249197   -2.356672    0.323330
     16          6           0       -0.803168   -1.401753   -0.596294
     17          6           0       -1.569944   -0.264583   -0.867308
     18          6           0       -2.783202   -0.113521   -0.197623
     19          6           0       -3.254681   -1.047149    0.723971
     20          6           0       -2.471375   -2.176640    0.979371
     21          1           0       -0.647126   -3.237070    0.527796
     22          1           0        0.145581   -1.538950   -1.107270
     23          1           0       -1.248549    0.490373   -1.574529
     24          1           0       -4.204759   -0.882795    1.217690
     25          1           0       -2.820272   -2.916598    1.694058
     26          7           0       -3.603703    1.086285   -0.476269
     27          8           0       -4.668940    1.196079    0.126934
     28          8           0       -3.166039    1.894181   -1.292597
 ---------------------------------------------------------------------

 SCF Done:  E(RHF) =  -868.335108540     A.U. after   16 cycles
 E2 =    -0.2604110568D+01 EUMP2 =    -0.87093921910798D+03

 The electronic state is 1-A.
 Alpha  occ. eigenvalues --  -20.61258 -20.61253 -20.60617 -20.60601 -15.86325
 Alpha  occ. eigenvalues --  -15.85665 -11.31987 -11.31186 -11.28605 -11.28583
 Alpha  occ. eigenvalues --  -11.28444 -11.27733 -11.27691 -11.27687 -11.27676
 Alpha  occ. eigenvalues --  -11.27592 -11.26877 -11.26721  -1.60328  -1.59679
 Alpha  occ. eigenvalues --   -1.39872  -1.39230  -1.20247  -1.19358  -1.09578
 Alpha  occ. eigenvalues --   -1.08759  -1.05675  -1.04767  -0.96336  -0.95567
 Alpha  occ. eigenvalues --   -0.87042  -0.86181  -0.83154  -0.82386  -0.78141
 Alpha  occ. eigenvalues --   -0.77392  -0.72532  -0.71887  -0.71666  -0.71300
 Alpha  occ. eigenvalues --   -0.70996  -0.70546  -0.65858  -0.65653  -0.65016
 Alpha  occ. eigenvalues --   -0.64831  -0.62974  -0.62151  -0.56152  -0.55394
 Alpha  occ. eigenvalues --   -0.54252  -0.53721  -0.53063  -0.52593  -0.49315
 Alpha  occ. eigenvalues --   -0.49268  -0.48653  -0.48631  -0.45208  -0.44602
 Alpha  occ. eigenvalues --   -0.38305  -0.37942  -0.37015  -0.36004
 Alpha virt. eigenvalues --    0.04340   0.05113   0.10242   0.11303   0.15752
 Alpha virt. eigenvalues --    0.16555   0.19816   0.21778   0.25457   0.27340
 Alpha virt. eigenvalues --    0.27545   0.28497   0.30086   0.31328   0.32573

 Mulliken charges:
               1
     1  C   -0.177818
     2  C   -0.220018
     3  C   -0.172321
     4  C    0.156913
     5  C   -0.162867
     6  C   -0.228365
     7  H    0.227331
     8  H    0.227345
     9  H    0.279993
    10  H    0.279769
    11  H    0.220760
    12  N    0.488122
    13  O   -0.456241
    14  O   -0.456734
    15  C   -0.178575
    16  C   -0.217521
    17  C   -0.173945
    18  C    0.162039
    19  C   -0.171234
    20  C   -0.217331
    21  H    0.215611
    22  H    0.229418
    23  H    0.276757
    24  H    0.276269
    25  H    0.222183
    26  N    0.488303
    27  O   -0.460133
    28  O   -0.457708
 Sum of Mulliken charges =  -0.00000

 Dipole moment (field-independent basis, Debye):
    X=              4.0899    Y=             -8.6771    Z=             -0.7373  Tot=              9.6210
 Quadrupole moment (field-independent basis, Debye-Ang):
   XX=           -112.3737   YY=           -109.2593   ZZ=           -101.2598
   XY=              1.8634   XZ=            -12.3243   YZ=             -4.3154

 Normal termination of Gaussian 16 at Thu May  6 09:50:20 2021.
