 Gaussian 16, Revision A.03,
 Gaussian 16:  EM64L-G16RevA.03 25-Dec-2016

 -------------
 #p 6-31g* mp2
 -------------

 ------------------------------------------------------
 Input file generated by CHIRIPA (05-May-2021 14:57:23)
 ------------------------------------------------------
 Symbolic Z-matrix:
 Charge =  0 Multiplicity = 1

                         Standard orientation:
 ---------------------------------------------------------------------
 Center     Atomic      Atomic             Coordinates (Angstroms)
 Number     Number       Type             X           Y           Z
 ---------------------------------------------------------------------
      1          6           0       -4.635479    1.247264   -0.063774
      2          6           0       -4.309069    0.539737   -1.225403
      3          6           0       -3.257849   -0.381936   -1.223590
      4          6           0       -2.550905   -0.572114   -0.037272
      5          6           0       -2.851968    0.117481    1.136231
      6          6           0       -3.907171    1.034254    1.111265
      7          1           0       -5.453638    1.961339   -0.074175
      8          1           0       -4.872955    0.703125   -2.139396
      9          1           0       -2.983848   -0.943210   -2.108640
     10          1           0       -2.271648   -0.066882    2.032143
     11          1           0       -4.158431    1.582311    2.014894
     12          7           0       -1.435917   -1.545254   -0.023097
     13          8           0       -0.828473   -1.694658    1.034886
     14          8           0       -1.190547   -2.140172   -1.070238
     15          6           0        3.283885   -2.046395    0.187633
     16          6           0        2.575717   -1.423905    1.220845
     17          6           0        2.265897   -0.062484    1.149472
     18          6           0        2.681571    0.649371    0.025298
     19          6           0        3.388499    0.057671   -1.020378
     20          6           0        3.687304   -1.304928   -0.927713
     21          1           0        3.520282   -3.104437    0.251348
     22          1           0        2.261146   -1.997252    2.088234
     23          1           0        1.718860    0.444577    1.935000
     24          1           0        3.688690    0.655416   -1.872437
     25          1           0        4.237402   -1.785725   -1.731623
     26          7           0        2.359409    2.091270   -0.061532
     27          8           0        2.736922    2.696292   -1.062565
     28          8           0        1.735485    2.589104    0.873089
 ---------------------------------------------------------------------

 SCF Done:  E(RHF) =  -868.339443159     A.U. after   16 cycles
 E2 =    -0.2600062863D+01 EUMP2 =    -0.87093950602181D+03

 The electronic state is 1-A.
 Alpha  occ. eigenvalues --  -20.61096 -20.61084 -20.60111 -20.60098 -15.86112
 Alpha  occ. eigenvalues --  -15.85145 -11.31223 -11.30138 -11.27774 -11.27763
 Alpha  occ. eigenvalues --  -11.27455 -11.26726 -11.26710 -11.26674 -11.26594
 Alpha  occ. eigenvalues --  -11.26276 -11.25651 -11.25488  -1.60146  -1.59190
 Alpha  occ. eigenvalues --   -1.39715  -1.38754  -1.19369  -1.18252  -1.08814
 Alpha  occ. eigenvalues --   -1.07718  -1.04738  -1.03588  -0.95697  -0.94624
 Alpha  occ. eigenvalues --   -0.86153  -0.85022  -0.82553  -0.81468  -0.77625
 Alpha  occ. eigenvalues --   -0.76567  -0.72374  -0.71456  -0.71373  -0.70506
 Alpha  occ. eigenvalues --   -0.70489  -0.69380  -0.65036  -0.64748  -0.63907
 Alpha  occ. eigenvalues --   -0.63607  -0.62100  -0.60969  -0.55254  -0.54125
 Alpha  occ. eigenvalues --   -0.53072  -0.52838  -0.51945  -0.51703  -0.49121
 Alpha  occ. eigenvalues --   -0.49069  -0.48148  -0.48095  -0.45183  -0.44240
 Alpha  occ. eigenvalues --   -0.37333  -0.36319  -0.36197  -0.35060
 Alpha virt. eigenvalues --    0.04848   0.05992   0.11334   0.12513   0.16409
 Alpha virt. eigenvalues --    0.17609   0.21417   0.22527   0.27278   0.27977
 Alpha virt. eigenvalues --    0.28675   0.29357   0.31050   0.32010   0.32451

 Mulliken charges:
               1
     1  C   -0.169307
     2  C   -0.217921
     3  C   -0.170153
     4  C    0.158507
     5  C   -0.167883
     6  C   -0.216782
     7  H    0.226871
     8  H    0.224040
     9  H    0.274841
    10  H    0.272418
    11  H    0.224965
    12  N    0.489996
    13  O   -0.468102
    14  O   -0.459552
    15  C   -0.168726
    16  C   -0.198054
    17  C   -0.167822
    18  C    0.154140
    19  C   -0.173193
    20  C   -0.216811
    21  H    0.224087
    22  H    0.226228
    23  H    0.269642
    24  H    0.270676
    25  H    0.219625
    26  N    0.488195
    27  O   -0.463794
    28  O   -0.466130
 Sum of Mulliken charges =  -0.00000

 Dipole moment (field-independent basis, Debye):
    X=             -3.0604    Y=             -1.8576    Z=              0.3299  Tot=              3.5952
 Quadrupole moment (field-independent basis, Debye-Ang):
   XX=            -78.8650   YY=           -116.6200   ZZ=            -96.4284
   XY=            -20.3425   XZ=              0.0581   YZ=              0.7751

 Normal termination of Gaussian 16 at Thu May  6 19:35:17 2021.
