 Gaussian 16, Revision A.03,
 Gaussian 16:  EM64L-G16RevA.03 25-Dec-2016

 -------------
 #p 6-31g* mp2
 -------------

 ------------------------------------------------------
 Input file generated by CHIRIPA (05-May-2021 14:51:13)
 ------------------------------------------------------
 Symbolic Z-matrix:
 Charge =  0 Multiplicity = 1

                         Standard orientation:
 ---------------------------------------------------------------------
 Center     Atomic      Atomic             Coordinates (Angstroms)
 Number     Number       Type             X           Y           Z
 ---------------------------------------------------------------------
      1          6           0       -4.052928   -0.721314    0.133927
      2          6           0       -5.265978   -1.573826   -0.239858
      3          6           0       -5.091268   -3.046271    0.133205
      4          1           0       -3.161464   -1.124385   -0.365844
      5          1           0       -3.871597   -0.807797    1.214221
      6          1           0       -5.445806   -1.484665   -1.318898
      7          1           0       -6.154691   -1.168564    0.260709
      8          1           0       -4.934479   -3.154546    1.211303
      9          1           0       -4.221565   -3.472444   -0.377280
     10          1           0       -5.970040   -3.637370   -0.142877
     11          6           0       -4.212499    0.753076   -0.232731
     12          6           0       -2.999448    1.605589    0.141054
     13          6           0       -3.174159    3.078034   -0.232008
     14          1           0       -4.393830    0.839560   -1.313025
     15          1           0       -5.103963    1.156148    0.267041
     16          1           0       -2.110736    1.200326   -0.359513
     17          1           0       -2.819621    1.516428    1.220095
     18          1           0       -4.043862    3.504207    0.278477
     19          1           0       -3.330948    3.186309   -1.310106
     20          1           0       -2.295387    3.669133    0.044074
     21          6           0        3.547536    0.213560    0.483402
     22          6           0        2.288331    0.540437   -0.320052
     23          6           0        1.126370    0.997990    0.562153
     24          1           0        3.313107   -0.568693    1.218296
     25          1           0        3.848779    1.101081    1.056948
     26          1           0        1.990347   -0.347015   -0.892983
     27          1           0        2.525833    1.321867   -1.053248
     28          1           0        1.399642    1.897506    1.123219
     29          1           0        0.861113    0.219141    1.284395
     30          1           0        0.236467    1.226411   -0.032622
     31          6           0        4.717891   -0.245322   -0.384599
     32          6           0        5.977096   -0.572200    0.418856
     33          6           0        7.139057   -1.029752   -0.463349
     34          1           0        4.416649   -1.132843   -0.958144
     35          1           0        4.952320    0.536931   -1.119492
     36          1           0        5.739594   -1.353629    1.152052
     37          1           0        6.275080    0.315253    0.991786
     38          1           0        7.404314   -0.250903   -1.185592
     39          1           0        6.865785   -1.929268   -1.024415
     40          1           0        8.028959   -1.258174    0.131425
 ---------------------------------------------------------------------

 SCF Done:  E(RHF) =  -470.733202537     A.U. after   11 cycles
 E2 =    -0.1582381268D+01 EUMP2 =    -0.47231558380510D+03

 The electronic state is 1-A.
 Alpha  occ. eigenvalues --  -11.21597 -11.21592 -11.21588 -11.21561 -11.21396
 Alpha  occ. eigenvalues --  -11.21387 -11.21337 -11.21327 -11.21068 -11.21067
 Alpha  occ. eigenvalues --  -11.21051 -11.21013  -1.08425  -1.08409  -1.03537
 Alpha  occ. eigenvalues --   -1.03495  -0.95984  -0.95945  -0.87004  -0.86959
 Alpha  occ. eigenvalues --   -0.79649  -0.79514  -0.78247  -0.78212  -0.65055
 Alpha  occ. eigenvalues --   -0.65046  -0.60939  -0.60910  -0.59484  -0.59201
 Alpha  occ. eigenvalues --   -0.57662  -0.57485  -0.55254  -0.55248  -0.52727
 Alpha  occ. eigenvalues --   -0.52613  -0.52404  -0.52372  -0.49912  -0.49896
 Alpha  occ. eigenvalues --   -0.47987  -0.47811  -0.46620  -0.46595  -0.45778
 Alpha  occ. eigenvalues --   -0.45770  -0.45700  -0.45687  -0.43799  -0.43682
 Alpha virt. eigenvalues --    0.22021   0.23041   0.23542   0.24795   0.26288
 Alpha virt. eigenvalues --    0.26650   0.26934   0.27523   0.27939   0.28780
 Alpha virt. eigenvalues --    0.30324   0.31391   0.31489   0.31919   0.32024

 Mulliken charges:
               1
     1  C   -0.298246
     2  C   -0.299632
     3  C   -0.475682
     4  H    0.149546
     5  H    0.149618
     6  H    0.151867
     7  H    0.151951
     8  H    0.155162
     9  H    0.155075
    10  H    0.160219
    11  C   -0.297701
    12  C   -0.304252
    13  C   -0.476313
    14  H    0.149226
    15  H    0.149568
    16  H    0.155973
    17  H    0.152797
    18  H    0.155278
    19  H    0.154803
    20  H    0.160850
    21  C   -0.298496
    22  C   -0.299198
    23  C   -0.481722
    24  H    0.149662
    25  H    0.149506
    26  H    0.151456
    27  H    0.151674
    28  H    0.154778
    29  H    0.155305
    30  H    0.167005
    31  C   -0.298205
    32  C   -0.299627
    33  C   -0.475693
    34  H    0.149435
    35  H    0.149591
    36  H    0.151946
    37  H    0.151922
    38  H    0.155158
    39  H    0.155155
    40  H    0.160241
 Sum of Mulliken charges =  -0.00000

 Dipole moment (field-independent basis, Debye):
    X=             -0.0092    Y=              0.0059    Z=              0.0092  Tot=              0.0143
 Quadrupole moment (field-independent basis, Debye-Ang):
   XX=            -85.4958   YY=            -85.1315   ZZ=            -84.2285
   XY=              0.5202   XZ=              0.0283   YZ=              0.1423

 Normal termination of Gaussian 16 at Wed May  5 15:21:24 2021.
