 Gaussian 16, Revision A.03,
 Gaussian 16:  EM64L-G16RevA.03 25-Dec-2016

 -------------
 #p 6-31g* mp2
 -------------

 ------------------------------------------------------
 Input file generated by CHIRIPA (05-May-2021 14:51:13)
 ------------------------------------------------------
 Symbolic Z-matrix:
 Charge =  0 Multiplicity = 1

                         Standard orientation:
 ---------------------------------------------------------------------
 Center     Atomic      Atomic             Coordinates (Angstroms)
 Number     Number       Type             X           Y           Z
 ---------------------------------------------------------------------
      1          6           0        2.930107    1.013134    0.023296
      2          6           0        3.632336    2.367995   -0.072679
      3          6           0        2.662873    3.545327    0.036072
      4          1           0        2.174169    0.942039   -0.770711
      5          1           0        2.387780    0.955829    0.977231
      6          1           0        4.174311    2.422183   -1.025540
      7          1           0        4.386823    2.435796    0.721530
      8          1           0        2.130823    3.519165    0.992543
      9          1           0        1.917103    3.505475   -0.764453
     10          1           0        3.186008    4.504042   -0.035032
     11          6           0        3.886073   -0.173626   -0.083739
     12          6           0        3.183844   -1.528488    0.012236
     13          6           0        4.153307   -2.705819   -0.096515
     14          1           0        4.428401   -0.116321   -1.037674
     15          1           0        4.642012   -0.102532    0.710268
     16          1           0        2.429358   -1.596288   -0.781973
     17          1           0        2.641870   -1.582675    0.965097
     18          1           0        4.899077   -2.665968    0.704010
     19          1           0        4.685358   -2.679658   -1.052987
     20          1           0        3.630173   -3.664534   -0.025411
     21          6           0       -2.971221   -1.028281   -0.119019
     22          6           0       -1.533882   -0.880159    0.381084
     23          6           0       -0.672257   -2.105623    0.075087
     24          1           0       -3.422208   -1.919067    0.339298
     25          1           0       -2.958272   -1.207116   -1.203106
     26          1           0       -1.549602   -0.700279    1.463679
     27          1           0       -1.086328    0.010487   -0.078329
     28          1           0       -0.626802   -2.284870   -1.003989
     29          1           0       -1.092709   -2.999675    0.546780
     30          1           0        0.351251   -1.978326    0.441262
     31          6           0       -3.844960    0.188773    0.179462
     32          6           0       -5.282298    0.040652   -0.320641
     33          6           0       -6.143923    1.266116   -0.014644
     34          1           0       -3.857907    0.367607    1.263550
     35          1           0       -3.393972    1.079560   -0.278855
     36          1           0       -5.729853   -0.849995    0.138772
     37          1           0       -5.266579   -0.139228   -1.403235
     38          1           0       -5.723472    2.160167   -0.486337
     39          1           0       -6.189378    1.445362    1.064432
     40          1           0       -7.167432    1.138818   -0.380819
 ---------------------------------------------------------------------

 SCF Done:  E(RHF) =  -470.732496120     A.U. after   11 cycles
 E2 =    -0.1583296886D+01 EUMP2 =    -0.47231579300565D+03

 The electronic state is 1-A.
 Alpha  occ. eigenvalues --  -11.21622 -11.21605 -11.21570 -11.21515 -11.21428
 Alpha  occ. eigenvalues --  -11.21368 -11.21353 -11.21291 -11.21087 -11.21079
 Alpha  occ. eigenvalues --  -11.21046 -11.20867  -1.08462  -1.08368  -1.03569
 Alpha  occ. eigenvalues --   -1.03449  -0.96002  -0.95907  -0.87042  -0.86908
 Alpha  occ. eigenvalues --   -0.79714  -0.79456  -0.78281  -0.78186  -0.65094
 Alpha  occ. eigenvalues --   -0.64997  -0.60964  -0.60848  -0.59586  -0.59124
 Alpha  occ. eigenvalues --   -0.57668  -0.57459  -0.55285  -0.55198  -0.52797
 Alpha  occ. eigenvalues --   -0.52594  -0.52413  -0.52287  -0.49957  -0.49843
 Alpha  occ. eigenvalues --   -0.48090  -0.47663  -0.46686  -0.46529  -0.45792
 Alpha  occ. eigenvalues --   -0.45752  -0.45704  -0.45652  -0.43832  -0.43603
 Alpha virt. eigenvalues --    0.21812   0.23170   0.23797   0.24444   0.25967
 Alpha virt. eigenvalues --    0.26438   0.27082   0.27465   0.27952   0.29362
 Alpha virt. eigenvalues --    0.30380   0.31318   0.31455   0.31999   0.32109

 Mulliken charges:
               1
     1  C   -0.299334
     2  C   -0.299596
     3  C   -0.475679
     4  H    0.149920
     5  H    0.149920
     6  H    0.151963
     7  H    0.152073
     8  H    0.155455
     9  H    0.154921
    10  H    0.160330
    11  C   -0.297445
    12  C   -0.305438
    13  C   -0.475562
    14  H    0.149532
    15  H    0.149566
    16  H    0.157146
    17  H    0.152792
    18  H    0.155058
    19  H    0.155244
    20  H    0.160967
    21  C   -0.298236
    22  C   -0.299414
    23  C   -0.484519
    24  H    0.149458
    25  H    0.149128
    26  H    0.151017
    27  H    0.152267
    28  H    0.152975
    29  H    0.153564
    30  H    0.172409
    31  C   -0.298153
    32  C   -0.299572
    33  C   -0.475658
    34  H    0.149352
    35  H    0.149537
    36  H    0.151854
    37  H    0.151783
    38  H    0.155139
    39  H    0.155123
    40  H    0.160116
 Sum of Mulliken charges =  -0.00000

 Dipole moment (field-independent basis, Debye):
    X=              0.0702    Y=              0.0027    Z=              0.0017  Tot=              0.0703
 Quadrupole moment (field-independent basis, Debye-Ang):
   XX=            -85.6759   YY=            -86.2189   ZZ=            -82.9435
   XY=              1.1747   XZ=              0.0118   YZ=             -0.5508

 Normal termination of Gaussian 16 at Thu May  6 07:08:13 2021.
