 Gaussian 16, Revision A.03,
 Gaussian 16:  EM64L-G16RevA.03 25-Dec-2016

 -------------
 #p 6-31g* mp2
 -------------

 ------------------------------------------------------
 Input file generated by CHIRIPA (05-May-2021 14:53:17)
 ------------------------------------------------------
 Symbolic Z-matrix:
 Charge =  0 Multiplicity = 1

                         Standard orientation:
 ---------------------------------------------------------------------
 Center     Atomic      Atomic             Coordinates (Angstroms)
 Number     Number       Type             X           Y           Z
 ---------------------------------------------------------------------
      1          6           0       -3.975198    0.397417   -0.327950
      2          6           0       -4.156679   -1.120675   -0.349087
      3          6           0       -5.566514   -1.541764   -0.764834
      4          1           0       -4.709112    0.838499    0.360353
      5          1           0       -4.200208    0.800518   -1.325083
      6          1           0       -3.930053   -1.520947    0.647426
      7          1           0       -3.422121   -1.558211   -1.037275
      8          1           0       -5.799556   -1.170009   -1.767874
      9          1           0       -6.310374   -1.132533   -0.073602
     10          1           0       -5.674141   -2.630895   -0.773193
     11          6           0       -2.570925    0.833966    0.085778
     12          6           0       -2.389444    2.352058    0.106916
     13          6           0       -0.979609    2.773147    0.522663
     14          1           0       -2.345915    0.430864    1.082912
     15          1           0       -1.837011    0.392884   -0.602525
     16          1           0       -3.124002    2.789594    0.795103
     17          1           0       -2.616070    2.752330   -0.889597
     18          1           0       -0.235749    2.363916   -0.168570
     19          1           0       -0.746567    2.401392    1.525703
     20          1           0       -0.871982    3.862278    0.531022
     21          6           0        4.298149    1.079726   -0.853402
     22          6           0        3.234677    1.590774   -0.102153
     23          6           0        2.264224    0.735350    0.427957
     24          6           0        2.388759   -0.631895    0.186247
     25          6           0        3.436592   -1.171474   -0.558192
     26          6           0        4.395542   -0.297340   -1.078627
     27          1           0        5.047552    1.751508   -1.261447
     28          1           0        3.156497    2.659781    0.074359
     29          1           0        1.430566    1.104154    1.013121
     30          1           0        3.487723   -2.241753   -0.717277
     31          1           0        5.220364   -0.697039   -1.661682
     32          7           0        1.367473   -1.547399    0.742330
     33          8           0        1.499817   -2.748026    0.515138
     34          8           0        0.453984   -1.047008    1.394851
 ---------------------------------------------------------------------

 SCF Done:  E(RHF) =  -669.535310599     A.U. after   15 cycles
 E2 =    -0.2092731394D+01 EUMP2 =    -0.67162804199275D+03

 The electronic state is 1-A.
 Alpha  occ. eigenvalues --  -20.60803 -20.60784 -15.85832 -11.31152 -11.27745
 Alpha  occ. eigenvalues --  -11.27643 -11.27482 -11.26752 -11.26723 -11.21387
 Alpha  occ. eigenvalues --  -11.21247 -11.20853 -11.20770 -11.20650 -11.20473
 Alpha  occ. eigenvalues --   -1.59860  -1.39414  -1.19336  -1.08741  -1.07892
 Alpha  occ. eigenvalues --   -1.04734  -1.03133  -0.95639  -0.95554  -0.86674
 Alpha  occ. eigenvalues --   -0.86118  -0.82410  -0.79217  -0.77694  -0.77375
 Alpha  occ. eigenvalues --   -0.72053  -0.71176  -0.70452  -0.64990  -0.64745
 Alpha  occ. eigenvalues --   -0.64523  -0.62115  -0.60538  -0.58981  -0.57191
 Alpha  occ. eigenvalues --   -0.55246  -0.54910  -0.53087  -0.52902  -0.52344
 Alpha  occ. eigenvalues --   -0.51921  -0.49584  -0.48813  -0.48808  -0.47488
 Alpha  occ. eigenvalues --   -0.46189  -0.45323  -0.45070  -0.44661  -0.43327
 Alpha  occ. eigenvalues --   -0.37325  -0.36316
 Alpha virt. eigenvalues --    0.05027   0.11277   0.16484   0.21174   0.23381
 Alpha virt. eigenvalues --    0.24516   0.26372   0.27060   0.27814   0.28372
 Alpha virt. eigenvalues --    0.29622   0.30369   0.31579   0.31992   0.32273

 Mulliken charges:
               1
     1  C   -0.299145
     2  C   -0.299251
     3  C   -0.475707
     4  H    0.147278
     5  H    0.145445
     6  H    0.158606
     7  H    0.153664
     8  H    0.152366
     9  H    0.153377
    10  H    0.160454
    11  C   -0.298890
    12  C   -0.298603
    13  C   -0.484172
    14  H    0.165345
    15  H    0.149096
    16  H    0.152037
    17  H    0.149907
    18  H    0.151321
    19  H    0.158600
    20  H    0.157430
    21  C   -0.170345
    22  C   -0.222729
    23  C   -0.174541
    24  C    0.155466
    25  C   -0.170482
    26  C   -0.219006
    27  H    0.225505
    28  H    0.224616
    29  H    0.286718
    30  H    0.275356
    31  H    0.223266
    32  N    0.488387
    33  O   -0.460363
    34  O   -0.461006
 Sum of Mulliken charges =  -0.00000

 Dipole moment (field-independent basis, Debye):
    X=              3.6050    Y=              3.0929    Z=             -1.8511  Tot=              5.0979
 Quadrupole moment (field-independent basis, Debye-Ang):
   XX=            -78.2030   YY=            -96.6892   ZZ=            -94.5253
   XY=              3.1633   XZ=             -6.1947   YZ=              3.5547

 Normal termination of Gaussian 16 at Thu May  6 04:24:40 2021.
