 Gaussian 16, Revision A.03,
 Gaussian 16:  EM64L-G16RevA.03 25-Dec-2016

 -------------
 #p 6-31g* mp2
 -------------

 ------------------------------------------------------
 Input file generated by CHIRIPA (05-May-2021 14:57:24)
 ------------------------------------------------------
 Symbolic Z-matrix:
 Charge =  0 Multiplicity = 1

                         Standard orientation:
 ---------------------------------------------------------------------
 Center     Atomic      Atomic             Coordinates (Angstroms)
 Number     Number       Type             X           Y           Z
 ---------------------------------------------------------------------
      1          6           0        6.501922   -0.329672    0.583006
      2          6           0        5.626199   -1.398328    0.801193
      3          6           0        4.277322   -1.294269    0.448703
      4          6           0        3.836097   -0.101624   -0.122442
      5          6           0        4.683948    0.980748   -0.352463
      6          6           0        6.028836    0.854367    0.007888
      7          1           0        7.548213   -0.419178    0.859882
      8          1           0        5.990818   -2.319067    1.247665
      9          1           0        3.577613   -2.106018    0.606466
     10          1           0        4.291121    1.885958   -0.799341
     11          1           0        6.706654    1.685931   -0.162728
     12          7           0        2.410212    0.020354   -0.499769
     13          8           0        2.046277    1.081738   -1.001418
     14          8           0        1.683538   -0.947734   -0.286723
     15          6           0       -2.688194    2.225790    0.222785
     16          6           0       -2.133722    1.064263   -0.324879
     17          6           0       -2.890672   -0.107292   -0.419916
     18          6           0       -4.204794   -0.081686    0.044541
     19          6           0       -4.785554    1.059714    0.595189
     20          6           0       -4.010011    2.219819    0.680265
     21          1           0       -2.092956    3.131434    0.292743
     22          1           0       -1.107444    1.065982   -0.680966
     23          1           0       -2.486412   -1.020499   -0.839492
     24          1           0       -5.811363    1.027248    0.941715
     25          1           0       -4.443241    3.120409    1.106051
     26          7           0       -5.015985   -1.315898   -0.050797
     27          8           0       -6.171393   -1.267376    0.365515
     28          8           0       -4.481029   -2.308425   -0.540029
 ---------------------------------------------------------------------

 SCF Done:  E(RHF) =  -868.341383125     A.U. after   16 cycles
 E2 =    -0.2598548105D+01 EUMP2 =    -0.87093993123016D+03

 The electronic state is 1-A.
 Alpha  occ. eigenvalues --  -20.61864 -20.61857 -20.59826 -20.59812 -15.86835
 Alpha  occ. eigenvalues --  -15.84861 -11.31873 -11.30014 -11.28410 -11.28376
 Alpha  occ. eigenvalues --  -11.28078 -11.27342 -11.27317 -11.26611 -11.26399
 Alpha  occ. eigenvalues --  -11.26217 -11.25631 -11.25222  -1.60899  -1.58901
 Alpha  occ. eigenvalues --   -1.40458  -1.38459  -1.20010  -1.18142  -1.09471
 Alpha  occ. eigenvalues --   -1.07584  -1.05360  -1.03475  -0.96360  -0.94460
 Alpha  occ. eigenvalues --   -0.86774  -0.84888  -0.83203  -0.81273  -0.78287
 Alpha  occ. eigenvalues --   -0.76344  -0.73065  -0.72178  -0.71112  -0.71087
 Alpha  occ. eigenvalues --   -0.70220  -0.69265  -0.65665  -0.65360  -0.63777
 Alpha  occ. eigenvalues --   -0.63428  -0.62708  -0.60796  -0.55876  -0.54017
 Alpha  occ. eigenvalues --   -0.53708  -0.53445  -0.51871  -0.51544  -0.49836
 Alpha  occ. eigenvalues --   -0.49795  -0.47853  -0.47819  -0.45929  -0.43912
 Alpha  occ. eigenvalues --   -0.37970  -0.36946  -0.36147  -0.35078
 Alpha virt. eigenvalues --    0.04221   0.06124   0.10714   0.12560   0.15787
 Alpha virt. eigenvalues --    0.17681   0.20887   0.22820   0.26828   0.27744
 Alpha virt. eigenvalues --    0.28930   0.29508   0.30493   0.31961   0.32435

 Mulliken charges:
               1
     1  C   -0.169523
     2  C   -0.218631
     3  C   -0.170067
     4  C    0.158057
     5  C   -0.170502
     6  C   -0.218613
     7  H    0.228095
     8  H    0.226266
     9  H    0.277706
    10  H    0.274957
    11  H    0.225170
    12  N    0.489749
    13  O   -0.467442
    14  O   -0.459401
    15  C   -0.173622
    16  C   -0.228149
    17  C   -0.173150
    18  C    0.157704
    19  C   -0.173993
    20  C   -0.218895
    21  H    0.223653
    22  H    0.250192
    23  H    0.279224
    24  H    0.271043
    25  H    0.218136
    26  N    0.488028
    27  O   -0.464777
    28  O   -0.461216
 Sum of Mulliken charges =  -0.00000

 Dipole moment (field-independent basis, Debye):
    X=              8.5978    Y=              3.8003    Z=              1.6249  Tot=              9.5396
 Quadrupole moment (field-independent basis, Debye-Ang):
   XX=            -88.5338   YY=           -100.7783   ZZ=           -105.2756
   XY=            -22.0130   XZ=              1.6428   YZ=             -0.6972

 Normal termination of Gaussian 16 at Wed May  5 19:26:27 2021.
