 Gaussian 16, Revision A.03,
 Gaussian 16:  EM64L-G16RevA.03 25-Dec-2016

 -------------
 #p 6-31g* mp2
 -------------

 ------------------------------------------------------
 Input file generated by CHIRIPA (05-May-2021 14:57:22)
 ------------------------------------------------------
 Symbolic Z-matrix:
 Charge =  0 Multiplicity = 1

                         Standard orientation:
 ---------------------------------------------------------------------
 Center     Atomic      Atomic             Coordinates (Angstroms)
 Number     Number       Type             X           Y           Z
 ---------------------------------------------------------------------
      1          6           0       -2.982175    2.339783    1.030683
      2          6           0       -2.099542    1.278163    0.806090
      3          6           0       -2.553881    0.085802    0.234776
      4          6           0       -3.903311   -0.011047   -0.101305
      5          6           0       -4.807319    1.028862    0.109994
      6          6           0       -4.330869    2.211970    0.682532
      7          1           0       -2.620645    3.262443    1.474969
      8          1           0       -1.051602    1.374604    1.075470
      9          1           0       -1.892299   -0.751783    0.049901
     10          1           0       -5.846411    0.903006   -0.169054
     11          1           0       -5.018611    3.034791    0.855801
     12          7           0       -4.396004   -1.268448   -0.706777
     13          8           0       -5.589536   -1.328682   -0.993986
     14          8           0       -3.579315   -2.169956   -0.882672
     15          6           0        2.121460   -1.683951    1.124134
     16          6           0        1.720838   -0.796903    0.119561
     17          6           0        2.654497    0.032145   -0.509334
     18          6           0        3.986522   -0.052356   -0.107015
     19          6           0        4.416684   -0.925825    0.890633
     20          6           0        3.465734   -1.745473    1.505791
     21          1           0        1.389455   -2.324325    1.607339
     22          1           0        0.677532   -0.746978   -0.178880
     23          1           0        2.371714    0.727974   -1.289892
     24          1           0        5.463826   -0.952978    1.166631
     25          1           0        3.779730   -2.433413    2.285656
     26          7           0        4.984097    0.820344   -0.765526
     27          8           0        6.151598    0.726806   -0.392929
     28          8           0        4.579606    1.581381   -1.641796
 ---------------------------------------------------------------------

 SCF Done:  E(RHF) =  -868.337289477     A.U. after   16 cycles
 E2 =    -0.2599733066D+01 EUMP2 =    -0.87093702254338D+03

 The electronic state is 1-A.
 Alpha  occ. eigenvalues --  -20.61400 -20.61379 -20.61131 -20.61124 -15.86447
 Alpha  occ. eigenvalues --  -15.86190 -11.31870 -11.31632 -11.28546 -11.28368
 Alpha  occ. eigenvalues --  -11.28272 -11.28207 -11.28109 -11.27987 -11.27474
 Alpha  occ. eigenvalues --  -11.27376 -11.27351 -11.27197  -1.60464  -1.60205
 Alpha  occ. eigenvalues --   -1.40019  -1.39756  -1.20026  -1.19831  -1.09392
 Alpha  occ. eigenvalues --   -1.09205  -1.05458  -1.05252  -0.96232  -0.96020
 Alpha  occ. eigenvalues --   -0.86833  -0.86652  -0.83081  -0.82853  -0.78153
 Alpha  occ. eigenvalues --   -0.77878  -0.72663  -0.72404  -0.71786  -0.71532
 Alpha  occ. eigenvalues --   -0.71132  -0.70913  -0.65695  -0.65490  -0.65446
 Alpha  occ. eigenvalues --   -0.65279  -0.62927  -0.62474  -0.55905  -0.55720
 Alpha  occ. eigenvalues --   -0.53753  -0.53614  -0.53516  -0.53324  -0.49429
 Alpha  occ. eigenvalues --   -0.49412  -0.49171  -0.49154  -0.45413  -0.45145
 Alpha  occ. eigenvalues --   -0.37966  -0.37805  -0.37055  -0.36866
 Alpha virt. eigenvalues --    0.04417   0.04658   0.10607   0.10724   0.15893
 Alpha virt. eigenvalues --    0.16070   0.18270   0.21954   0.24566   0.27178
 Alpha virt. eigenvalues --    0.27822   0.29074   0.30103   0.30937   0.31627

 Mulliken charges:
               1
     1  C   -0.170231
     2  C   -0.220205
     3  C   -0.178925
     4  C    0.161870
     5  C   -0.169972
     6  C   -0.217806
     7  H    0.229143
     8  H    0.223583
     9  H    0.269215
    10  H    0.277809
    11  H    0.226516
    12  N    0.488289
    13  O   -0.457097
    14  O   -0.462837
    15  C   -0.171368
    16  C   -0.226602
    17  C   -0.172518
    18  C    0.158848
    19  C   -0.169779
    20  C   -0.218722
    21  H    0.228763
    22  H    0.222660
    23  H    0.277024
    24  H    0.277382
    25  H    0.225936
    26  N    0.488002
    27  O   -0.459010
    28  O   -0.459969
 Sum of Mulliken charges =  -0.00000

 Dipole moment (field-independent basis, Debye):
    X=             -1.8156    Y=              1.4313    Z=              4.5113  Tot=              5.0692
 Quadrupole moment (field-independent basis, Debye-Ang):
   XX=           -138.1943   YY=           -103.8136   ZZ=           -105.3479
   XY=            -33.8759   XZ=              3.8400   YZ=             -1.6840

 Normal termination of Gaussian 16 at Thu May  6 19:30:26 2021.
