 Gaussian 16, Revision A.03,
 Gaussian 16:  EM64L-G16RevA.03 25-Dec-2016

 -------------
 #p 6-31g* mp2
 -------------

 ------------------------------------------------------
 Input file generated by CHIRIPA (05-May-2021 14:53:18)
 ------------------------------------------------------
 Symbolic Z-matrix:
 Charge =  0 Multiplicity = 1

                         Standard orientation:
 ---------------------------------------------------------------------
 Center     Atomic      Atomic             Coordinates (Angstroms)
 Number     Number       Type             X           Y           Z
 ---------------------------------------------------------------------
      1          6           0       -4.591505   -0.507507   -0.060719
      2          6           0       -5.959523    0.063954    0.313371
      3          6           0       -7.059259   -0.998158    0.330469
      4          1           0       -4.658010   -0.984432   -1.048172
      5          1           0       -4.325731   -1.300393    0.652087
      6          1           0       -6.222017    0.856473   -0.399108
      7          1           0       -5.889706    0.539742    1.299965
      8          1           0       -6.823788   -1.784889    1.054492
      9          1           0       -7.157987   -1.466358   -0.654235
     10          1           0       -8.028762   -0.567905    0.600293
     11          6           0       -3.481763    0.542133   -0.082098
     12          6           0       -2.113745   -0.029328   -0.456188
     13          6           0       -1.014009    1.032784   -0.473286
     14          1           0       -3.747537    1.335019   -0.794904
     15          1           0       -3.415258    1.019058    0.905356
     16          1           0       -2.183562   -0.505116   -1.442782
     17          1           0       -1.851251   -0.821847    0.256291
     18          1           0       -0.915281    1.500984    0.511418
     19          1           0       -1.249480    1.819515   -1.197309
     20          1           0       -0.044506    0.602531   -0.743110
     21          6           0        2.485477    2.418096    0.137800
     22          6           0        2.846956    1.751451    1.313146
     23          6           0        3.218910    0.404205    1.279577
     24          6           0        3.218214   -0.248606    0.047859
     25          6           0        2.863199    0.388084   -1.140366
     26          6           0        2.494736    1.735488   -1.083053
     27          1           0        2.197891    3.464730    0.173101
     28          1           0        2.840684    2.279049    2.262697
     29          1           0        3.503286   -0.136160    2.174314
     30          1           0        2.879120   -0.164447   -2.071965
     31          1           0        2.214482    2.250670   -1.997433
     32          7           0        3.610136   -1.674959   -0.000248
     33          8           0        3.601362   -2.227633   -1.098024
     34          8           0        3.918680   -2.213252    1.060732
 ---------------------------------------------------------------------

 SCF Done:  E(RHF) =  -669.534274731     A.U. after   15 cycles
 E2 =    -0.2092895074D+01 EUMP2 =    -0.67162716980426D+03

 The electronic state is 1-A.
 Alpha  occ. eigenvalues --  -20.60804 -20.60799 -15.85857 -11.31248 -11.27790
 Alpha  occ. eigenvalues --  -11.27767 -11.27503 -11.26819 -11.26777 -11.21685
 Alpha  occ. eigenvalues --  -11.21679 -11.21510 -11.21431 -11.21163 -11.21122
 Alpha  occ. eigenvalues --   -1.59879  -1.39432  -1.19412  -1.08795  -1.08523
 Alpha  occ. eigenvalues --   -1.04820  -1.03624  -0.96085  -0.95626  -0.87113
 Alpha  occ. eigenvalues --   -0.86198  -0.82460  -0.79698  -0.78340  -0.77509
 Alpha  occ. eigenvalues --   -0.72073  -0.71203  -0.70495  -0.65159  -0.65053
 Alpha  occ. eigenvalues --   -0.64804  -0.62153  -0.61029  -0.59515  -0.57721
 Alpha  occ. eigenvalues --   -0.55390  -0.55288  -0.53693  -0.52894  -0.52538
 Alpha  occ. eigenvalues --   -0.52158  -0.50033  -0.48835  -0.48829  -0.48011
 Alpha  occ. eigenvalues --   -0.46729  -0.45883  -0.45808  -0.44833  -0.43881
 Alpha  occ. eigenvalues --   -0.37345  -0.36319
 Alpha virt. eigenvalues --    0.05001   0.11189   0.16493   0.21300   0.22780
 Alpha virt. eigenvalues --    0.24246   0.26512   0.27082   0.27413   0.28030
 Alpha virt. eigenvalues --    0.28371   0.30808   0.31325   0.31814   0.32132

 Mulliken charges:
               1
     1  C   -0.298419
     2  C   -0.299546
     3  C   -0.475772
     4  H    0.150260
     5  H    0.150803
     6  H    0.151183
     7  H    0.151344
     8  H    0.155893
     9  H    0.155584
    10  H    0.160086
    11  C   -0.298170
    12  C   -0.299715
    13  C   -0.480205
    14  H    0.147786
    15  H    0.148193
    16  H    0.152157
    17  H    0.154361
    18  H    0.151496
    19  H    0.147400
    20  H    0.169310
    21  C   -0.166546
    22  C   -0.218156
    23  C   -0.171351
    24  C    0.161327
    25  C   -0.176348
    26  C   -0.216226
    27  H    0.226119
    28  H    0.223627
    29  H    0.275689
    30  H    0.275862
    31  H    0.224464
    32  N    0.488039
    33  O   -0.460313
    34  O   -0.460216
 Sum of Mulliken charges =  -0.00000

 Dipole moment (field-independent basis, Debye):
    X=             -1.2862    Y=              5.0201    Z=              0.1847  Tot=              5.1856
 Quadrupole moment (field-independent basis, Debye-Ang):
   XX=           -105.2453   YY=            -98.3083   ZZ=            -88.8655
   XY=             16.3307   XZ=              1.5279   YZ=              0.1149

 Normal termination of Gaussian 16 at Wed May  5 22:03:26 2021.
