 Gaussian 16, Revision A.03,
 Gaussian 16:  EM64L-G16RevA.03 25-Dec-2016

 -------------
 #p 6-31g* mp2
 -------------

 ------------------------------------------------------
 Input file generated by CHIRIPA (05-May-2021 14:51:09)
 ------------------------------------------------------
 Symbolic Z-matrix:
 Charge =  0 Multiplicity = 1

                         Standard orientation:
 ---------------------------------------------------------------------
 Center     Atomic      Atomic             Coordinates (Angstroms)
 Number     Number       Type             X           Y           Z
 ---------------------------------------------------------------------
      1          6           0       -3.063979   -0.756033    0.572896
      2          6           0       -1.637458   -0.208951    0.511866
      3          6           0       -0.643109   -1.061509    1.300667
      4          1           0       -3.382255   -0.816104    1.622675
      5          1           0       -3.071973   -1.783903    0.184547
      6          1           0       -1.632400    0.818071    0.898928
      7          1           0       -1.322610   -0.149995   -0.537902
      8          1           0       -0.618624   -2.084339    0.911025
      9          1           0       -0.930174   -1.110773    2.356019
     10          1           0        0.370385   -0.652338    1.243503
     11          6           0       -4.069592    0.085481   -0.210892
     12          6           0       -5.496113   -0.461601   -0.149862
     13          6           0       -6.490462    0.390957   -0.938663
     14          1           0       -4.061598    1.113351    0.177456
     15          1           0       -3.751316    0.145552   -1.260672
     16          1           0       -5.810961   -0.520557    0.899905
     17          1           0       -5.501171   -1.488623   -0.536925
     18          1           0       -6.203397    0.440221   -1.994015
     19          1           0       -6.514947    1.413787   -0.549022
     20          1           0       -7.503956   -0.018214   -0.881500
     21          6           0        4.155369   -0.148221   -0.237856
     22          6           0        3.728089   -1.608733   -0.387262
     23          6           0        4.916731   -2.563852   -0.499835
     24          1           0        4.775440    0.135720   -1.099153
     25          1           0        4.792241   -0.048974    0.652054
     26          1           0        3.091080   -1.704943   -1.275844
     27          1           0        3.108805   -1.889174    0.474397
     28          1           0        5.550085   -2.497304    0.390690
     29          1           0        5.532259   -2.312026   -1.369496
     30          1           0        4.588481   -3.602540   -0.605844
     31          6           0        2.978202    0.818773   -0.124148
     32          6           0        3.405482    2.279285    0.025259
     33          6           0        2.216841    3.234404    0.137833
     34          1           0        2.341330    0.719526   -1.014058
     35          1           0        2.358132    0.534832    0.737151
     36          1           0        4.024766    2.559726   -0.836400
     37          1           0        4.042491    2.375496    0.913841
     38          1           0        1.601312    2.982578    1.007493
     39          1           0        1.583486    3.167856   -0.752693
     40          1           0        2.545089    4.273092    0.243841
 ---------------------------------------------------------------------

 SCF Done:  E(RHF) =  -470.733291337     A.U. after   11 cycles
 E2 =    -0.1582870888D+01 EUMP2 =    -0.47231616222515D+03

 The electronic state is 1-A.
 Alpha  occ. eigenvalues --  -11.21616 -11.21592 -11.21584 -11.21557 -11.21421
 Alpha  occ. eigenvalues --  -11.21377 -11.21360 -11.21318 -11.21077 -11.21065
 Alpha  occ. eigenvalues --  -11.21057 -11.20995  -1.08448  -1.08397  -1.03533
 Alpha  occ. eigenvalues --   -1.03495  -0.95996  -0.95938  -0.87010  -0.86958
 Alpha  occ. eigenvalues --   -0.79595  -0.79561  -0.78266  -0.78211  -0.65086
 Alpha  occ. eigenvalues --   -0.65030  -0.60935  -0.60887  -0.59373  -0.59316
 Alpha  occ. eigenvalues --   -0.57681  -0.57481  -0.55276  -0.55232  -0.52757
 Alpha  occ. eigenvalues --   -0.52625  -0.52451  -0.52294  -0.49928  -0.49886
 Alpha  occ. eigenvalues --   -0.47930  -0.47875  -0.46628  -0.46594  -0.45778
 Alpha  occ. eigenvalues --   -0.45777  -0.45705  -0.45671  -0.43804  -0.43684
 Alpha virt. eigenvalues --    0.21388   0.23119   0.23877   0.24313   0.25794
 Alpha virt. eigenvalues --    0.26456   0.26973   0.27518   0.27993   0.29183
 Alpha virt. eigenvalues --    0.30962   0.31552   0.31603   0.31792   0.32206

 Mulliken charges:
               1
     1  C   -0.298402
     2  C   -0.298647
     3  C   -0.483833
     4  H    0.149484
     5  H    0.149425
     6  H    0.151835
     7  H    0.151957
     8  H    0.155171
     9  H    0.154262
    10  H    0.167735
    11  C   -0.298196
    12  C   -0.299618
    13  C   -0.475684
    14  H    0.149581
    15  H    0.149508
    16  H    0.151898
    17  H    0.151866
    18  H    0.155117
    19  H    0.155194
    20  H    0.160182
    21  C   -0.297908
    22  C   -0.300971
    23  C   -0.475708
    24  H    0.149718
    25  H    0.149416
    26  H    0.151801
    27  H    0.153710
    28  H    0.155194
    29  H    0.155108
    30  H    0.160329
    31  C   -0.304854
    32  C   -0.299052
    33  C   -0.475831
    34  H    0.149776
    35  H    0.155576
    36  H    0.152080
    37  H    0.151880
    38  H    0.155060
    39  H    0.155557
    40  H    0.160285
 Sum of Mulliken charges =  -0.00000

 Dipole moment (field-independent basis, Debye):
    X=              0.0270    Y=              0.0098    Z=             -0.0080  Tot=              0.0298
 Quadrupole moment (field-independent basis, Debye-Ang):
   XX=            -86.0722   YY=            -85.3983   ZZ=            -83.3269
   XY=              0.9213   XZ=             -0.4916   YZ=              0.5759

 Normal termination of Gaussian 16 at Wed May  5 16:38:53 2021.
