 Gaussian 16, Revision A.03,
 Gaussian 16:  EM64L-G16RevA.03 25-Dec-2016

 -------------
 #p 6-31g* mp2
 -------------

 ------------------------------------------------------
 Input file generated by CHIRIPA (05-May-2021 14:51:11)
 ------------------------------------------------------
 Symbolic Z-matrix:
 Charge =  0 Multiplicity = 1

                         Standard orientation:
 ---------------------------------------------------------------------
 Center     Atomic      Atomic             Coordinates (Angstroms)
 Number     Number       Type             X           Y           Z
 ---------------------------------------------------------------------
      1          6           0        2.305417   -0.249592   -0.160439
      2          6           0        3.235891   -1.447807    0.030570
      3          6           0        2.549037   -2.782169   -0.261846
      4          1           0        1.430754   -0.364622    0.494295
      5          1           0        1.926058   -0.249533   -1.191692
      6          1           0        3.614470   -1.444824    1.060757
      7          1           0        4.108534   -1.329816   -0.624554
      8          1           0        2.186174   -2.810539   -1.294380
      9          1           0        1.689302   -2.926200    0.400507
     10          1           0        3.232281   -3.625172   -0.119074
     11          6           0        2.977645    1.091510    0.128149
     12          6           0        2.047172    2.289725   -0.062860
     13          6           0        2.734025    3.624086    0.229555
     14          1           0        3.357004    1.091451    1.159401
     15          1           0        3.852309    1.206540   -0.526585
     16          1           0        1.174528    2.171734    0.592264
     17          1           0        1.668593    2.286742   -1.093047
     18          1           0        3.593760    3.768118   -0.432798
     19          1           0        3.096889    3.652457    1.262089
     20          1           0        2.050781    4.467090    0.086784
     21          6           0       -2.533110   -1.096393    0.355948
     22          6           0       -1.471707   -1.956948   -0.330238
     23          6           0       -1.266160   -3.305099    0.361162
     24          1           0       -2.242736   -0.932720    1.402772
     25          1           0       -3.483730   -1.647069    0.377705
     26          1           0       -0.523721   -1.404257   -0.351927
     27          1           0       -1.764546   -2.118431   -1.375601
     28          1           0       -2.198098   -3.879567    0.369995
     29          1           0       -0.950223   -3.161334    1.399485
     30          1           0       -0.503196   -3.904070   -0.145772
     31          6           0       -2.749952    0.254475   -0.323658
     32          6           0       -3.811356    1.115031    0.362529
     33          6           0       -4.016902    2.463181   -0.328871
     34          1           0       -1.799332    0.805152   -0.345414
     35          1           0       -3.040326    0.090803   -1.370481
     36          1           0       -3.518517    1.276513    1.407892
     37          1           0       -4.759341    0.562338    0.384218
     38          1           0       -4.332840    2.319417   -1.367195
     39          1           0       -3.084965    3.037649   -0.337705
     40          1           0       -4.779866    3.062152    0.178063
 ---------------------------------------------------------------------

 SCF Done:  E(RHF) =  -470.732162596     A.U. after   11 cycles
 E2 =    -0.1584722383D+01 EUMP2 =    -0.47231688497889D+03

 The electronic state is 1-A.
 Alpha  occ. eigenvalues --  -11.21678 -11.21634 -11.21570 -11.21470 -11.21440
 Alpha  occ. eigenvalues --  -11.21411 -11.21347 -11.21288 -11.21125 -11.21045
 Alpha  occ. eigenvalues --  -11.21020 -11.20983  -1.08509  -1.08359  -1.03608
 Alpha  occ. eigenvalues --   -1.03442  -0.96060  -0.95897  -0.87103  -0.86888
 Alpha  occ. eigenvalues --   -0.79662  -0.79533  -0.78429  -0.78079  -0.65219
 Alpha  occ. eigenvalues --   -0.64929  -0.61119  -0.60774  -0.59474  -0.59229
 Alpha  occ. eigenvalues --   -0.57769  -0.57412  -0.55413  -0.55131  -0.52796
 Alpha  occ. eigenvalues --   -0.52689  -0.52493  -0.52174  -0.50081  -0.49738
 Alpha  occ. eigenvalues --   -0.47959  -0.47830  -0.46720  -0.46639  -0.46140
 Alpha  occ. eigenvalues --   -0.45785  -0.45705  -0.45130  -0.43838  -0.43710
 Alpha virt. eigenvalues --    0.20864   0.22734   0.23493   0.25136   0.25299
 Alpha virt. eigenvalues --    0.26397   0.26751   0.27356   0.29136   0.30066
 Alpha virt. eigenvalues --    0.30299   0.30895   0.31613   0.31660   0.32290

 Mulliken charges:
               1
     1  C   -0.302929
     2  C   -0.299405
     3  C   -0.482352
     4  H    0.152133
     5  H    0.150697
     6  H    0.151653
     7  H    0.151925
     8  H    0.154975
     9  H    0.164518
    10  H    0.159940
    11  C   -0.297345
    12  C   -0.300685
    13  C   -0.475733
    14  H    0.149597
    15  H    0.150101
    16  H    0.151544
    17  H    0.152483
    18  H    0.155535
    19  H    0.155329
    20  H    0.160478
    21  C   -0.297515
    22  C   -0.310232
    23  C   -0.479261
    24  H    0.148259
    25  H    0.149295
    26  H    0.164143
    27  H    0.151107
    28  H    0.155452
    29  H    0.152717
    30  H    0.164249
    31  C   -0.299632
    32  C   -0.299466
    33  C   -0.475712
    34  H    0.150787
    35  H    0.149517
    36  H    0.151514
    37  H    0.151881
    38  H    0.155100
    39  H    0.155278
    40  H    0.160059
 Sum of Mulliken charges =  -0.00000

 Dipole moment (field-independent basis, Debye):
    X=              0.0635    Y=              0.0026    Z=             -0.0166  Tot=              0.0657
 Quadrupole moment (field-independent basis, Debye-Ang):
   XX=            -84.5006   YY=            -86.7101   ZZ=            -83.6535
   XY=              0.1890   XZ=              0.0231   YZ=              0.4017

 Normal termination of Gaussian 16 at Thu May  6 00:42:07 2021.
