 Gaussian 16, Revision A.03,
 Gaussian 16:  EM64L-G16RevA.03 25-Dec-2016

 -------------
 #p 6-31g* mp2
 -------------

 ------------------------------------------------------
 Input file generated by CHIRIPA (05-May-2021 14:55:22)
 ------------------------------------------------------
 Symbolic Z-matrix:
 Charge =  0 Multiplicity = 1

                         Standard orientation:
 ---------------------------------------------------------------------
 Center     Atomic      Atomic             Coordinates (Angstroms)
 Number     Number       Type             X           Y           Z
 ---------------------------------------------------------------------
      1          6           0        0.862233   -2.167043    1.453143
      2          6           0        0.698703   -0.813792    1.766977
      3          6           0        1.392461    0.169090    1.054805
      4          6           0        2.245428   -0.238640    0.030357
      5          6           0        2.429542   -1.578861   -0.306094
      6          6           0        1.725608   -2.544592    0.419432
      7          1           0        0.319352   -2.923908    2.011563
      8          1           0        0.028863   -0.517663    2.569266
      9          1           0        1.284555    1.223840    1.276791
     10          1           0        3.104323   -1.843293   -1.111181
     11          1           0        1.854567   -3.594800    0.173505
     12          7           0        2.985265    0.792816   -0.730657
     13          8           0        3.730776    0.407631   -1.628700
     14          8           0        2.805629    1.966924   -0.414685
     15          6           0       -2.561723    1.248786   -0.379125
     16          6           0       -1.999961    2.055919    0.791748
     17          6           0       -1.692156    3.505845    0.416559
     18          1           0       -1.842246    1.269438   -1.209107
     19          1           0       -3.476005    1.735623   -0.745830
     20          1           0       -1.087772    1.566942    1.157026
     21          1           0       -2.720775    2.033183    1.619109
     22          1           0       -2.597972    4.015276    0.072209
     23          1           0       -0.955691    3.546387   -0.392500
     24          1           0       -1.291652    4.064553    1.268206
     25          6           0       -2.874421   -0.202677   -0.019675
     26          6           0       -3.436183   -1.009812   -1.190547
     27          6           0       -3.743988   -2.459737   -0.815359
     28          1           0       -1.960138   -0.689514    0.347032
     29          1           0       -3.593898   -0.223329    0.810308
     30          1           0       -2.715369   -0.987075   -2.017909
     31          1           0       -4.348372   -0.520834   -1.555825
     32          1           0       -4.480453   -2.500278   -0.006300
     33          1           0       -2.838171   -2.969168   -0.471008
     34          1           0       -4.144491   -3.018445   -1.667005
 ---------------------------------------------------------------------

 SCF Done:  E(RHF) =  -669.534568499     A.U. after   15 cycles
 E2 =    -0.2094397422D+01 EUMP2 =    -0.67162896592148D+03

 The electronic state is 1-A.
 Alpha  occ. eigenvalues --  -20.60867 -20.60861 -15.85919 -11.31310 -11.27871
 Alpha  occ. eigenvalues --  -11.27859 -11.27620 -11.26896 -11.26881 -11.21917
 Alpha  occ. eigenvalues --  -11.21868 -11.21627 -11.21561 -11.21466 -11.21113
 Alpha  occ. eigenvalues --   -1.59941  -1.39493  -1.19494  -1.08883  -1.08687
 Alpha  occ. eigenvalues --   -1.04906  -1.03793  -0.96217  -0.95707  -0.87233
 Alpha  occ. eigenvalues --   -0.86286  -0.82548  -0.79879  -0.78551  -0.77562
 Alpha  occ. eigenvalues --   -0.72137  -0.71266  -0.70595  -0.65372  -0.65123
 Alpha  occ. eigenvalues --   -0.64891  -0.62303  -0.61130  -0.59592  -0.57846
 Alpha  occ. eigenvalues --   -0.55507  -0.55375  -0.53265  -0.52981  -0.52890
 Alpha  occ. eigenvalues --   -0.52643  -0.50151  -0.48897  -0.48891  -0.48189
 Alpha  occ. eigenvalues --   -0.46912  -0.46057  -0.45973  -0.44890  -0.44029
 Alpha  occ. eigenvalues --   -0.37445  -0.36399
 Alpha virt. eigenvalues --    0.04902   0.11065   0.16289   0.20590   0.22915
 Alpha virt. eigenvalues --    0.23713   0.26026   0.26664   0.27308   0.28119
 Alpha virt. eigenvalues --    0.28810   0.30800   0.31354   0.31807   0.32334

 Mulliken charges:
               1
     1  C   -0.172225
     2  C   -0.216521
     3  C   -0.171550
     4  C    0.156992
     5  C   -0.171225
     6  C   -0.218357
     7  H    0.227038
     8  H    0.226693
     9  H    0.278100
    10  H    0.276077
    11  H    0.224240
    12  N    0.488066
    13  O   -0.459915
    14  O   -0.460167
    15  C   -0.297381
    16  C   -0.303794
    17  C   -0.477880
    18  H    0.153679
    19  H    0.151099
    20  H    0.143696
    21  H    0.149786
    22  H    0.156236
    23  H    0.165031
    24  H    0.159512
    25  C   -0.305479
    26  C   -0.299190
    27  C   -0.475271
    28  H    0.152730
    29  H    0.146176
    30  H    0.154196
    31  H    0.153163
    32  H    0.154354
    33  H    0.150398
    34  H    0.161694
 Sum of Mulliken charges =  -0.00000

 Dipole moment (field-independent basis, Debye):
    X=             -2.5116    Y=             -3.5994    Z=              2.5984  Tot=              5.1005
 Quadrupole moment (field-independent basis, Debye-Ang):
   XX=           -105.5938   YY=            -91.6016   ZZ=            -93.4573
   XY=            -10.0334   XZ=              4.6398   YZ=              1.4729

 Normal termination of Gaussian 16 at Thu May  6 19:13:31 2021.
