 Gaussian 16, Revision A.03,
 Gaussian 16:  EM64L-G16RevA.03 25-Dec-2016

 -------------
 #p 6-31g* mp2
 -------------

 ------------------------------------------------------
 Input file generated by CHIRIPA (05-May-2021 14:51:13)
 ------------------------------------------------------
 Symbolic Z-matrix:
 Charge =  0 Multiplicity = 1

                         Standard orientation:
 ---------------------------------------------------------------------
 Center     Atomic      Atomic             Coordinates (Angstroms)
 Number     Number       Type             X           Y           Z
 ---------------------------------------------------------------------
      1          6           0       -2.607895   -0.411110   -0.981108
      2          6           0       -1.770391   -1.677410   -0.799296
      3          6           0       -1.924869   -2.660103   -1.960436
      4          1           0       -3.664912   -0.690550   -1.088686
      5          1           0       -2.317461    0.080551   -1.919891
      6          1           0       -2.061351   -2.165798    0.139552
      7          1           0       -0.715267   -1.394911   -0.691947
      8          1           0       -1.615680   -2.195298   -2.902221
      9          1           0       -2.969413   -2.970565   -2.065998
     10          1           0       -1.317593   -3.558106   -1.809881
     11          6           0       -2.464053    0.581037    0.171577
     12          6           0       -3.301557    1.847337   -0.010235
     13          6           0       -3.147079    2.830030    1.150904
     14          1           0       -2.754487    0.089376    1.110359
     15          1           0       -1.407036    0.860477    0.279155
     16          1           0       -4.356681    1.564837   -0.117585
     17          1           0       -3.010596    2.335724   -0.949083
     18          1           0       -2.102535    3.140492    1.256466
     19          1           0       -3.456268    2.365224    2.092689
     20          1           0       -3.754355    3.728032    1.000349
     21          6           0        2.399092   -0.774536    0.703406
     22          6           0        1.263030   -0.777470    1.726802
     23          6           0        1.001124   -2.164138    2.315321
     24          1           0        2.157495   -1.477941   -0.105171
     25          1           0        3.314603   -1.149999    1.181171
     26          1           0        0.350270   -0.400810    1.247625
     27          1           0        1.507272   -0.073833    2.532939
     28          1           0        1.896085   -2.544475    2.818302
     29          1           0        0.732509   -2.873309    1.525686
     30          1           0        0.185192   -2.143233    3.044481
     31          6           0        2.672856    0.604608    0.106126
     32          6           0        3.808918    0.607544   -0.917271
     33          6           0        4.070823    1.994211   -1.505789
     34          1           0        1.757344    0.980073   -0.371639
     35          1           0        2.914453    1.308014    0.914702
     36          1           0        3.564676   -0.096093   -1.723407
     37          1           0        4.721678    0.230883   -0.438094
     38          1           0        4.339438    2.703382   -0.716154
     39          1           0        3.175862    2.374549   -2.008771
     40          1           0        4.886756    1.973306   -2.234950
 ---------------------------------------------------------------------

 SCF Done:  E(RHF) =  -470.732480488     A.U. after   11 cycles
 E2 =    -0.1584733114D+01 EUMP2 =    -0.47231721360132D+03

 The electronic state is 1-A.
 Alpha  occ. eigenvalues --  -11.21649 -11.21640 -11.21629 -11.21470 -11.21463
 Alpha  occ. eigenvalues --  -11.21427 -11.21403 -11.21349 -11.21128 -11.21098
 Alpha  occ. eigenvalues --  -11.21088 -11.20998  -1.08525  -1.08402  -1.03595
 Alpha  occ. eigenvalues --   -1.03492  -0.96030  -0.95966  -0.87044  -0.86983
 Alpha  occ. eigenvalues --   -0.79650  -0.79593  -0.78438  -0.78130  -0.65344
 Alpha  occ. eigenvalues --   -0.64877  -0.61065  -0.60844  -0.59376  -0.59338
 Alpha  occ. eigenvalues --   -0.57671  -0.57550  -0.55322  -0.55256  -0.52725
 Alpha  occ. eigenvalues --   -0.52650  -0.52459  -0.52386  -0.49988  -0.49908
 Alpha  occ. eigenvalues --   -0.47995  -0.47918  -0.46832  -0.46666  -0.46189
 Alpha  occ. eigenvalues --   -0.45787  -0.45745  -0.45027  -0.43833  -0.43765
 Alpha virt. eigenvalues --    0.20089   0.23018   0.23678   0.24357   0.25177
 Alpha virt. eigenvalues --    0.26332   0.26648   0.27980   0.28455   0.30158
 Alpha virt. eigenvalues --    0.30831   0.31359   0.31702   0.31779   0.32197

 Mulliken charges:
               1
     1  C   -0.298114
     2  C   -0.305939
     3  C   -0.475570
     4  H    0.150042
     5  H    0.149072
     6  H    0.153524
     7  H    0.157319
     8  H    0.155056
     9  H    0.155560
    10  H    0.160120
    11  C   -0.304293
    12  C   -0.298987
    13  C   -0.475840
    14  H    0.149923
    15  H    0.154472
    16  H    0.152125
    17  H    0.151821
    18  H    0.155639
    19  H    0.155287
    20  H    0.160353
    21  C   -0.299641
    22  C   -0.310379
    23  C   -0.475578
    24  H    0.149706
    25  H    0.149846
    26  H    0.164012
    27  H    0.151516
    28  H    0.154472
    29  H    0.156232
    30  H    0.159595
    31  C   -0.299279
    32  C   -0.299605
    33  C   -0.475695
    34  H    0.148357
    35  H    0.150057
    36  H    0.151919
    37  H    0.152324
    38  H    0.155289
    39  H    0.154868
    40  H    0.160410
 Sum of Mulliken charges =  -0.00000

 Dipole moment (field-independent basis, Debye):
    X=             -0.0366    Y=              0.0056    Z=             -0.0015  Tot=              0.0371
 Quadrupole moment (field-independent basis, Debye-Ang):
   XX=            -83.7665   YY=            -86.1001   ZZ=            -84.9085
   XY=              0.2218   XZ=              0.2275   YZ=             -0.1783

 Normal termination of Gaussian 16 at Thu May  6 00:49:03 2021.
