 Gaussian 16, Revision A.03,
 Gaussian 16:  EM64L-G16RevA.03 25-Dec-2016

 -------------
 #p 6-31g* mp2
 -------------

 ------------------------------------------------------
 Input file generated by CHIRIPA (05-May-2021 14:53:12)
 ------------------------------------------------------
 Symbolic Z-matrix:
 Charge =  0 Multiplicity = 1

                         Standard orientation:
 ---------------------------------------------------------------------
 Center     Atomic      Atomic             Coordinates (Angstroms)
 Number     Number       Type             X           Y           Z
 ---------------------------------------------------------------------
      1          6           0       -2.271967    1.567094   -0.286800
      2          6           0       -0.869160    2.165645   -0.177925
      3          6           0       -0.750567    3.523768   -0.870191
      4          1           0       -2.538417    1.464036   -1.347615
      5          1           0       -2.996823    2.267352    0.150941
      6          1           0       -0.147002    1.463854   -0.614495
      7          1           0       -0.605942    2.267112    0.882753
      8          1           0       -1.448663    4.242956   -0.429701
      9          1           0       -0.987115    3.435135   -1.935456
     10          1           0        0.260347    3.933396   -0.780084
     11          6           0       -2.406320    0.209373    0.400420
     12          6           0       -3.809127   -0.389179    0.291544
     13          6           0       -3.927720   -1.747301    0.983810
     14          1           0       -1.681464   -0.490885   -0.037321
     15          1           0       -2.139870    0.312430    1.461235
     16          1           0       -4.072344   -0.490645   -0.769134
     17          1           0       -4.531285    0.312612    0.728114
     18          1           0       -3.691172   -1.658669    2.049076
     19          1           0       -3.229624   -2.466490    0.543321
     20          1           0       -4.938633   -2.156929    0.893703
     21          6           0        3.131196    0.795093    1.520542
     22          6           0        3.255171    0.955021    0.136498
     23          6           0        2.537601    0.135652   -0.740015
     24          6           0        1.701415   -0.837885   -0.195674
     25          6           0        1.556609   -1.021786    1.178554
     26          6           0        2.283804   -0.191061    2.036243
     27          1           0        3.692361    1.436009    2.194127
     28          1           0        3.912518    1.720049   -0.266826
     29          1           0        2.614795    0.237790   -1.815666
     30          1           0        0.893446   -1.793169    1.550849
     31          1           0        2.185554   -0.317534    3.110671
     32          7           0        0.936660   -1.711326   -1.113635
     33          8           0        0.206637   -2.561615   -0.608945
     34          8           0        1.081749   -1.529101   -2.320441
 ---------------------------------------------------------------------

 SCF Done:  E(RHF) =  -669.535582007     A.U. after   15 cycles
 E2 =    -0.2094999214D+01 EUMP2 =    -0.67163058122097D+03

 The electronic state is 1-A.
 Alpha  occ. eigenvalues --  -20.61009 -20.61004 -15.86007 -11.31255 -11.27840
 Alpha  occ. eigenvalues --  -11.27834 -11.27589 -11.26852 -11.26840 -11.21391
 Alpha  occ. eigenvalues --  -11.21067 -11.21046 -11.21029 -11.20887 -11.20423
 Alpha  occ. eigenvalues --   -1.60061  -1.39618  -1.19457  -1.08872  -1.08058
 Alpha  occ. eigenvalues --   -1.04844  -1.03165  -0.95720  -0.95622  -0.86642
 Alpha  occ. eigenvalues --   -0.86247  -0.82556  -0.79256  -0.77902  -0.77597
 Alpha  occ. eigenvalues --   -0.72244  -0.71388  -0.70566  -0.65114  -0.64848
 Alpha  occ. eigenvalues --   -0.64674  -0.62192  -0.60572  -0.59032  -0.57239
 Alpha  occ. eigenvalues --   -0.55356  -0.54900  -0.53249  -0.52936  -0.52314
 Alpha  occ. eigenvalues --   -0.52043  -0.49561  -0.49015  -0.48998  -0.47544
 Alpha  occ. eigenvalues --   -0.46317  -0.45590  -0.45385  -0.44666  -0.43420
 Alpha  occ. eigenvalues --   -0.37374  -0.36409
 Alpha virt. eigenvalues --    0.04888   0.11135   0.16356   0.21286   0.23144
 Alpha virt. eigenvalues --    0.24591   0.26696   0.27128   0.27498   0.28141
 Alpha virt. eigenvalues --    0.28544   0.30976   0.31590   0.31997   0.32138

 Mulliken charges:
               1
     1  C   -0.298331
     2  C   -0.301989
     3  C   -0.475040
     4  H    0.152839
     5  H    0.147087
     6  H    0.153776
     7  H    0.148032
     8  H    0.154656
     9  H    0.157132
    10  H    0.154215
    11  C   -0.305405
    12  C   -0.298018
    13  C   -0.479523
    14  H    0.159753
    15  H    0.142158
    16  H    0.154924
    17  H    0.148085
    18  H    0.148736
    19  H    0.169135
    20  H    0.158174
    21  C   -0.170320
    22  C   -0.215679
    23  C   -0.173856
    24  C    0.159921
    25  C   -0.169568
    26  C   -0.217969
    27  H    0.226078
    28  H    0.223934
    29  H    0.275622
    30  H    0.276369
    31  H    0.223892
    32  N    0.488108
    33  O   -0.458670
    34  O   -0.458259
 Sum of Mulliken charges =  -0.00000

 Dipole moment (field-independent basis, Debye):
    X=              2.8367    Y=              2.9014    Z=              3.1537  Tot=              5.1392
 Quadrupole moment (field-independent basis, Debye-Ang):
   XX=            -85.5202   YY=           -100.3896   ZZ=            -92.6450
   XY=              4.0579   XZ=              3.5637   YZ=             -4.5257

 Normal termination of Gaussian 16 at Wed May  5 15:31:29 2021.
