 Gaussian 16, Revision A.03,
 Gaussian 16:  EM64L-G16RevA.03 25-Dec-2016

 -------------
 #p 6-31g* mp2
 -------------

 ------------------------------------------------------
 Input file generated by CHIRIPA (05-May-2021 14:55:21)
 ------------------------------------------------------
 Symbolic Z-matrix:
 Charge =  0 Multiplicity = 1

                         Standard orientation:
 ---------------------------------------------------------------------
 Center     Atomic      Atomic             Coordinates (Angstroms)
 Number     Number       Type             X           Y           Z
 ---------------------------------------------------------------------
      1          6           0       -1.610814    2.204400    0.431644
      2          6           0       -2.774885    2.435774   -0.308576
      3          6           0       -3.707683    1.412741   -0.503102
      4          6           0       -3.443320    0.164899    0.059296
      5          6           0       -2.292838   -0.096730    0.801746
      6          6           0       -1.373923    0.941114    0.983470
      7          1           0       -0.891586    3.004870    0.577784
      8          1           0       -2.961479    3.415860   -0.738296
      9          1           0       -4.617083    1.564417   -1.071787
     10          1           0       -2.134454   -1.084254    1.217832
     11          1           0       -0.470751    0.758549    1.558792
     12          7           0       -4.423483   -0.925980   -0.139863
     13          8           0       -4.167260   -2.016443    0.365979
     14          8           0       -5.429398   -0.669891   -0.798035
     15          6           0        4.785014   -0.102527   -0.474677
     16          6           0        5.988561    0.146651    0.434922
     17          6           0        7.149489    0.824783   -0.293211
     18          1           0        5.098619   -0.722913   -1.325393
     19          1           0        4.446716    0.855097   -0.894086
     20          1           0        6.323630   -0.810987    0.853579
     21          1           0        5.672011    0.766357    1.283673
     22          1           0        6.837809    1.793565   -0.696841
     23          1           0        7.493129    0.207259   -1.129378
     24          1           0        7.999222    0.993440    0.375646
     25          6           0        3.616337   -0.779877    0.238849
     26          6           0        2.412790   -1.029055   -0.670750
     27          6           0        1.251862   -1.707187    0.057383
     28          1           0        3.954636   -1.737502    0.658257
     29          1           0        3.302733   -0.159491    1.089565
     30          1           0        2.729340   -1.648761   -1.519501
     31          1           0        2.077721   -0.071417   -1.089407
     32          1           0        0.908222   -1.089663    0.893550
     33          1           0        1.563542   -2.675969    0.461013
     34          1           0        0.402130   -1.875844   -0.611475
 ---------------------------------------------------------------------

 SCF Done:  E(RHF) =  -669.534980116     A.U. after   15 cycles
 E2 =    -0.2091705679D+01 EUMP2 =    -0.67162668579498D+03

 The electronic state is 1-A.
 Alpha  occ. eigenvalues --  -20.60744 -20.60739 -15.85798 -11.31163 -11.27736
 Alpha  occ. eigenvalues --  -11.27717 -11.27484 -11.26757 -11.26735 -11.22161
 Alpha  occ. eigenvalues --  -11.22031 -11.21950 -11.21847 -11.21703 -11.21442
 Alpha  occ. eigenvalues --   -1.59820  -1.39373  -1.19340  -1.08947  -1.08737
 Alpha  occ. eigenvalues --   -1.04749  -1.04031  -0.96493  -0.95569  -0.87514
 Alpha  occ. eigenvalues --   -0.86143  -0.82406  -0.80100  -0.78754  -0.77447
 Alpha  occ. eigenvalues --   -0.72016  -0.71144  -0.70449  -0.65605  -0.64993
 Alpha  occ. eigenvalues --   -0.64763  -0.62177  -0.61371  -0.59844  -0.58088
 Alpha  occ. eigenvalues --   -0.55823  -0.55237  -0.53255  -0.53004  -0.52969
 Alpha  occ. eigenvalues --   -0.52752  -0.50422  -0.48777  -0.48770  -0.48407
 Alpha  occ. eigenvalues --   -0.47133  -0.46297  -0.46220  -0.44779  -0.44284
 Alpha  occ. eigenvalues --   -0.37327  -0.36309
 Alpha virt. eigenvalues --    0.05076   0.11255   0.16498   0.20173   0.22570
 Alpha virt. eigenvalues --    0.23856   0.25510   0.26461   0.27084   0.28145
 Alpha virt. eigenvalues --    0.28818   0.29661   0.31210   0.31444   0.32130

 Mulliken charges:
               1
     1  C   -0.171947
     2  C   -0.218604
     3  C   -0.171081
     4  C    0.157567
     5  C   -0.169921
     6  C   -0.217549
     7  H    0.225240
     8  H    0.223259
     9  H    0.275498
    10  H    0.276945
    11  H    0.224382
    12  N    0.488123
    13  O   -0.460252
    14  O   -0.460611
    15  C   -0.298340
    16  C   -0.299787
    17  C   -0.475878
    18  H    0.151836
    19  H    0.148173
    20  H    0.153312
    21  H    0.150594
    22  H    0.154693
    23  H    0.156413
    24  H    0.161299
    25  C   -0.297780
    26  C   -0.300793
    27  C   -0.476312
    28  H    0.152064
    29  H    0.144152
    30  H    0.156151
    31  H    0.150708
    32  H    0.142219
    33  H    0.159130
    34  H    0.167097
 Sum of Mulliken charges =  -0.00000

 Dipole moment (field-independent basis, Debye):
    X=              3.5533    Y=              3.7759    Z=              0.6241  Tot=              5.2223
 Quadrupole moment (field-independent basis, Debye-Ang):
   XX=           -117.7303   YY=            -91.2122   ZZ=            -94.0109
   XY=            -15.7528   XZ=             -0.3346   YZ=             -1.0649

 Normal termination of Gaussian 16 at Thu May  6 12:29:22 2021.
