 Gaussian 16, Revision A.03,
 Gaussian 16:  EM64L-G16RevA.03 25-Dec-2016

 -------------
 #p 6-31g* mp2
 -------------

 ------------------------------------------------------
 Input file generated by CHIRIPA (05-May-2021 14:57:26)
 ------------------------------------------------------
 Symbolic Z-matrix:
 Charge =  0 Multiplicity = 1

                         Standard orientation:
 ---------------------------------------------------------------------
 Center     Atomic      Atomic             Coordinates (Angstroms)
 Number     Number       Type             X           Y           Z
 ---------------------------------------------------------------------
      1          6           0       -5.614087    0.796138    0.286258
      2          6           0       -4.474532    1.568477    0.038410
      3          6           0       -3.242679    0.956518   -0.211776
      4          6           0       -3.186239   -0.436349   -0.206508
      5          6           0       -4.303799   -1.233239    0.037040
      6          6           0       -5.525240   -0.599794    0.284785
      7          1           0       -6.566976    1.279868    0.479660
      8          1           0       -4.540565    2.652767    0.038931
      9          1           0       -2.344762    1.530269   -0.406643
     10          1           0       -4.206711   -2.312100    0.029956
     11          1           0       -6.408586   -1.202135    0.476954
     12          7           0       -1.887643   -1.095576   -0.470076
     13          8           0       -1.864313   -2.324392   -0.459893
     14          8           0       -0.917722   -0.370979   -0.681854
     15          6           0        1.492670    1.961518    0.403168
     16          6           0        1.595920    0.872896    1.275384
     17          6           0        2.648669   -0.038675    1.151652
     18          6           0        3.584682    0.169749    0.139857
     19          6           0        3.509090    1.244593   -0.744612
     20          6           0        2.447900    2.143572   -0.602274
     21          1           0        0.671591    2.664758    0.506513
     22          1           0        0.855529    0.729010    2.057152
     23          1           0        2.752673   -0.890077    1.813251
     24          1           0        4.262455    1.361675   -1.514125
     25          1           0        2.370236    2.988107   -1.281077
     26          7           0        4.703648   -0.788625   -0.000982
     27          8           0        5.515354   -0.582756   -0.900642
     28          8           0        4.747799   -1.727519    0.790955
 ---------------------------------------------------------------------

 SCF Done:  E(RHF) =  -868.336879470     A.U. after   16 cycles
 E2 =    -0.2600632588D+01 EUMP2 =    -0.87093751205801D+03

 The electronic state is 1-A.
 Alpha  occ. eigenvalues --  -20.61338 -20.61333 -20.59883 -20.59870 -15.86370
 Alpha  occ. eigenvalues --  -15.84928 -11.31804 -11.30164 -11.28434 -11.28323
 Alpha  occ. eigenvalues --  -11.28081 -11.27412 -11.27341 -11.26759 -11.26690
 Alpha  occ. eigenvalues --  -11.26560 -11.25815 -11.25753  -1.60411  -1.58953
 Alpha  occ. eigenvalues --   -1.39965  -1.38512  -1.19970  -1.18326  -1.09347
 Alpha  occ. eigenvalues --   -1.07774  -1.05382  -1.03734  -0.96176  -0.94636
 Alpha  occ. eigenvalues --   -0.86774  -0.85170  -0.83006  -0.81485  -0.78061
 Alpha  occ. eigenvalues --   -0.76527  -0.72593  -0.71747  -0.71162  -0.71068
 Alpha  occ. eigenvalues --   -0.70263  -0.69546  -0.65618  -0.65376  -0.64026
 Alpha  occ. eigenvalues --   -0.63806  -0.62736  -0.61122  -0.55855  -0.54356
 Alpha  occ. eigenvalues --   -0.53705  -0.53469  -0.52010  -0.51890  -0.49366
 Alpha  occ. eigenvalues --   -0.49335  -0.47916  -0.47908  -0.45359  -0.43948
 Alpha  occ. eigenvalues --   -0.37941  -0.36990  -0.36257  -0.35247
 Alpha virt. eigenvalues --    0.04458   0.06017   0.10661   0.12372   0.15987
 Alpha virt. eigenvalues --    0.17483   0.20392   0.22050   0.26072   0.27263
 Alpha virt. eigenvalues --    0.28121   0.29013   0.30710   0.31281   0.33281

 Mulliken charges:
               1
     1  C   -0.170681
     2  C   -0.217981
     3  C   -0.172941
     4  C    0.158422
     5  C   -0.170653
     6  C   -0.218073
     7  H    0.227396
     8  H    0.222995
     9  H    0.268836
    10  H    0.277782
    11  H    0.225799
    12  N    0.488291
    13  O   -0.456741
    14  O   -0.462062
    15  C   -0.160909
    16  C   -0.201322
    17  C   -0.166978
    18  C    0.159801
    19  C   -0.170620
    20  C   -0.217277
    21  H    0.213176
    22  H    0.216809
    23  H    0.273804
    24  H    0.272267
    25  H    0.217595
    26  N    0.488321
    27  O   -0.463574
    28  O   -0.461482
 Sum of Mulliken charges =  -0.00000

 Dipole moment (field-independent basis, Debye):
    X=             -8.7989    Y=              5.4923    Z=              1.4243  Tot=             10.4697
 Quadrupole moment (field-independent basis, Debye-Ang):
   XX=           -103.5385   YY=           -101.2767   ZZ=           -103.3426
   XY=              9.2573   XZ=             -2.6761   YZ=             -3.2201

 Normal termination of Gaussian 16 at Thu May  6 02:02:19 2021.
