 Gaussian 16, Revision A.03,
 Gaussian 16:  EM64L-G16RevA.03 25-Dec-2016

 -------------
 #p 6-31g* mp2
 -------------

 ------------------------------------------------------
 Input file generated by CHIRIPA (05-May-2021 14:55:23)
 ------------------------------------------------------
 Symbolic Z-matrix:
 Charge =  0 Multiplicity = 1

                         Standard orientation:
 ---------------------------------------------------------------------
 Center     Atomic      Atomic             Coordinates (Angstroms)
 Number     Number       Type             X           Y           Z
 ---------------------------------------------------------------------
      1          6           0       -3.983898    1.268630    0.924089
      2          6           0       -2.745251    1.079856    1.545892
      3          6           0       -1.860440    0.101206    1.083397
      4          6           0       -2.248312   -0.674306   -0.008128
      5          6           0       -3.475438   -0.510300   -0.648873
      6          6           0       -4.344403    0.474350   -0.169381
      7          1           0       -4.665086    2.031200    1.289968
      8          1           0       -2.462624    1.695239    2.395286
      9          1           0       -0.895371   -0.066178    1.546044
     10          1           0       -3.729212   -1.139189   -1.493571
     11          1           0       -5.305708    0.618728   -0.654244
     12          7           0       -1.319990   -1.713535   -0.506747
     13          8           0       -1.685315   -2.383723   -1.470087
     14          8           0       -0.244625   -1.838217    0.075216
     15          6           0        3.041628    1.405353   -0.145369
     16          6           0        1.766840    1.915229   -0.818368
     17          6           0        1.717379    3.440531   -0.912176
     18          1           0        3.115590    1.838652    0.861472
     19          1           0        3.914194    1.767619   -0.706428
     20          1           0        0.896901    1.550960   -0.257002
     21          1           0        1.695807    1.480516   -1.823652
     22          1           0        2.566729    3.818685   -1.490282
     23          1           0        1.763284    3.889530    0.085269
     24          1           0        0.797752    3.783355   -1.396550
     25          6           0        3.105729   -0.117599   -0.044202
     26          6           0        4.380516   -0.627475    0.628798
     27          6           0        4.429977   -2.152777    0.722605
     28          1           0        2.233163   -0.479866    0.516857
     29          1           0        3.031767   -0.550898   -1.051042
     30          1           0        4.451550   -0.192762    1.634080
     31          1           0        5.250455   -0.263206    0.067432
     32          1           0        4.384072   -2.601775   -0.274838
     33          1           0        3.580628   -2.530931    1.300711
     34          1           0        5.349604   -2.495601    1.206980
 ---------------------------------------------------------------------

 SCF Done:  E(RHF) =  -669.535947421     A.U. after   15 cycles
 E2 =    -0.2092270161D+01 EUMP2 =    -0.67162821758270D+03

 The electronic state is 1-A.
 Alpha  occ. eigenvalues --  -20.60906 -20.60896 -15.85938 -11.31294 -11.27866
 Alpha  occ. eigenvalues --  -11.27844 -11.27586 -11.26873 -11.26861 -11.21279
 Alpha  occ. eigenvalues --  -11.20927 -11.20873 -11.20840 -11.20390 -11.20179
 Alpha  occ. eigenvalues --   -1.59962  -1.39519  -1.19460  -1.08855  -1.07804
 Alpha  occ. eigenvalues --   -1.04862  -1.02967  -0.95696  -0.95398  -0.86416
 Alpha  occ. eigenvalues --   -0.86258  -0.82532  -0.79057  -0.77688  -0.77427
 Alpha  occ. eigenvalues --   -0.72163  -0.71273  -0.70567  -0.65119  -0.64870
 Alpha  occ. eigenvalues --   -0.64445  -0.62211  -0.60380  -0.58799  -0.56993
 Alpha  occ. eigenvalues --   -0.55360  -0.54691  -0.53186  -0.52954  -0.52145
 Alpha  occ. eigenvalues --   -0.51797  -0.49346  -0.48923  -0.48914  -0.47359
 Alpha  occ. eigenvalues --   -0.46118  -0.45328  -0.45045  -0.44579  -0.43184
 Alpha  occ. eigenvalues --   -0.37429  -0.36452
 Alpha virt. eigenvalues --    0.04919   0.11103   0.16420   0.20857   0.23144
 Alpha virt. eigenvalues --    0.24856   0.25769   0.27520   0.27658   0.28467
 Alpha virt. eigenvalues --    0.29173   0.31211   0.31793   0.32107   0.32426

 Mulliken charges:
               1
     1  C   -0.170641
     2  C   -0.218886
     3  C   -0.170396
     4  C    0.158781
     5  C   -0.170923
     6  C   -0.218207
     7  H    0.226079
     8  H    0.224054
     9  H    0.275553
    10  H    0.275887
    11  H    0.223901
    12  N    0.491476
    13  O   -0.459339
    14  O   -0.462811
    15  C   -0.298356
    16  C   -0.299171
    17  C   -0.474982
    18  H    0.143924
    19  H    0.147811
    20  H    0.146633
    21  H    0.155097
    22  H    0.155925
    23  H    0.151321
    24  H    0.157582
    25  C   -0.304378
    26  C   -0.299558
    27  C   -0.474901
    28  H    0.166649
    29  H    0.153531
    30  H    0.146514
    31  H    0.148230
    32  H    0.157693
    33  H    0.160760
    34  H    0.155145
 Sum of Mulliken charges =  -0.00000

 Dipole moment (field-independent basis, Debye):
    X=             -3.4613    Y=              3.4679    Z=              1.6985  Tot=              5.1857
 Quadrupole moment (field-independent basis, Debye-Ang):
   XX=            -78.6151   YY=           -101.6205   ZZ=            -91.8658
   XY=             -5.4185   XZ=             -1.9909   YZ=              0.1355

 Normal termination of Gaussian 16 at Thu May  6 11:01:49 2021.
