 Gaussian 16, Revision A.03,
 Gaussian 16:  EM64L-G16RevA.03 25-Dec-2016

 -------------
 #p 6-31g* mp2
 -------------

 ------------------------------------------------------
 Input file generated by CHIRIPA (05-May-2021 14:51:08)
 ------------------------------------------------------
 Symbolic Z-matrix:
 Charge =  0 Multiplicity = 1

                         Standard orientation:
 ---------------------------------------------------------------------
 Center     Atomic      Atomic             Coordinates (Angstroms)
 Number     Number       Type             X           Y           Z
 ---------------------------------------------------------------------
      1          6           0       -5.190787   -0.562914   -0.063209
      2          6           0       -6.211172    0.546991   -0.317983
      3          6           0       -7.618494    0.008186   -0.576686
      4          1           0       -5.172292   -1.240731   -0.927598
      5          1           0       -5.518766   -1.162502    0.797209
      6          1           0       -5.880658    1.145153   -1.176808
      7          1           0       -6.227101    1.222352    0.547030
      8          1           0       -7.972780   -0.571764    0.281650
      9          1           0       -7.624368   -0.649403   -1.451983
     10          1           0       -8.331886    0.818528   -0.756348
     11          6           0       -3.779201   -0.040027    0.197063
     12          6           0       -2.758816   -1.149932    0.451837
     13          6           0       -1.351494   -0.611127    0.710540
     14          1           0       -3.451222    0.559561   -0.663355
     15          1           0       -3.797696    0.637790    1.061452
     16          1           0       -2.742887   -1.825293   -0.413176
     17          1           0       -3.089330   -1.748094    1.310662
     18          1           0       -1.345620    0.046462    1.585837
     19          1           0       -0.997208   -0.031177   -0.147796
     20          1           0       -0.638102   -1.421469    0.890202
     21          6           0        5.247161    0.334142   -0.105199
     22          6           0        5.905918   -1.037148   -0.258784
     23          6           0        7.430861   -0.955320   -0.333943
     24          1           0        5.540359    0.971465   -0.950658
     25          1           0        5.634347    0.819724    0.801273
     26          1           0        5.516575   -1.520576   -1.163950
     27          1           0        5.610965   -1.671343    0.587039
     28          1           0        7.837206   -0.496467    0.573216
     29          1           0        7.742280   -0.344844   -1.187721
     30          1           0        7.881188   -1.946806   -0.443589
     31          6           0        3.722826    0.268799   -0.028655
     32          6           0        3.064070    1.640089    0.124930
     33          6           0        1.539128    1.558261    0.200089
     34          1           0        3.335641   -0.216783   -0.935127
     35          1           0        3.429629   -0.368524    0.816804
     36          1           0        3.359023    2.274284   -0.720893
     37          1           0        3.453413    2.123517    1.030096
     38          1           0        1.227708    0.947785    1.053867
     39          1           0        1.132782    1.099408   -0.707070
     40          1           0        1.088800    2.549747    0.309735
 ---------------------------------------------------------------------

 SCF Done:  E(RHF) =  -470.732458724     A.U. after   11 cycles
 E2 =    -0.1582736840D+01 EUMP2 =    -0.47231519556414D+03

 The electronic state is 1-A.
 Alpha  occ. eigenvalues --  -11.21579 -11.21572 -11.21522 -11.21509 -11.21366
 Alpha  occ. eigenvalues --  -11.21359 -11.21305 -11.21297 -11.21054 -11.21049
 Alpha  occ. eigenvalues --  -11.20935 -11.20923  -1.08393  -1.08371  -1.03517
 Alpha  occ. eigenvalues --   -1.03435  -0.96020  -0.95836  -0.87104  -0.86792
 Alpha  occ. eigenvalues --   -0.79704  -0.79388  -0.78233  -0.78151  -0.65032
 Alpha  occ. eigenvalues --   -0.64997  -0.60945  -0.60813  -0.59333  -0.59256
 Alpha  occ. eigenvalues --   -0.57666  -0.57434  -0.55350  -0.55092  -0.52844
 Alpha  occ. eigenvalues --   -0.52637  -0.52483  -0.52001  -0.50023  -0.49708
 Alpha  occ. eigenvalues --   -0.48081  -0.47598  -0.46668  -0.46464  -0.45828
 Alpha  occ. eigenvalues --   -0.45695  -0.45642  -0.45567  -0.43738  -0.43714
 Alpha virt. eigenvalues --    0.22582   0.22994   0.23685   0.24760   0.26148
 Alpha virt. eigenvalues --    0.26414   0.26888   0.27543   0.27743   0.29333
 Alpha virt. eigenvalues --    0.29611   0.31353   0.31655   0.32053   0.32352

 Mulliken charges:
               1
     1  C   -0.298171
     2  C   -0.299581
     3  C   -0.475667
     4  H    0.149485
     5  H    0.149422
     6  H    0.151843
     7  H    0.151877
     8  H    0.155131
     9  H    0.155109
    10  H    0.160141
    11  C   -0.298111
    12  C   -0.301000
    13  C   -0.476656
    14  H    0.149350
    15  H    0.149523
    16  H    0.151279
    17  H    0.151113
    18  H    0.154191
    19  H    0.161164
    20  H    0.158927
    21  C   -0.298182
    22  C   -0.299591
    23  C   -0.475672
    24  H    0.149534
    25  H    0.149441
    26  H    0.151822
    27  H    0.151863
    28  H    0.155150
    29  H    0.155129
    30  H    0.160149
    31  C   -0.298011
    32  C   -0.300384
    33  C   -0.477179
    34  H    0.149242
    35  H    0.149523
    36  H    0.151208
    37  H    0.151393
    38  H    0.161577
    39  H    0.154409
    40  H    0.159208
 Sum of Mulliken charges =  -0.00000

 Dipole moment (field-independent basis, Debye):
    X=              0.0069    Y=              0.0108    Z=              0.0059  Tot=              0.0141
 Quadrupole moment (field-independent basis, Debye-Ang):
   XX=            -87.4580   YY=            -84.9529   ZZ=            -82.7554
   XY=             -0.2330   XZ=             -0.2547   YZ=             -0.0735

 Normal termination of Gaussian 16 at Thu May  6 14:51:24 2021.
