 Gaussian 16, Revision A.03,
 Gaussian 16:  EM64L-G16RevA.03 25-Dec-2016

 -------------
 #p 6-31g* mp2
 -------------

 ------------------------------------------------------
 Input file generated by CHIRIPA (05-May-2021 14:57:26)
 ------------------------------------------------------
 Symbolic Z-matrix:
 Charge =  0 Multiplicity = 1

                         Standard orientation:
 ---------------------------------------------------------------------
 Center     Atomic      Atomic             Coordinates (Angstroms)
 Number     Number       Type             X           Y           Z
 ---------------------------------------------------------------------
      1          6           0        5.474890    1.470407    0.734557
      2          6           0        5.367819    0.199858    1.309676
      3          6           0        4.324143   -0.657352    0.948458
      4          6           0        3.400997   -0.209648    0.004713
      5          6           0        3.480696    1.050457   -0.586111
      6          6           0        4.532648    1.890910   -0.209836
      7          1           0        6.288857    2.129800    1.021008
      8          1           0        6.098130   -0.129368    2.043365
      9          1           0        4.217446   -1.646064    1.377973
     10          1           0        2.737449    1.350631   -1.314738
     11          1           0        4.613306    2.877101   -0.658129
     12          7           0        2.291724   -1.108269   -0.385663
     13          8           0        1.491295   -0.690189   -1.219426
     14          8           0        2.243707   -2.213671    0.149516
     15          6           0       -5.544078    0.728868    1.372470
     16          6           0       -4.872420   -0.473422    1.617203
     17          6           0       -3.785003   -0.853255    0.824865
     18          6           0       -3.394309   -0.002970   -0.208413
     19          6           0       -4.043148    1.201201   -0.477244
     20          6           0       -5.128033    1.560876    0.327870
     21          1           0       -6.387827    1.016102    1.992940
     22          1           0       -5.193323   -1.121542    2.427761
     23          1           0       -3.247071   -1.778470    0.992270
     24          1           0       -3.700040    1.826486   -1.292543
     25          1           0       -5.647769    2.495173    0.135495
     26          7           0       -2.244450   -0.394412   -1.053988
     27          8           0       -1.919848    0.372246   -1.958148
     28          8           0       -1.689565   -1.460470   -0.796578
 ---------------------------------------------------------------------

 SCF Done:  E(RHF) =  -868.334314116     A.U. after   16 cycles
 E2 =    -0.2600927433D+01 EUMP2 =    -0.87093524154973D+03

 The electronic state is 1-A.
 Alpha  occ. eigenvalues --  -20.59558 -20.59554 -20.59465 -20.59459 -15.84588
 Alpha  occ. eigenvalues --  -15.84580 -11.30418 -11.30387 -11.27061 -11.27031
 Alpha  occ. eigenvalues --  -11.27014 -11.26979 -11.26874 -11.26848 -11.26173
 Alpha  occ. eigenvalues --  -11.26144 -11.26139 -11.26113  -1.58594  -1.58562
 Alpha  occ. eigenvalues --   -1.38138  -1.38113  -1.18635  -1.18606  -1.07949
 Alpha  occ. eigenvalues --   -1.07913  -1.04105  -1.04072  -0.94724  -0.94645
 Alpha  occ. eigenvalues --   -0.85482  -0.85449  -0.81543  -0.81491  -0.76507
 Alpha  occ. eigenvalues --   -0.76466  -0.70841  -0.70731  -0.70039  -0.69832
 Alpha  occ. eigenvalues --   -0.69739  -0.69706  -0.64274  -0.64245  -0.64112
 Alpha  occ. eigenvalues --   -0.64074  -0.61446  -0.61410  -0.54597  -0.54562
 Alpha  occ. eigenvalues --   -0.52417  -0.52382  -0.52203  -0.52168  -0.47887
 Alpha  occ. eigenvalues --   -0.47580  -0.47495  -0.47129  -0.43527  -0.43327
 Alpha  occ. eigenvalues --   -0.36653  -0.36612  -0.35732  -0.35699
 Alpha virt. eigenvalues --    0.05957   0.06137   0.11915   0.11948   0.17408
 Alpha virt. eigenvalues --    0.17513   0.21995   0.22039   0.27877   0.27919
 Alpha virt. eigenvalues --    0.28929   0.28984   0.31509   0.31561   0.33209

 Mulliken charges:
               1
     1  C   -0.172381
     2  C   -0.218703
     3  C   -0.172178
     4  C    0.158550
     5  C   -0.172591
     6  C   -0.218846
     7  H    0.222426
     8  H    0.220432
     9  H    0.274071
    10  H    0.279409
    11  H    0.221157
    12  N    0.485336
    13  O   -0.442411
    14  O   -0.464440
    15  C   -0.172470
    16  C   -0.218676
    17  C   -0.171962
    18  C    0.159250
    19  C   -0.172378
    20  C   -0.218622
    21  H    0.222528
    22  H    0.221375
    23  H    0.277845
    24  H    0.273577
    25  H    0.220274
    26  N    0.486855
    27  O   -0.463070
    28  O   -0.444357
 Sum of Mulliken charges =  -0.00000

 Dipole moment (field-independent basis, Debye):
    X=             -0.1674    Y=              4.3404    Z=              4.1372  Tot=              5.9986
 Quadrupole moment (field-independent basis, Debye-Ang):
   XX=            -54.3034   YY=           -100.9657   ZZ=           -103.8346
   XY=              3.7322   XZ=             -3.2561   YZ=             -5.6013

 Normal termination of Gaussian 16 at Thu May  6 03:35:35 2021.
