 Gaussian 16, Revision A.03,
 Gaussian 16:  EM64L-G16RevA.03 25-Dec-2016

 -------------
 #p 6-31g* mp2
 -------------

 ------------------------------------------------------
 Input file generated by CHIRIPA (05-May-2021 14:57:21)
 ------------------------------------------------------
 Symbolic Z-matrix:
 Charge =  0 Multiplicity = 1

                         Standard orientation:
 ---------------------------------------------------------------------
 Center     Atomic      Atomic             Coordinates (Angstroms)
 Number     Number       Type             X           Y           Z
 ---------------------------------------------------------------------
      1          6           0        4.383114    1.726700   -1.380653
      2          6           0        4.143455    0.427246   -1.839460
      3          6           0        3.575999   -0.530839   -0.994110
      4          6           0        3.259097   -0.153438    0.309895
      5          6           0        3.485720    1.133115    0.796426
      6          6           0        4.054062    2.074874   -0.066492
      7          1           0        4.824271    2.464622   -2.044165
      8          1           0        4.397989    0.154028   -2.859562
      9          1           0        3.379738   -1.544003   -1.323352
     10          1           0        3.221325    1.375741    1.818505
     11          1           0        4.239060    3.083295    0.292544
     12          7           0        2.657888   -1.159078    1.214128
     13          8           0        2.387699   -0.801486    2.358577
     14          8           0        2.468234   -2.285848    0.761295
     15          6           0       -1.963582   -2.016937   -0.795258
     16          6           0       -3.357465   -2.073278   -0.897426
     17          6           0       -4.140171   -0.968609   -0.548675
     18          6           0       -3.493009    0.181498   -0.099536
     19          6           0       -2.106283    0.268537    0.013182
     20          6           0       -1.343533   -0.848270   -0.341081
     21          1           0       -1.363309   -2.879785   -1.068317
     22          1           0       -3.841721   -2.979561   -1.249834
     23          1           0       -5.221062   -0.984955   -0.618128
     24          1           0       -1.652196    1.185868    0.367763
     25          1           0       -0.261213   -0.801656   -0.260726
     26          7           0       -4.311061    1.357386    0.272588
     27          8           0       -3.716726    2.358893    0.665508
     28          8           0       -5.531095    1.255274    0.164293
 ---------------------------------------------------------------------

 SCF Done:  E(RHF) =  -868.338740694     A.U. after   16 cycles
 E2 =    -0.2599181490D+01 EUMP2 =    -0.87093792218374D+03

 The electronic state is 1-A.
 Alpha  occ. eigenvalues --  -20.61731 -20.61689 -20.60443 -20.60437 -15.86746
 Alpha  occ. eigenvalues --  -15.85493 -11.31973 -11.30749 -11.28532 -11.28470
 Alpha  occ. eigenvalues --  -11.28168 -11.27466 -11.27424 -11.27318 -11.27301
 Alpha  occ. eigenvalues --  -11.26972 -11.26297 -11.26254  -1.60797  -1.59520
 Alpha  occ. eigenvalues --   -1.40348  -1.39077  -1.20116  -1.18904  -1.09532
 Alpha  occ. eigenvalues --   -1.08306  -1.05477  -1.04297  -0.96388  -0.95163
 Alpha  occ. eigenvalues --   -0.86881  -0.85691  -0.83211  -0.82007  -0.78292
 Alpha  occ. eigenvalues --   -0.77083  -0.72948  -0.72152  -0.71714  -0.71187
 Alpha  occ. eigenvalues --   -0.70840  -0.69984  -0.65751  -0.65454  -0.64553
 Alpha  occ. eigenvalues --   -0.64290  -0.62819  -0.61654  -0.55953  -0.54757
 Alpha  occ. eigenvalues --   -0.53832  -0.53549  -0.52622  -0.52390  -0.49727
 Alpha  occ. eigenvalues --   -0.49694  -0.48475  -0.48462  -0.45766  -0.44508
 Alpha  occ. eigenvalues --   -0.38081  -0.37077  -0.36853  -0.35897
 Alpha virt. eigenvalues --    0.04203   0.05459   0.10555   0.11766   0.15726
 Alpha virt. eigenvalues --    0.16988   0.20792   0.21741   0.26708   0.27045
 Alpha virt. eigenvalues --    0.27791   0.28830   0.30349   0.31143   0.31891

 Mulliken charges:
               1
     1  C   -0.169755
     2  C   -0.217828
     3  C   -0.174393
     4  C    0.152138
     5  C   -0.171930
     6  C   -0.218035
     7  H    0.229129
     8  H    0.225695
     9  H    0.274195
    10  H    0.278298
    11  H    0.227561
    12  N    0.486390
    13  O   -0.454418
    14  O   -0.464382
    15  C   -0.170492
    16  C   -0.218955
    17  C   -0.171574
    18  C    0.158133
    19  C   -0.170908
    20  C   -0.215060
    21  H    0.229852
    22  H    0.222309
    23  H    0.274055
    24  H    0.273223
    25  H    0.222340
    26  N    0.488311
    27  O   -0.462300
    28  O   -0.461599
 Sum of Mulliken charges =  -0.00000

 Dipole moment (field-independent basis, Debye):
    X=              5.3016    Y=             -0.5405    Z=             -4.4875  Tot=              6.9669
 Quadrupole moment (field-independent basis, Debye-Ang):
   XX=           -108.3273   YY=           -104.3801   ZZ=           -104.4447
   XY=             29.5063   XZ=             -4.7615   YZ=              5.2640

 Normal termination of Gaussian 16 at Thu May  6 11:10:35 2021.
