 Gaussian 16, Revision A.03,
 Gaussian 16:  EM64L-G16RevA.03 25-Dec-2016

 -------------
 #p 6-31g* mp2
 -------------

 ------------------------------------------------------
 Input file generated by CHIRIPA (05-May-2021 14:55:19)
 ------------------------------------------------------
 Symbolic Z-matrix:
 Charge =  0 Multiplicity = 1

                         Standard orientation:
 ---------------------------------------------------------------------
 Center     Atomic      Atomic             Coordinates (Angstroms)
 Number     Number       Type             X           Y           Z
 ---------------------------------------------------------------------
      1          6           0        3.868746    0.808812   -1.328784
      2          6           0        3.420259    1.574978   -0.247873
      3          6           0        2.492464    1.051114    0.657285
      4          6           0        2.032086   -0.248322    0.450383
      5          6           0        2.459837   -1.036574   -0.616846
      6          6           0        3.387951   -0.492226   -1.509502
      7          1           0        4.589604    1.223719   -2.027077
      8          1           0        3.791926    2.585675   -0.105042
      9          1           0        2.128417    1.622282    1.502657
     10          1           0        2.071165   -2.040988   -0.733062
     11          1           0        3.734487   -1.089544   -2.348054
     12          7           0        1.049702   -0.813757    1.402016
     13          8           0        0.659453   -1.961178    1.197645
     14          8           0        0.688559   -0.098817    2.334257
     15          6           0       -3.133226    0.833527   -0.102439
     16          6           0       -2.383796    2.110593   -0.483812
     17          6           0       -3.045995    3.372453    0.070259
     18          1           0       -4.166479    0.898692   -0.469981
     19          1           0       -3.194662    0.765885    0.992570
     20          1           0       -2.322584    2.175104   -1.577753
     21          1           0       -1.352153    2.042299   -0.115485
     22          1           0       -3.093281    3.334446    1.163384
     23          1           0       -4.069226    3.468005   -0.307192
     24          1           0       -2.493881    4.273594   -0.214306
     25          6           0       -2.483400   -0.436391   -0.649030
     26          6           0       -3.232830   -1.713456   -0.267658
     27          6           0       -2.570632   -2.975316   -0.821728
     28          1           0       -2.421965   -0.368748   -1.744039
     29          1           0       -1.450149   -0.501556   -0.281487
     30          1           0       -4.264473   -1.645161   -0.635984
     31          1           0       -3.294042   -1.777967    0.826284
     32          1           0       -1.547401   -3.070868   -0.444276
     33          1           0       -2.523345   -2.937308   -1.914852
     34          1           0       -3.122744   -3.876456   -0.537162
 ---------------------------------------------------------------------

 SCF Done:  E(RHF) =  -669.536403268     A.U. after   15 cycles
 E2 =    -0.2092745067D+01 EUMP2 =    -0.67162914833522D+03

 The electronic state is 1-A.
 Alpha  occ. eigenvalues --  -20.61057 -20.61049 -15.86062 -11.31331 -11.27889
 Alpha  occ. eigenvalues --  -11.27879 -11.27611 -11.26879 -11.26869 -11.21154
 Alpha  occ. eigenvalues --  -11.20703 -11.20698 -11.20656 -11.20587 -11.20011
 Alpha  occ. eigenvalues --   -1.60111  -1.39666  -1.19491  -1.08909  -1.07709
 Alpha  occ. eigenvalues --   -1.04877  -1.02806  -0.95762  -0.95263  -0.86293
 Alpha  occ. eigenvalues --   -0.86278  -0.82597  -0.78906  -0.77671  -0.77520
 Alpha  occ. eigenvalues --   -0.72296  -0.71441  -0.70600  -0.65150  -0.64881
 Alpha  occ. eigenvalues --   -0.64302  -0.62226  -0.60177  -0.58670  -0.56883
 Alpha  occ. eigenvalues --   -0.55386  -0.54522  -0.53208  -0.52969  -0.51985
 Alpha  occ. eigenvalues --   -0.51703  -0.49201  -0.49055  -0.49048  -0.47232
 Alpha  occ. eigenvalues --   -0.45958  -0.45338  -0.45016  -0.44664  -0.43075
 Alpha  occ. eigenvalues --   -0.37463  -0.36470
 Alpha virt. eigenvalues --    0.04827   0.11146   0.16281   0.21222   0.23450
 Alpha virt. eigenvalues --    0.24989   0.26717   0.27178   0.27919   0.28156
 Alpha virt. eigenvalues --    0.28925   0.30904   0.31471   0.32378   0.32489

 Mulliken charges:
               1
     1  C   -0.170262
     2  C   -0.218375
     3  C   -0.171044
     4  C    0.156318
     5  C   -0.170340
     6  C   -0.218432
     7  H    0.226231
     8  H    0.224070
     9  H    0.275901
    10  H    0.276168
    11  H    0.224170
    12  N    0.489556
    13  O   -0.460001
    14  O   -0.458037
    15  C   -0.298770
    16  C   -0.298272
    17  C   -0.475600
    18  H    0.146833
    19  H    0.156704
    20  H    0.148228
    21  H    0.149178
    22  H    0.157913
    23  H    0.154388
    24  H    0.155891
    25  C   -0.298363
    26  C   -0.296675
    27  C   -0.484074
    28  H    0.143208
    29  H    0.150702
    30  H    0.146452
    31  H    0.159559
    32  H    0.173707
    33  H    0.146067
    34  H    0.157001
 Sum of Mulliken charges =  -0.00000

 Dipole moment (field-independent basis, Debye):
    X=              3.6647    Y=              1.9275    Z=             -3.1640  Tot=              5.2112
 Quadrupole moment (field-independent basis, Debye-Ang):
   XX=            -81.4353   YY=            -93.6175   ZZ=            -96.4801
   XY=              3.7000   XZ=             -5.4546   YZ=              3.7661

 Normal termination of Gaussian 16 at Thu May  6 20:37:54 2021.
