 Gaussian 16, Revision A.03,
 Gaussian 16:  EM64L-G16RevA.03 25-Dec-2016

 -------------
 #p 6-31g* mp2
 -------------

 ------------------------------------------------------
 Input file generated by CHIRIPA (05-May-2021 14:51:07)
 ------------------------------------------------------
 Symbolic Z-matrix:
 Charge =  0 Multiplicity = 1

                         Standard orientation:
 ---------------------------------------------------------------------
 Center     Atomic      Atomic             Coordinates (Angstroms)
 Number     Number       Type             X           Y           Z
 ---------------------------------------------------------------------
      1          6           0       -1.946718   -1.392179   -0.272537
      2          6           0       -1.548635   -2.531534    0.666284
      3          6           0       -0.430991   -3.404845    0.095326
      4          1           0       -2.264639   -1.813586   -1.236015
      5          1           0       -1.064056   -0.771154   -0.479008
      6          1           0       -2.432094   -3.149423    0.872024
      7          1           0       -1.231807   -2.107376    1.627703
      8          1           0        0.466635   -2.807148   -0.093427
      9          1           0       -0.740471   -3.855116   -0.853399
     10          1           0       -0.162116   -4.213004    0.782672
     11          6           0       -3.062927   -0.510303    0.284329
     12          6           0       -3.461011    0.629052   -0.654492
     13          6           0       -4.578655    1.502363   -0.083534
     14          1           0       -3.945589   -1.131328    0.490800
     15          1           0       -2.745007   -0.088896    1.247806
     16          1           0       -3.777838    0.204894   -1.615911
     17          1           0       -2.577552    1.246941   -0.860232
     18          1           0       -4.269174    1.952634    0.865191
     19          1           0       -5.476280    0.904666    0.105219
     20          1           0       -4.847529    2.310522   -0.770880
     21          6           0        3.162465    0.588533    0.133321
     22          6           0        3.212068   -0.823155   -0.452053
     23          6           0        4.533978   -1.535946   -0.165209
     24          1           0        3.994650    1.177677   -0.275729
     25          1           0        3.322409    0.533573    1.219043
     26          1           0        3.050699   -0.765676   -1.536152
     27          1           0        2.379555   -1.408949   -0.041708
     28          1           0        4.698662   -1.622726    0.913655
     29          1           0        5.373620   -0.975798   -0.589281
     30          1           0        4.547843   -2.543406   -0.592636
     31          6           0        1.847181    1.313950   -0.145113
     32          6           0        1.797577    2.725637    0.440260
     33          6           0        0.475668    3.438428    0.153418
     34          1           0        1.687235    1.368910   -1.230835
     35          1           0        1.014995    0.724806    0.263938
     36          1           0        2.630089    3.311432    0.029916
     37          1           0        1.958945    2.668159    1.524360
     38          1           0       -0.363975    2.878280    0.577489
     39          1           0        0.310983    3.525209   -0.925447
     40          1           0        0.461802    4.445888    0.580844
 ---------------------------------------------------------------------

 SCF Done:  E(RHF) =  -470.733276292     A.U. after   11 cycles
 E2 =    -0.1584020881D+01 EUMP2 =    -0.47231729717265D+03

 The electronic state is 1-A.
 Alpha  occ. eigenvalues --  -11.21679 -11.21649 -11.21599 -11.21563 -11.21485
 Alpha  occ. eigenvalues --  -11.21421 -11.21382 -11.21319 -11.21153 -11.21099
 Alpha  occ. eigenvalues --  -11.21043 -11.21041  -1.08510  -1.08407  -1.03599
 Alpha  occ. eigenvalues --   -1.03507  -0.96046  -0.95957  -0.87068  -0.86968
 Alpha  occ. eigenvalues --   -0.79690  -0.79547  -0.78389  -0.78160  -0.65256
 Alpha  occ. eigenvalues --   -0.64936  -0.61096  -0.60827  -0.59420  -0.59316
 Alpha  occ. eigenvalues --   -0.57700  -0.57531  -0.55403  -0.55187  -0.52733
 Alpha  occ. eigenvalues --   -0.52652  -0.52512  -0.52343  -0.50102  -0.49799
 Alpha  occ. eigenvalues --   -0.48089  -0.47803  -0.46813  -0.46543  -0.46174
 Alpha  occ. eigenvalues --   -0.45795  -0.45743  -0.45225  -0.43848  -0.43763
 Alpha virt. eigenvalues --    0.19665   0.22091   0.23659   0.24769   0.25438
 Alpha virt. eigenvalues --    0.26830   0.27121   0.27321   0.27819   0.29783
 Alpha virt. eigenvalues --    0.31129   0.31526   0.31774   0.31900   0.32069

 Mulliken charges:
               1
     1  C   -0.304343
     2  C   -0.298973
     3  C   -0.483920
     4  H    0.149831
     5  H    0.155182
     6  H    0.152085
     7  H    0.150824
     8  H    0.162585
     9  H    0.155541
    10  H    0.160046
    11  C   -0.297887
    12  C   -0.302024
    13  C   -0.475482
    14  H    0.149566
    15  H    0.148615
    16  H    0.151858
    17  H    0.154531
    18  H    0.154940
    19  H    0.154983
    20  H    0.160422
    21  C   -0.297447
    22  C   -0.308804
    23  C   -0.475176
    24  H    0.150156
    25  H    0.149514
    26  H    0.152294
    27  H    0.159703
    28  H    0.155189
    29  H    0.155328
    30  H    0.160872
    31  C   -0.303508
    32  C   -0.299543
    33  C   -0.477436
    34  H    0.150008
    35  H    0.153371
    36  H    0.152540
    37  H    0.152064
    38  H    0.155960
    39  H    0.155655
    40  H    0.160881
 Sum of Mulliken charges =  -0.00000

 Dipole moment (field-independent basis, Debye):
    X=              0.0461    Y=              0.0236    Z=             -0.0197  Tot=              0.0554
 Quadrupole moment (field-independent basis, Debye-Ang):
   XX=            -85.5500   YY=            -85.1842   ZZ=            -83.9182
   XY=              1.7243   XZ=              0.1044   YZ=             -0.1519

 Normal termination of Gaussian 16 at Wed May  5 21:16:58 2021.
