 Gaussian 16, Revision A.03,
 Gaussian 16:  EM64L-G16RevA.03 25-Dec-2016

 -------------
 #p 6-31g* mp2
 -------------

 ------------------------------------------------------
 Input file generated by CHIRIPA (05-May-2021 14:55:24)
 ------------------------------------------------------
 Symbolic Z-matrix:
 Charge =  0 Multiplicity = 1

                         Standard orientation:
 ---------------------------------------------------------------------
 Center     Atomic      Atomic             Coordinates (Angstroms)
 Number     Number       Type             X           Y           Z
 ---------------------------------------------------------------------
      1          6           0       -2.130342    1.989606    1.284233
      2          6           0       -2.357419    0.841385    2.050095
      3          6           0       -2.727078   -0.359419    1.436932
      4          6           0       -2.861165   -0.376312    0.049480
      5          6           0       -2.641858    0.750849   -0.740901
      6          6           0       -2.273035    1.940760   -0.106369
      7          1           0       -1.843507    2.918189    1.768852
      8          1           0       -2.247350    0.876381    3.130236
      9          1           0       -2.908993   -1.263192    2.005720
     10          1           0       -2.759456    0.684998   -1.815727
     11          1           0       -2.097325    2.830926   -0.703676
     12          7           0       -3.252064   -1.641784   -0.610959
     13          8           0       -3.363545   -1.630523   -1.834921
     14          8           0       -3.439568   -2.620959    0.107856
     15          6           0        2.932273    0.594535   -0.061797
     16          6           0        2.553405    1.578657   -1.169023
     17          6           0        1.255653    2.330884   -0.872734
     18          1           0        2.113397   -0.124613    0.076816
     19          1           0        3.032318    1.140857    0.886316
     20          1           0        2.455458    1.030857   -2.115035
     21          1           0        3.373358    2.295429   -1.305148
     22          1           0        1.345203    2.902267    0.056838
     23          1           0        0.422086    1.630510   -0.757651
     24          1           0        1.003644    3.028968   -1.677115
     25          6           0        4.227382   -0.165102   -0.343523
     26          6           0        4.606250   -1.149224    0.763703
     27          6           0        5.904001   -1.901451    0.467414
     28          1           0        4.127336   -0.711424   -1.291636
     29          1           0        5.046258    0.554046   -0.482135
     30          1           0        3.786296   -1.865996    0.899828
     31          1           0        4.704197   -0.601424    1.709716
     32          1           0        6.737568   -1.201077    0.352332
     33          1           0        5.814452   -2.472834   -0.462157
     34          1           0        6.156011   -2.599536    1.271796
 ---------------------------------------------------------------------

 SCF Done:  E(RHF) =  -669.534686313     A.U. after   15 cycles
 E2 =    -0.2092381388D+01 EUMP2 =    -0.67162706770051D+03

 The electronic state is 1-A.
 Alpha  occ. eigenvalues --  -20.60800 -20.60795 -15.85853 -11.31229 -11.27770
 Alpha  occ. eigenvalues --  -11.27760 -11.27491 -11.26801 -11.26765 -11.21884
 Alpha  occ. eigenvalues --  -11.21711 -11.21610 -11.21508 -11.21456 -11.21137
 Alpha  occ. eigenvalues --   -1.59876  -1.39429  -1.19396  -1.08787  -1.08622
 Alpha  occ. eigenvalues --   -1.04802  -1.03743  -0.96214  -0.95615  -0.87251
 Alpha  occ. eigenvalues --   -0.86177  -0.82449  -0.79823  -0.78431  -0.77495
 Alpha  occ. eigenvalues --   -0.72070  -0.71201  -0.70480  -0.65256  -0.65037
 Alpha  occ. eigenvalues --   -0.64786  -0.62139  -0.61147  -0.59589  -0.57833
 Alpha  occ. eigenvalues --   -0.55553  -0.55269  -0.53358  -0.52978  -0.52801
 Alpha  occ. eigenvalues --   -0.52445  -0.50121  -0.48829  -0.48825  -0.48124
 Alpha  occ. eigenvalues --   -0.46833  -0.45976  -0.45887  -0.44832  -0.44006
 Alpha  occ. eigenvalues --   -0.37336  -0.36320
 Alpha virt. eigenvalues --    0.05017   0.11226   0.16494   0.21139   0.22700
 Alpha virt. eigenvalues --    0.24116   0.26446   0.26654   0.27308   0.28033
 Alpha virt. eigenvalues --    0.28506   0.30178   0.31328   0.31835   0.32026

 Mulliken charges:
               1
     1  C   -0.169307
     2  C   -0.218193
     3  C   -0.171609
     4  C    0.158934
     5  C   -0.173475
     6  C   -0.216958
     7  H    0.226132
     8  H    0.223663
     9  H    0.275605
    10  H    0.275893
    11  H    0.226589
    12  N    0.488034
    13  O   -0.460363
    14  O   -0.460311
    15  C   -0.298473
    16  C   -0.299070
    17  C   -0.483415
    18  H    0.151890
    19  H    0.147103
    20  H    0.154234
    21  H    0.151612
    22  H    0.149229
    23  H    0.165184
    24  H    0.154837
    25  C   -0.298622
    26  C   -0.299966
    27  C   -0.475876
    28  H    0.151450
    29  H    0.149317
    30  H    0.153434
    31  H    0.150520
    32  H    0.154788
    33  H    0.156511
    34  H    0.160681
 Sum of Mulliken charges =  -0.00000

 Dipole moment (field-independent basis, Debye):
    X=              1.3529    Y=              4.4085    Z=              2.3437  Tot=              5.1728
 Quadrupole moment (field-independent basis, Debye-Ang):
   XX=           -104.0208   YY=            -97.6633   ZZ=            -90.4837
   XY=            -12.6666   XZ=             -6.5640   YZ=             -2.5505

 Normal termination of Gaussian 16 at Thu May  6 19:18:49 2021.
