 Gaussian 16, Revision A.03,
 Gaussian 16:  EM64L-G16RevA.03 25-Dec-2016

 -------------
 #p 6-31g* mp2
 -------------

 ------------------------------------------------------
 Input file generated by CHIRIPA (05-May-2021 14:57:23)
 ------------------------------------------------------
 Symbolic Z-matrix:
 Charge =  0 Multiplicity = 1

                         Standard orientation:
 ---------------------------------------------------------------------
 Center     Atomic      Atomic             Coordinates (Angstroms)
 Number     Number       Type             X           Y           Z
 ---------------------------------------------------------------------
      1          6           0        2.596962   -2.443217    0.431671
      2          6           0        3.818026   -1.836354    0.743505
      3          6           0        4.013148   -0.471984    0.509049
      4          6           0        2.961016    0.258724   -0.040837
      5          6           0        1.732844   -0.317108   -0.362239
      6          6           0        1.560096   -1.682998   -0.119234
      7          1           0        2.454077   -3.503683    0.617123
      8          1           0        4.625034   -2.424279    1.171438
      9          1           0        4.948223    0.023243    0.741006
     10          1           0        0.946970    0.295003   -0.787844
     11          1           0        0.610729   -2.151633   -0.362399
     12          7           0        3.155740    1.703926   -0.293570
     13          8           0        2.213115    2.325698   -0.778848
     14          8           0        4.247303    2.187539   -0.001599
     15          6           0       -3.358083    2.349577    0.750382
     16          6           0       -3.075420    2.081363   -0.593003
     17          6           0       -2.836008    0.771976   -1.020478
     18          6           0       -2.887434   -0.249671   -0.073440
     19          6           0       -3.166445   -0.014437    1.271962
     20          6           0       -3.402615    1.302667    1.676944
     21          1           0       -3.542805    3.369738    1.073718
     22          1           0       -3.040184    2.892427   -1.314792
     23          1           0       -2.614874    0.536105   -2.054346
     24          1           0       -3.194692   -0.843815    1.968203
     25          1           0       -3.621894    1.508006    2.720878
     26          7           0       -2.635695   -1.639946   -0.514082
     27          8           0       -2.686809   -2.522399    0.339910
     28          8           0       -2.392035   -1.820864   -1.705105
 ---------------------------------------------------------------------

 SCF Done:  E(RHF) =  -868.340104049     A.U. after   16 cycles
 E2 =    -0.2599197542D+01 EUMP2 =    -0.87093930159089D+03

 The electronic state is 1-A.
 Alpha  occ. eigenvalues --  -20.61567 -20.61562 -20.60644 -20.60630 -15.86592
 Alpha  occ. eigenvalues --  -15.85684 -11.31635 -11.30860 -11.28143 -11.28133
 Alpha  occ. eigenvalues --  -11.27766 -11.27412 -11.27362 -11.27066 -11.27033
 Alpha  occ. eigenvalues --  -11.27023 -11.26389 -11.26223  -1.60663  -1.59717
 Alpha  occ. eigenvalues --   -1.40211  -1.39277  -1.19756  -1.18994  -1.09205
 Alpha  occ. eigenvalues --   -1.08412  -1.05091  -1.04359  -0.96094  -0.95288
 Alpha  occ. eigenvalues --   -0.86503  -0.85755  -0.82926  -0.82126  -0.78026
 Alpha  occ. eigenvalues --   -0.77209  -0.72793  -0.72007  -0.71911  -0.71035
 Alpha  occ. eigenvalues --   -0.70828  -0.70083  -0.65393  -0.65069  -0.64636
 Alpha  occ. eigenvalues --   -0.64320  -0.62439  -0.61698  -0.55575  -0.54833
 Alpha  occ. eigenvalues --   -0.53455  -0.53164  -0.52709  -0.52413  -0.49578
 Alpha  occ. eigenvalues --   -0.49537  -0.48675  -0.48644  -0.45678  -0.44725
 Alpha  occ. eigenvalues --   -0.37701  -0.36951  -0.36675  -0.35959
 Alpha virt. eigenvalues --    0.04431   0.05304   0.10940   0.11700   0.16027
 Alpha virt. eigenvalues --    0.16858   0.21154   0.21850   0.27006   0.27333
 Alpha virt. eigenvalues --    0.28234   0.28684   0.30853   0.31399   0.32139

 Mulliken charges:
               1
     1  C   -0.171552
     2  C   -0.218768
     3  C   -0.172377
     4  C    0.157966
     5  C   -0.172890
     6  C   -0.223819
     7  H    0.228962
     8  H    0.222240
     9  H    0.273620
    10  H    0.271531
    11  H    0.239250
    12  N    0.488317
    13  O   -0.464458
    14  O   -0.461454
    15  C   -0.168265
    16  C   -0.215069
    17  C   -0.174980
    18  C    0.154048
    19  C   -0.170962
    20  C   -0.217848
    21  H    0.229732
    22  H    0.229073
    23  H    0.276460
    24  H    0.274998
    25  H    0.225456
    26  N    0.484686
    27  O   -0.461697
    28  O   -0.462199
 Sum of Mulliken charges =  -0.00000

 Dipole moment (field-independent basis, Debye):
    X=             -1.8310    Y=             -0.1163    Z=              2.4946  Tot=              3.0966
 Quadrupole moment (field-independent basis, Debye-Ang):
   XX=           -100.1328   YY=           -109.9450   ZZ=           -100.8195
   XY=            -30.5304   XZ=             -0.7267   YZ=             -2.1348

 Normal termination of Gaussian 16 at Fri May  7 11:05:20 2021.
