 Gaussian 16, Revision A.03,
 Gaussian 16:  EM64L-G16RevA.03 25-Dec-2016

 -------------
 #p 6-31g* mp2
 -------------

 ------------------------------------------------------
 Input file generated by CHIRIPA (05-May-2021 14:55:22)
 ------------------------------------------------------
 Symbolic Z-matrix:
 Charge =  0 Multiplicity = 1

                         Standard orientation:
 ---------------------------------------------------------------------
 Center     Atomic      Atomic             Coordinates (Angstroms)
 Number     Number       Type             X           Y           Z
 ---------------------------------------------------------------------
      1          6           0        5.947416   -0.337350    0.764074
      2          6           0        5.161606    0.774243    1.085606
      3          6           0        3.840386    0.863352    0.637290
      4          6           0        3.334834   -0.182012   -0.134021
      5          6           0        4.092612   -1.302491   -0.471053
      6          6           0        5.411356   -1.370348   -0.011861
      7          1           0        6.972810   -0.398318    1.116561
      8          1           0        5.575277    1.577978    1.688044
      9          1           0        3.209852    1.712465    0.871491
     10          1           0        3.652432   -2.087942   -1.073320
     11          1           0        6.019301   -2.234826   -0.263110
     12          7           0        1.937429   -0.098926   -0.614390
     13          8           0        1.515517   -1.033191   -1.292458
     14          8           0        1.290514    0.898889   -0.303740
     15          6           0       -5.216977    0.017208    0.389303
     16          6           0       -5.553005   -1.443063    0.084870
     17          6           0       -6.863404   -1.895039    0.730135
     18          1           0       -5.157654    0.153941    1.477756
     19          1           0       -6.039104    0.656220    0.038351
     20          1           0       -4.729865   -2.079013    0.435047
     21          1           0       -5.611346   -1.576377   -1.002990
     22          1           0       -7.699333   -1.285143    0.372572
     23          1           0       -6.812843   -1.790636    1.818778
     24          1           0       -7.084271   -2.941908    0.499610
     25          6           0       -3.909790    0.483800   -0.248885
     26          6           0       -3.573763    1.944070    0.055547
     27          6           0       -2.263363    2.396046   -0.589717
     28          1           0       -3.087664   -0.155213    0.102066
     29          1           0       -3.969113    0.347067   -1.337338
     30          1           0       -3.515421    2.077385    1.143406
     31          1           0       -4.396903    2.580021   -0.294629
     32          1           0       -2.313924    2.291643   -1.678361
     33          1           0       -1.427434    1.786151   -0.232154
     34          1           0       -2.042496    3.442916   -0.359192
 ---------------------------------------------------------------------

 SCF Done:  E(RHF) =  -669.536144689     A.U. after   15 cycles
 E2 =    -0.2090761415D+01 EUMP2 =    -0.67162690610400D+03

 The electronic state is 1-A.
 Alpha  occ. eigenvalues --  -20.60964 -20.60951 -15.85992 -11.31306 -11.27867
 Alpha  occ. eigenvalues --  -11.27863 -11.27604 -11.26873 -11.26863 -11.20832
 Alpha  occ. eigenvalues --  -11.20494 -11.20456 -11.20366 -11.20206 -11.19351
 Alpha  occ. eigenvalues --   -1.60020  -1.39576  -1.19473  -1.08879  -1.07412
 Alpha  occ. eigenvalues --   -1.04868  -1.02467  -0.95722  -0.94892  -0.86269
 Alpha  occ. eigenvalues --   -0.85901  -0.82555  -0.78558  -0.77608  -0.77181
 Alpha  occ. eigenvalues --   -0.72213  -0.71334  -0.70581  -0.65128  -0.64871
 Alpha  occ. eigenvalues --   -0.64051  -0.62214  -0.59866  -0.58327  -0.56501
 Alpha  occ. eigenvalues --   -0.55373  -0.54170  -0.53200  -0.52959  -0.51608
 Alpha  occ. eigenvalues --   -0.51304  -0.49122  -0.48964  -0.48657  -0.46827
 Alpha  occ. eigenvalues --   -0.45591  -0.44991  -0.44726  -0.44608  -0.42735
 Alpha  occ. eigenvalues --   -0.37452  -0.36469
 Alpha virt. eigenvalues --    0.04920   0.11187   0.16419   0.21321   0.23827
 Alpha virt. eigenvalues --    0.25426   0.27242   0.27658   0.28178   0.28510
 Alpha virt. eigenvalues --    0.29179   0.30889   0.32351   0.32558   0.32703

 Mulliken charges:
               1
     1  C   -0.170568
     2  C   -0.218560
     3  C   -0.170876
     4  C    0.157498
     5  C   -0.170487
     6  C   -0.218618
     7  H    0.226026
     8  H    0.223888
     9  H    0.275992
    10  H    0.275904
    11  H    0.223845
    12  N    0.491192
    13  O   -0.458878
    14  O   -0.462042
    15  C   -0.297555
    16  C   -0.298990
    17  C   -0.475117
    18  H    0.147118
    19  H    0.146862
    20  H    0.152535
    21  H    0.151750
    22  H    0.153818
    23  H    0.153665
    24  H    0.158237
    25  C   -0.298019
    26  C   -0.299102
    27  C   -0.484481
    28  H    0.155283
    29  H    0.149494
    30  H    0.147087
    31  H    0.145808
    32  H    0.152181
    33  H    0.183906
    34  H    0.151204
 Sum of Mulliken charges =  -0.00000

 Dipole moment (field-independent basis, Debye):
    X=              5.3150    Y=             -0.3815    Z=              1.6620  Tot=              5.5819
 Quadrupole moment (field-independent basis, Debye-Ang):
   XX=            -64.4706   YY=            -91.5845   ZZ=            -94.4202
   XY=             -2.7441   XZ=              5.8471   YZ=              2.1278

 Normal termination of Gaussian 16 at Wed May  5 23:54:30 2021.
