 Gaussian 16, Revision A.03,
 Gaussian 16:  EM64L-G16RevA.03 25-Dec-2016

 -------------
 #p 6-31g* mp2
 -------------

 ------------------------------------------------------
 Input file generated by CHIRIPA (05-May-2021 14:57:21)
 ------------------------------------------------------
 Symbolic Z-matrix:
 Charge =  0 Multiplicity = 1

                         Standard orientation:
 ---------------------------------------------------------------------
 Center     Atomic      Atomic             Coordinates (Angstroms)
 Number     Number       Type             X           Y           Z
 ---------------------------------------------------------------------
      1          6           0       -4.233946    2.457066   -0.386095
      2          6           0       -5.032874    1.509594    0.262391
      3          6           0       -4.579775    0.198513    0.436507
      4          6           0       -3.316930   -0.132163   -0.052537
      5          6           0       -2.497513    0.789198   -0.702875
      6          6           0       -2.971043    2.094483   -0.865812
      7          1           0       -4.593860    3.473294   -0.517010
      8          1           0       -6.014085    1.788353    0.635971
      9          1           0       -5.177608   -0.554955    0.934805
     10          1           0       -1.523860    0.481522   -1.064471
     11          1           0       -2.348419    2.828210   -1.369826
     12          7           0       -2.826440   -1.517078    0.125875
     13          8           0       -1.710101   -1.783249   -0.314098
     14          8           0       -3.567622   -2.310181    0.702309
     15          6           0        1.885480   -2.096191   -0.198226
     16          6           0        2.866424   -1.820620   -1.156523
     17          6           0        3.709923   -0.715161   -1.011552
     18          6           0        3.543970    0.097275    0.109027
     19          6           0        2.576045   -0.150953    1.081032
     20          6           0        1.743673   -1.261949    0.915530
     21          1           0        1.234551   -2.957089   -0.318817
     22          1           0        2.978835   -2.466771   -2.022489
     23          1           0        4.477641   -0.478591   -1.738230
     24          1           0        2.488026    0.511426    1.933631
     25          1           0        0.982730   -1.473525    1.661348
     26          7           0        4.431056    1.270506    0.273369
     27          8           0        4.264559    1.970844    1.269583
     28          8           0        5.276055    1.467532   -0.597146
 ---------------------------------------------------------------------

 SCF Done:  E(RHF) =  -868.340484497     A.U. after   16 cycles
 E2 =    -0.2598794336D+01 EUMP2 =    -0.87093927883210D+03

 The electronic state is 1-A.
 Alpha  occ. eigenvalues --  -20.61680 -20.61632 -20.60402 -20.60397 -15.86684
 Alpha  occ. eigenvalues --  -15.85449 -11.31738 -11.30586 -11.28272 -11.28251
 Alpha  occ. eigenvalues --  -11.27944 -11.27214 -11.27186 -11.27163 -11.27126
 Alpha  occ. eigenvalues --  -11.26618 -11.26044 -11.25949  -1.60727  -1.59486
 Alpha  occ. eigenvalues --   -1.40288  -1.39046  -1.19881  -1.18722  -1.09334
 Alpha  occ. eigenvalues --   -1.08102  -1.05232  -1.04097  -0.96222  -0.94983
 Alpha  occ. eigenvalues --   -0.86644  -0.85466  -0.83064  -0.81840  -0.78143
 Alpha  occ. eigenvalues --   -0.76963  -0.72938  -0.72035  -0.71666  -0.70977
 Alpha  occ. eigenvalues --   -0.70815  -0.69682  -0.65534  -0.65224  -0.64338
 Alpha  occ. eigenvalues --   -0.64047  -0.62577  -0.61453  -0.55738  -0.54417
 Alpha  occ. eigenvalues --   -0.53585  -0.53313  -0.52437  -0.52154  -0.49685
 Alpha  occ. eigenvalues --   -0.49643  -0.48439  -0.48401  -0.45759  -0.44504
 Alpha  occ. eigenvalues --   -0.37845  -0.36823  -0.36589  -0.35732
 Alpha virt. eigenvalues --    0.04342   0.05574   0.10833   0.11944   0.15913
 Alpha virt. eigenvalues --    0.17157   0.21027   0.22302   0.26966   0.27830
 Alpha virt. eigenvalues --    0.28070   0.29259   0.30632   0.31921   0.32081

 Mulliken charges:
               1
     1  C   -0.169689
     2  C   -0.218649
     3  C   -0.170794
     4  C    0.156409
     5  C   -0.171833
     6  C   -0.218563
     7  H    0.228355
     8  H    0.225238
     9  H    0.275821
    10  H    0.277003
    11  H    0.227225
    12  N    0.490137
    13  O   -0.471626
    14  O   -0.457649
    15  C   -0.164835
    16  C   -0.222380
    17  C   -0.173146
    18  C    0.155920
    19  C   -0.176104
    20  C   -0.218408
    21  H    0.241082
    22  H    0.222059
    23  H    0.272471
    24  H    0.271853
    25  H    0.228266
    26  N    0.488119
    27  O   -0.463453
    28  O   -0.462829
 Sum of Mulliken charges =  -0.00000

 Dipole moment (field-independent basis, Debye):
    X=             -5.2955    Y=              0.6440    Z=             -1.2211  Tot=              5.4724
 Quadrupole moment (field-independent basis, Debye-Ang):
   XX=           -112.1998   YY=           -106.9492   ZZ=           -101.1229
   XY=            -31.4031   XZ=             -4.8086   YZ=             -0.3897

 Normal termination of Gaussian 16 at Thu May  6 21:03:55 2021.
