 Gaussian 16, Revision A.03,
 Gaussian 16:  EM64L-G16RevA.03 25-Dec-2016

 -------------
 #p 6-31g* mp2
 -------------

 ------------------------------------------------------
 Input file generated by CHIRIPA (05-May-2021 14:53:16)
 ------------------------------------------------------
 Symbolic Z-matrix:
 Charge =  0 Multiplicity = 1

                         Standard orientation:
 ---------------------------------------------------------------------
 Center     Atomic      Atomic             Coordinates (Angstroms)
 Number     Number       Type             X           Y           Z
 ---------------------------------------------------------------------
      1          6           0        1.626160    1.519985   -0.145028
      2          6           0        0.937774    1.959818   -1.437567
      3          6           0        0.017940    3.164594   -1.237031
      4          1           0        0.861747    1.278471    0.606163
      5          1           0        2.205757    2.361874    0.258315
      6          1           0        0.360762    1.116933   -1.839087
      7          1           0        1.703912    2.200130   -2.185831
      8          1           0        0.583492    4.022343   -0.858851
      9          1           0       -0.767290    2.932991   -0.510137
     10          1           0       -0.463828    3.462167   -2.173625
     11          6           0        2.549031    0.316632   -0.329356
     12          6           0        3.237417   -0.123201    0.963183
     13          6           0        4.157250   -1.327977    0.762647
     14          1           0        1.969434   -0.525257   -0.732699
     15          1           0        3.313444    0.558146   -1.080547
     16          1           0        2.471279   -0.363513    1.711447
     17          1           0        3.814429    0.719684    1.364703
     18          1           0        4.942481   -1.096374    0.035753
     19          1           0        3.591699   -2.185726    0.384467
     20          1           0        4.639019   -1.625550    1.699241
     21          6           0       -2.482217    0.917181    1.908469
     22          6           0       -1.379137    0.106960    2.197051
     23          6           0       -0.898864   -0.802287    1.249869
     24          6           0       -1.548635   -0.875457    0.018717
     25          6           0       -2.649846   -0.081785   -0.298632
     26          6           0       -3.112938    0.820393    0.663744
     27          1           0       -2.848632    1.620761    2.650165
     28          1           0       -0.887334    0.179975    3.162889
     29          1           0       -0.046824   -1.441508    1.446958
     30          1           0       -3.119275   -0.177241   -1.270199
     31          1           0       -3.969806    1.448367    0.436868
     32          7           0       -1.049286   -1.834294   -0.992065
     33          8           0       -1.639315   -1.879616   -2.069305
     34          8           0       -0.077320   -2.522353   -0.687936
 ---------------------------------------------------------------------

 SCF Done:  E(RHF) =  -669.535043572     A.U. after   15 cycles
 E2 =    -0.2097303890D+01 EUMP2 =    -0.67163234746268D+03

 The electronic state is 1-A.
 Alpha  occ. eigenvalues --  -20.61088 -20.61076 -15.86091 -11.31388 -11.27983
 Alpha  occ. eigenvalues --  -11.27948 -11.27713 -11.26976 -11.26942 -11.21494
 Alpha  occ. eigenvalues --  -11.21404 -11.21052 -11.20999 -11.20907 -11.20723
 Alpha  occ. eigenvalues --   -1.60132  -1.39690  -1.19594  -1.08987  -1.08180
 Alpha  occ. eigenvalues --   -1.04986  -1.03328  -0.95842  -0.95736  -0.86772
 Alpha  occ. eigenvalues --   -0.86372  -0.82664  -0.79405  -0.77982  -0.77719
 Alpha  occ. eigenvalues --   -0.72321  -0.71469  -0.70688  -0.65238  -0.65051
 Alpha  occ. eigenvalues --   -0.64774  -0.62323  -0.60753  -0.59123  -0.57370
 Alpha  occ. eigenvalues --   -0.55472  -0.55062  -0.53308  -0.53057  -0.52480
 Alpha  occ. eigenvalues --   -0.52178  -0.49712  -0.49089  -0.49072  -0.47703
 Alpha  occ. eigenvalues --   -0.46485  -0.45633  -0.45496  -0.44794  -0.43544
 Alpha  occ. eigenvalues --   -0.37538  -0.36446
 Alpha virt. eigenvalues --    0.04765   0.10984   0.16192   0.20348   0.23004
 Alpha virt. eigenvalues --    0.23859   0.26183   0.26973   0.27805   0.28234
 Alpha virt. eigenvalues --    0.29017   0.30828   0.31291   0.31864   0.32008

 Mulliken charges:
               1
     1  C   -0.306093
     2  C   -0.298491
     3  C   -0.478649
     4  H    0.152679
     5  H    0.145827
     6  H    0.151376
     7  H    0.153509
     8  H    0.153297
     9  H    0.153473
    10  H    0.159010
    11  C   -0.310172
    12  C   -0.296104
    13  C   -0.478597
    14  H    0.166588
    15  H    0.150210
    16  H    0.137606
    17  H    0.150060
    18  H    0.155977
    19  H    0.166281
    20  H    0.156490
    21  C   -0.170037
    22  C   -0.218887
    23  C   -0.175128
    24  C    0.162364
    25  C   -0.169981
    26  C   -0.218575
    27  H    0.227306
    28  H    0.225381
    29  H    0.279388
    30  H    0.276763
    31  H    0.225150
    32  N    0.488544
    33  O   -0.457609
    34  O   -0.458957
 Sum of Mulliken charges =  -0.00000

 Dipole moment (field-independent basis, Debye):
    X=             -1.9477    Y=              3.1626    Z=              3.4936  Tot=              5.0991
 Quadrupole moment (field-independent basis, Debye-Ang):
   XX=            -86.8232   YY=           -101.5599   ZZ=            -92.9611
   XY=             -4.1717   XZ=             -3.6286   YZ=             -4.0073

 Normal termination of Gaussian 16 at Thu May  6 01:12:02 2021.
