 Gaussian 16, Revision A.03,
 Gaussian 16:  EM64L-G16RevA.03 25-Dec-2016

 -------------
 #p 6-31g* mp2
 -------------

 ------------------------------------------------------
 Input file generated by CHIRIPA (05-May-2021 14:51:11)
 ------------------------------------------------------
 Symbolic Z-matrix:
 Charge =  0 Multiplicity = 1

                         Standard orientation:
 ---------------------------------------------------------------------
 Center     Atomic      Atomic             Coordinates (Angstroms)
 Number     Number       Type             X           Y           Z
 ---------------------------------------------------------------------
      1          6           0        3.161992   -0.470333   -0.262459
      2          6           0        2.429985   -1.810352   -0.181829
      3          6           0        0.971405   -1.715114   -0.630459
      4          1           0        2.633573    0.266787    0.357519
      5          1           0        3.118686   -0.098368   -1.295493
      6          1           0        2.475851   -2.180347    0.850457
      7          1           0        2.960317   -2.544418   -0.801919
      8          1           0        0.909093   -1.369699   -1.667477
      9          1           0        0.421875   -1.003560   -0.005713
     10          1           0        0.467085   -2.684243   -0.564792
     11          6           0        4.621183   -0.549380    0.182783
     12          6           0        5.353191    0.790639    0.102154
     13          6           0        6.811771    0.695402    0.550783
     14          1           0        4.664489   -0.921345    1.215818
     15          1           0        5.149603   -1.286500   -0.437194
     16          1           0        4.822859    1.524705    0.722243
     17          1           0        5.307324    1.160634   -0.930133
     18          1           0        7.361300   -0.016153   -0.073963
     19          1           0        6.874083    0.349986    1.587801
     20          1           0        7.316091    1.664530    0.485117
     21          6           0       -4.344639    0.037262    0.433323
     22          6           0       -5.715937   -0.165472   -0.211988
     23          6           0       -6.610878   -1.113457    0.586885
     24          1           0       -3.848029   -0.937101    0.537920
     25          1           0       -4.480297    0.429753    1.450645
     26          1           0       -5.577689   -0.556160   -1.228289
     27          1           0       -6.209260    0.809509   -0.315235
     28          1           0       -6.778274   -0.725611    1.596913
     29          1           0       -6.143114   -2.099039    0.678671
     30          1           0       -7.586150   -1.244098    0.107680
     31          6           0       -3.438537    0.982451   -0.353648
     32          6           0       -2.067238    1.185185    0.291663
     33          6           0       -1.172297    2.133170   -0.507209
     34          1           0       -3.302879    0.589960   -1.370969
     35          1           0       -3.935146    1.956814   -0.458244
     36          1           0       -1.573915    0.210204    0.394910
     37          1           0       -2.205486    1.575873    1.307965
     38          1           0       -1.640061    3.118752   -0.598995
     39          1           0       -1.004902    1.745323   -1.517236
     40          1           0       -0.197025    2.263811   -0.028004
 ---------------------------------------------------------------------

 SCF Done:  E(RHF) =  -470.733308346     A.U. after   11 cycles
 E2 =    -0.1582711059D+01 EUMP2 =    -0.47231601940515D+03

 The electronic state is 1-A.
 Alpha  occ. eigenvalues --  -11.21618 -11.21603 -11.21577 -11.21553 -11.21412
 Alpha  occ. eigenvalues --  -11.21371 -11.21352 -11.21312 -11.21083 -11.21072
 Alpha  occ. eigenvalues --  -11.21052 -11.21037  -1.08440  -1.08396  -1.03553
 Alpha  occ. eigenvalues --   -1.03488  -0.96003  -0.95938  -0.87012  -0.86963
 Alpha  occ. eigenvalues --   -0.79637  -0.79537  -0.78261  -0.78202  -0.65104
 Alpha  occ. eigenvalues --   -0.65002  -0.61052  -0.60811  -0.59380  -0.59298
 Alpha  occ. eigenvalues --   -0.57639  -0.57523  -0.55338  -0.55179  -0.52688
 Alpha  occ. eigenvalues --   -0.52645  -0.52424  -0.52364  -0.50018  -0.49827
 Alpha  occ. eigenvalues --   -0.48004  -0.47810  -0.46777  -0.46454  -0.45849
 Alpha  occ. eigenvalues --   -0.45733  -0.45721  -0.45553  -0.43795  -0.43753
 Alpha virt. eigenvalues --    0.21325   0.23020   0.23570   0.24991   0.26096
 Alpha virt. eigenvalues --    0.26322   0.27151   0.27325   0.28059   0.29138
 Alpha virt. eigenvalues --    0.30406   0.30845   0.31534   0.31928   0.32015

 Mulliken charges:
               1
     1  C   -0.298551
     2  C   -0.299331
     3  C   -0.482678
     4  H    0.149771
     5  H    0.149835
     6  H    0.151928
     7  H    0.151979
     8  H    0.155198
     9  H    0.162436
    10  H    0.159781
    11  C   -0.298357
    12  C   -0.299653
    13  C   -0.475717
    14  H    0.149518
    15  H    0.149692
    16  H    0.151911
    17  H    0.152055
    18  H    0.155175
    19  H    0.155171
    20  H    0.160299
    21  C   -0.298480
    22  C   -0.299646
    23  C   -0.475700
    24  H    0.150005
    25  H    0.149296
    26  H    0.152002
    27  H    0.151845
    28  H    0.155088
    29  H    0.155194
    30  H    0.160170
    31  C   -0.297625
    32  C   -0.306610
    33  C   -0.475599
    34  H    0.149851
    35  H    0.149418
    36  H    0.158039
    37  H    0.151415
    38  H    0.154970
    39  H    0.155981
    40  H    0.159921
 Sum of Mulliken charges =  -0.00000

 Dipole moment (field-independent basis, Debye):
    X=              0.0119    Y=             -0.0056    Z=             -0.0086  Tot=              0.0157
 Quadrupole moment (field-independent basis, Debye-Ang):
   XX=            -86.3597   YY=            -84.6079   ZZ=            -83.8708
   XY=             -0.9375   XZ=             -0.4175   YZ=              0.9022

 Normal termination of Gaussian 16 at Wed May  5 15:15:51 2021.
