 Gaussian 16, Revision A.03,
 Gaussian 16:  EM64L-G16RevA.03 25-Dec-2016

 -------------
 #p 6-31g* mp2
 -------------

 ------------------------------------------------------
 Input file generated by CHIRIPA (05-May-2021 14:51:11)
 ------------------------------------------------------
 Symbolic Z-matrix:
 Charge =  0 Multiplicity = 1

                         Standard orientation:
 ---------------------------------------------------------------------
 Center     Atomic      Atomic             Coordinates (Angstroms)
 Number     Number       Type             X           Y           Z
 ---------------------------------------------------------------------
      1          6           0        2.172745    0.654794    0.094765
      2          6           0        2.897203    0.803220   -1.243560
      3          6           0        2.995920    2.257821   -1.704197
      4          1           0        1.164608    1.082705    0.008179
      5          1           0        2.699163    1.246631    0.856348
      6          1           0        2.370370    0.210172   -2.002083
      7          1           0        3.903665    0.374734   -1.153834
      8          1           0        3.540332    2.858754   -0.968605
      9          1           0        1.998325    2.693257   -1.821673
     10          1           0        3.517369    2.340838   -2.662873
     11          6           0        2.066093   -0.793614    0.568543
     12          6           0        1.341634   -0.942040    1.906869
     13          6           0        1.242917   -2.396641    2.367506
     14          1           0        1.539674   -1.385451   -0.193039
     15          1           0        3.074230   -1.221525    0.655129
     16          1           0        0.335173   -0.513554    1.817143
     17          1           0        1.868468   -0.348992    2.665392
     18          1           0        2.240512   -2.832077    2.484982
     19          1           0        0.698505   -2.997574    1.631913
     20          1           0        0.721468   -2.479658    3.326182
     21          6           0       -1.742340   -0.579642   -0.472987
     22          6           0       -2.236649   -1.308189   -1.723133
     23          6           0       -1.472545   -2.604838   -1.992647
     24          1           0       -0.671680   -0.359730   -0.583768
     25          1           0       -1.836009   -1.248459    0.393791
     26          1           0       -2.143366   -0.637713   -2.587064
     27          1           0       -3.306299   -1.526222   -1.609444
     28          1           0       -1.575423   -3.295066   -1.149081
     29          1           0       -0.405883   -2.401510   -2.132255
     30          1           0       -1.842143   -3.109349   -2.890826
     31          6           0       -2.496498    0.718462   -0.190321
     32          6           0       -2.002189    1.447008    1.059824
     33          6           0       -2.766293    2.743659    1.329338
     34          1           0       -2.402828    1.387279   -1.057100
     35          1           0       -3.567157    0.498550   -0.079541
     36          1           0       -0.932538    1.665042    0.946135
     37          1           0       -2.095472    0.776534    1.923756
     38          1           0       -3.832955    2.540329    1.468947
     39          1           0       -2.663414    3.433886    0.485772
     40          1           0       -2.396695    3.248168    2.227518
 ---------------------------------------------------------------------

 SCF Done:  E(RHF) =  -470.731184487     A.U. after   11 cycles
 E2 =    -0.1587141911D+01 EUMP2 =    -0.47231832639859D+03

 The electronic state is 1-A.
 Alpha  occ. eigenvalues --  -11.21675 -11.21654 -11.21649 -11.21470 -11.21433
 Alpha  occ. eigenvalues --  -11.21400 -11.21394 -11.21307 -11.21169 -11.21120
 Alpha  occ. eigenvalues --  -11.21115 -11.20994  -1.08608  -1.08346  -1.03610
 Alpha  occ. eigenvalues --   -1.03503  -0.96064  -0.95967  -0.87079  -0.86980
 Alpha  occ. eigenvalues --   -0.79713  -0.79564  -0.78538  -0.78087  -0.65568
 Alpha  occ. eigenvalues --   -0.64704  -0.61028  -0.60907  -0.59459  -0.59305
 Alpha  occ. eigenvalues --   -0.57665  -0.57575  -0.55471  -0.55166  -0.52766
 Alpha  occ. eigenvalues --   -0.52643  -0.52486  -0.52394  -0.50023  -0.49914
 Alpha  occ. eigenvalues --   -0.48063  -0.47921  -0.46845  -0.46683  -0.46491
 Alpha  occ. eigenvalues --   -0.45705  -0.45608  -0.44862  -0.43848  -0.43749
 Alpha virt. eigenvalues --    0.20064   0.22313   0.23286   0.23990   0.25207
 Alpha virt. eigenvalues --    0.26270   0.26556   0.28133   0.28721   0.30046
 Alpha virt. eigenvalues --    0.31126   0.31463   0.31516   0.31889   0.32441

 Mulliken charges:
               1
     1  C   -0.308430
     2  C   -0.299198
     3  C   -0.475569
     4  H    0.156541
     5  H    0.150412
     6  H    0.150740
     7  H    0.152719
     8  H    0.155544
     9  H    0.154409
    10  H    0.160504
    11  C   -0.303364
    12  C   -0.307268
    13  C   -0.476467
    14  H    0.152043
    15  H    0.150748
    16  H    0.163619
    17  H    0.150673
    18  H    0.154787
    19  H    0.155589
    20  H    0.159320
    21  C   -0.309966
    22  C   -0.298908
    23  C   -0.478022
    24  H    0.160885
    25  H    0.150796
    26  H    0.151833
    27  H    0.152287
    28  H    0.155478
    29  H    0.156025
    30  H    0.161085
    31  C   -0.296945
    32  C   -0.309704
    33  C   -0.474835
    34  H    0.148894
    35  H    0.149956
    36  H    0.159846
    37  H    0.152772
    38  H    0.155285
    39  H    0.155123
    40  H    0.160767
 Sum of Mulliken charges =  -0.00000

 Dipole moment (field-independent basis, Debye):
    X=             -0.0395    Y=              0.0215    Z=             -0.0055  Tot=              0.0453
 Quadrupole moment (field-independent basis, Debye-Ang):
   XX=            -83.7914   YY=            -86.4618   ZZ=            -84.6041
   XY=              0.7807   XZ=              0.2208   YZ=             -0.0139

 Normal termination of Gaussian 16 at Wed May  5 21:28:05 2021.
