 Gaussian 16, Revision A.03,
 Gaussian 16:  EM64L-G16RevA.03 25-Dec-2016

 -------------
 #p 6-31g* mp2
 -------------

 ------------------------------------------------------
 Input file generated by CHIRIPA (05-May-2021 14:51:09)
 ------------------------------------------------------
 Symbolic Z-matrix:
 Charge =  0 Multiplicity = 1

                         Standard orientation:
 ---------------------------------------------------------------------
 Center     Atomic      Atomic             Coordinates (Angstroms)
 Number     Number       Type             X           Y           Z
 ---------------------------------------------------------------------
      1          6           0       -2.373603    0.448568    0.193953
      2          6           0       -2.824327    1.272329   -1.012798
      3          6           0       -2.974120    2.759480   -0.690716
      4          1           0       -3.098602    0.577410    1.009258
      5          1           0       -1.416318    0.843287    0.561648
      6          1           0       -3.779791    0.875301   -1.378957
      7          1           0       -2.098271    1.141359   -1.825391
      8          1           0       -2.022395    3.176813   -0.346254
      9          1           0       -3.713470    2.909243    0.102716
     10          1           0       -3.297074    3.329576   -1.567387
     11          6           0       -2.219354   -1.040112   -0.112260
     12          6           0       -1.768630   -1.863873    1.094492
     13          6           0       -1.618837   -3.351025    0.772409
     14          1           0       -3.176639   -1.434831   -0.479955
     15          1           0       -1.494355   -1.168955   -0.927565
     16          1           0       -2.494686   -1.732903    1.907084
     17          1           0       -0.813166   -1.466845    1.460651
     18          1           0       -0.879487   -3.500787   -0.021023
     19          1           0       -2.570562   -3.768357    0.427947
     20          1           0       -1.295883   -3.921120    1.649080
     21          6           0        2.415267    1.039098   -0.170417
     22          6           0        1.920180    1.938782    0.962475
     23          6           0        2.164882    3.423000    0.688592
     24          1           0        3.488953    1.212677   -0.325382
     25          1           0        1.913909    1.328065   -1.104512
     26          1           0        2.421297    1.647295    1.894426
     27          1           0        0.847589    1.762902    1.114888
     28          1           0        1.651283    3.735706   -0.226303
     29          1           0        3.233932    3.619442    0.557663
     30          1           0        1.803346    4.047963    1.511132
     31          6           0        2.177690   -0.447554    0.088724
     32          6           0        2.672777   -1.347237   -1.044167
     33          6           0        2.428076   -2.831455   -0.770285
     34          1           0        2.679048   -0.736520    1.022818
     35          1           0        1.104004   -0.621132    0.243688
     36          1           0        3.745368   -1.171357   -1.196582
     37          1           0        2.171661   -1.055750   -1.976119
     38          1           0        1.359025   -3.027898   -0.639357
     39          1           0        2.941674   -3.144162    0.144611
     40          1           0        2.789611   -3.456418   -1.592825
 ---------------------------------------------------------------------

 SCF Done:  E(RHF) =  -470.732448771     A.U. after   11 cycles
 E2 =    -0.1585722468D+01 EUMP2 =    -0.47231817123905D+03

 The electronic state is 1-A.
 Alpha  occ. eigenvalues --  -11.21666 -11.21660 -11.21654 -11.21618 -11.21469
 Alpha  occ. eigenvalues --  -11.21461 -11.21410 -11.21399 -11.21124 -11.21115
 Alpha  occ. eigenvalues --  -11.21093 -11.21088  -1.08552  -1.08440  -1.03625
 Alpha  occ. eigenvalues --   -1.03541  -0.96069  -0.95995  -0.87115  -0.86982
 Alpha  occ. eigenvalues --   -0.79658  -0.79638  -0.78421  -0.78212  -0.65561
 Alpha  occ. eigenvalues --   -0.64728  -0.61295  -0.60710  -0.59404  -0.59381
 Alpha  occ. eigenvalues --   -0.57707  -0.57593  -0.55577  -0.55101  -0.52726
 Alpha  occ. eigenvalues --   -0.52711  -0.52517  -0.52421  -0.50306  -0.49629
 Alpha  occ. eigenvalues --   -0.48142  -0.47811  -0.46728  -0.46642  -0.46356
 Alpha  occ. eigenvalues --   -0.45808  -0.45767  -0.45158  -0.43842  -0.43826
 Alpha virt. eigenvalues --    0.18846   0.21317   0.24126   0.24752   0.25543
 Alpha virt. eigenvalues --    0.25864   0.26838   0.27721   0.29028   0.30025
 Alpha virt. eigenvalues --    0.30786   0.31480   0.31589   0.31699   0.32415

 Mulliken charges:
               1
     1  C   -0.307204
     2  C   -0.299122
     3  C   -0.476351
     4  H    0.150355
     5  H    0.156757
     6  H    0.152336
     7  H    0.151408
     8  H    0.155445
     9  H    0.155486
    10  H    0.160503
    11  C   -0.299172
    12  C   -0.304739
    13  C   -0.480509
    14  H    0.150502
    15  H    0.148979
    16  H    0.152719
    17  H    0.155984
    18  H    0.159381
    19  H    0.155553
    20  H    0.160993
    21  C   -0.297283
    22  C   -0.307089
    23  C   -0.475721
    24  H    0.150200
    25  H    0.149047
    26  H    0.152479
    27  H    0.157330
    28  H    0.155178
    29  H    0.155623
    30  H    0.160680
    31  C   -0.308460
    32  C   -0.298926
    33  C   -0.482630
    34  H    0.149618
    35  H    0.159467
    36  H    0.152370
    37  H    0.151339
    38  H    0.161224
    39  H    0.155651
    40  H    0.160599
 Sum of Mulliken charges =  -0.00000

 Dipole moment (field-independent basis, Debye):
    X=             -0.0028    Y=             -0.0043    Z=              0.0216  Tot=              0.0222
 Quadrupole moment (field-independent basis, Debye-Ang):
   XX=            -82.9346   YY=            -87.1383   ZZ=            -84.5177
   XY=              0.1406   XZ=              0.1923   YZ=             -0.1080

 Normal termination of Gaussian 16 at Thu May  6 02:09:52 2021.
