 Gaussian 16, Revision A.03,
 Gaussian 16:  EM64L-G16RevA.03 25-Dec-2016

 -------------
 #p 6-31g* mp2
 -------------

 ------------------------------------------------------
 Input file generated by CHIRIPA (05-May-2021 14:53:12)
 ------------------------------------------------------
 Symbolic Z-matrix:
 Charge =  0 Multiplicity = 1

                         Standard orientation:
 ---------------------------------------------------------------------
 Center     Atomic      Atomic             Coordinates (Angstroms)
 Number     Number       Type             X           Y           Z
 ---------------------------------------------------------------------
      1          6           0       -2.434835   -0.484233    0.734342
      2          6           0       -2.045977   -1.953489    0.901861
      3          6           0       -0.741530   -2.134900    1.678585
      4          1           0       -1.622781    0.046947    0.219209
      5          1           0       -2.530547   -0.022066    1.726630
      6          1           0       -1.952379   -2.413100   -0.090416
      7          1           0       -2.859133   -2.481273    1.416485
      8          1           0       -0.826499   -1.702237    2.680675
      9          1           0        0.085407   -1.633676    1.165212
     10          1           0       -0.482418   -3.192749    1.786643
     11          6           0       -3.736721   -0.286627   -0.040108
     12          6           0       -4.125578    1.182629   -0.207627
     13          6           0       -5.430026    1.364039   -0.984351
     14          1           0       -3.641008   -0.748794   -1.032396
     15          1           0       -4.548774   -0.817807    0.475026
     16          1           0       -3.312423    1.710413   -0.722251
     17          1           0       -4.219177    1.642240    0.784650
     18          1           0       -6.256963    0.862816   -0.470978
     19          1           0       -5.345057    0.931377   -1.986441
     20          1           0       -5.689137    2.421889   -1.092409
     21          6           0        2.502610    2.639905    0.670917
     22          6           0        1.342918    2.187166    0.033214
     23          6           0        1.280789    0.893223   -0.492519
     24          6           0        2.401885    0.075012   -0.362264
     25          6           0        3.571686    0.497072    0.267593
     26          6           0        3.611337    1.794902    0.785869
     27          1           0        2.542142    3.646582    1.076425
     28          1           0        0.480345    2.841216   -0.057512
     29          1           0        0.395677    0.517124   -0.991063
     30          1           0        4.415518   -0.178001    0.342707
     31          1           0        4.513298    2.143822    1.280608
     32          7           0        2.348010   -1.296886   -0.914888
     33          8           0        3.349224   -1.998242   -0.787193
     34          8           0        1.305587   -1.644848   -1.465265
 ---------------------------------------------------------------------

 SCF Done:  E(RHF) =  -669.535207630     A.U. after   15 cycles
 E2 =    -0.2093657821D+01 EUMP2 =    -0.67162886545060D+03

 The electronic state is 1-A.
 Alpha  occ. eigenvalues --  -20.60903 -20.60898 -15.85924 -11.31254 -11.27817
 Alpha  occ. eigenvalues --  -11.27809 -11.27550 -11.26825 -11.26814 -11.21843
 Alpha  occ. eigenvalues --  -11.21440 -11.21381 -11.21232 -11.21195 -11.20562
 Alpha  occ. eigenvalues --   -1.59961  -1.39518  -1.19428  -1.08828  -1.08411
 Alpha  occ. eigenvalues --   -1.04824  -1.03421  -0.95876  -0.95670  -0.86902
 Alpha  occ. eigenvalues --   -0.86226  -0.82502  -0.79524  -0.78250  -0.77543
 Alpha  occ. eigenvalues --   -0.72155  -0.71296  -0.70544  -0.65119  -0.65080
 Alpha  occ. eigenvalues --   -0.64765  -0.62186  -0.60784  -0.59270  -0.57486
 Alpha  occ. eigenvalues --   -0.55336  -0.55159  -0.53157  -0.52929  -0.52549
 Alpha  occ. eigenvalues --   -0.52304  -0.49853  -0.48913  -0.48904  -0.47835
 Alpha  occ. eigenvalues --   -0.46574  -0.45810  -0.45644  -0.44814  -0.43703
 Alpha  occ. eigenvalues --   -0.37391  -0.36391
 Alpha virt. eigenvalues --    0.04932   0.11133   0.16415   0.20177   0.23011
 Alpha virt. eigenvalues --    0.24343   0.25358   0.27103   0.27913   0.27963
 Alpha virt. eigenvalues --    0.29999   0.30515   0.31610   0.31905   0.32010

 Mulliken charges:
               1
     1  C   -0.299048
     2  C   -0.300039
     3  C   -0.474848
     4  H    0.140015
     5  H    0.147710
     6  H    0.163348
     7  H    0.149944
     8  H    0.148766
     9  H    0.154386
    10  H    0.164546
    11  C   -0.298980
    12  C   -0.297872
    13  C   -0.475648
    14  H    0.153203
    15  H    0.151339
    16  H    0.143615
    17  H    0.151006
    18  H    0.156714
    19  H    0.156898
    20  H    0.159010
    21  C   -0.170573
    22  C   -0.218809
    23  C   -0.173257
    24  C    0.157540
    25  C   -0.170749
    26  C   -0.218344
    27  H    0.226039
    28  H    0.224490
    29  H    0.278476
    30  H    0.275879
    31  H    0.223797
    32  N    0.489093
    33  O   -0.458218
    34  O   -0.459429
 Sum of Mulliken charges =  -0.00000

 Dipole moment (field-independent basis, Debye):
    X=              0.2641    Y=              4.7127    Z=              1.8854  Tot=              5.0827
 Quadrupole moment (field-independent basis, Debye-Ang):
   XX=            -89.7745   YY=            -94.2826   ZZ=            -96.1671
   XY=             11.4932   XZ=              5.5609   YZ=             -1.5694

 Normal termination of Gaussian 16 at Thu May  6 05:44:44 2021.
