 Gaussian 16, Revision A.03,
 Gaussian 16:  EM64L-G16RevA.03 25-Dec-2016

 -------------
 #p 6-31g* mp2
 -------------

 ------------------------------------------------------
 Input file generated by CHIRIPA (05-May-2021 14:51:13)
 ------------------------------------------------------
 Symbolic Z-matrix:
 Charge =  0 Multiplicity = 1

                         Standard orientation:
 ---------------------------------------------------------------------
 Center     Atomic      Atomic             Coordinates (Angstroms)
 Number     Number       Type             X           Y           Z
 ---------------------------------------------------------------------
      1          6           0       -2.543819   -0.839868    0.718931
      2          6           0       -1.324633   -0.944023    1.635841
      3          6           0       -1.238630   -2.290955    2.354293
      4          1           0       -3.455011   -0.999838    1.311454
      5          1           0       -2.506719   -1.650156   -0.022319
      6          1           0       -1.363301   -0.132953    2.374275
      7          1           0       -0.416248   -0.783596    1.041101
      8          1           0       -1.175283   -3.110150    1.630754
      9          1           0       -2.127717   -2.455809    2.971504
     10          1           0       -0.359758   -2.343794    3.004409
     11          6           0       -2.643612    0.500940   -0.006329
     12          6           0       -3.862797    0.605096   -0.923238
     13          6           0       -3.948800    1.952027   -1.641690
     14          1           0       -2.680711    1.311228    0.734922
     15          1           0       -1.732420    0.660911   -0.598852
     16          1           0       -4.771183    0.444669   -0.328499
     17          1           0       -3.824130   -0.205975   -1.661673
     18          1           0       -3.059714    2.116881   -2.258902
     19          1           0       -4.012148    2.771222   -0.918152
     20          1           0       -4.827673    2.004866   -2.291807
     21          6           0        2.586232   -0.594171   -0.371751
     22          6           0        2.272719   -1.169665   -1.753237
     23          6           0        2.261356   -2.698535   -1.768061
     24          1           0        3.561544   -0.972786   -0.036549
     25          1           0        1.843240   -0.963254    0.348760
     26          1           0        3.015268   -0.798503   -2.471203
     27          1           0        1.298126   -0.789483   -2.085273
     28          1           0        1.508309   -3.084937   -1.073645
     29          1           0        3.235207   -3.094007   -1.461767
     30          1           0        2.035176   -3.088679   -2.765303
     31          6           0        2.601199    0.933098   -0.340850
     32          6           0        2.914712    1.508592    1.040635
     33          6           0        2.926075    3.037463    1.055459
     34          1           0        3.344191    1.302181   -1.061362
     35          1           0        1.625886    1.311714   -0.676054
     36          1           0        3.889304    1.128411    1.372670
     37          1           0        2.172163    1.137431    1.758600
     38          1           0        1.952223    3.432935    0.749165
     39          1           0        3.679122    3.423864    0.361042
     40          1           0        3.152255    3.427607    2.052701
 ---------------------------------------------------------------------

 SCF Done:  E(RHF) =  -470.733428685     A.U. after   11 cycles
 E2 =    -0.1583501690D+01 EUMP2 =    -0.47231693037483D+03

 The electronic state is 1-A.
 Alpha  occ. eigenvalues --  -11.21669 -11.21652 -11.21647 -11.21588 -11.21476
 Alpha  occ. eigenvalues --  -11.21416 -11.21416 -11.21356 -11.21141 -11.21111
 Alpha  occ. eigenvalues --  -11.21110 -11.21056  -1.08509  -1.08439  -1.03594
 Alpha  occ. eigenvalues --   -1.03542  -0.96040  -0.95993  -0.87055  -0.87007
 Alpha  occ. eigenvalues --   -0.79669  -0.79600  -0.78346  -0.78229  -0.65315
 Alpha  occ. eigenvalues --   -0.64923  -0.61051  -0.60879  -0.59408  -0.59360
 Alpha  occ. eigenvalues --   -0.57670  -0.57585  -0.55344  -0.55270  -0.52730
 Alpha  occ. eigenvalues --   -0.52687  -0.52462  -0.52419  -0.50037  -0.49889
 Alpha  occ. eigenvalues --   -0.48008  -0.47917  -0.46826  -0.46590  -0.46060
 Alpha  occ. eigenvalues --   -0.45804  -0.45736  -0.45398  -0.43846  -0.43797
 Alpha virt. eigenvalues --    0.19287   0.23298   0.23479   0.24555   0.25402
 Alpha virt. eigenvalues --    0.26508   0.26846   0.27720   0.28633   0.30090
 Alpha virt. eigenvalues --    0.30593   0.31655   0.31692   0.31916   0.32301

 Mulliken charges:
               1
     1  C   -0.297688
     2  C   -0.308644
     3  C   -0.475766
     4  H    0.150109
     5  H    0.149656
     6  H    0.152197
     7  H    0.159121
     8  H    0.155074
     9  H    0.155815
    10  H    0.160658
    11  C   -0.299126
    12  C   -0.299725
    13  C   -0.475798
    14  H    0.149768
    15  H    0.149284
    16  H    0.152236
    17  H    0.152143
    18  H    0.155183
    19  H    0.155270
    20  H    0.160524
    21  C   -0.305231
    22  C   -0.299804
    23  C   -0.475788
    24  H    0.150245
    25  H    0.155852
    26  H    0.152376
    27  H    0.151026
    28  H    0.154892
    29  H    0.155598
    30  H    0.160288
    31  C   -0.298906
    32  C   -0.300391
    33  C   -0.475814
    34  H    0.149680
    35  H    0.149979
    36  H    0.151810
    37  H    0.153115
    38  H    0.155572
    39  H    0.155027
    40  H    0.160180
 Sum of Mulliken charges =  -0.00000

 Dipole moment (field-independent basis, Debye):
    X=             -0.0119    Y=             -0.0044    Z=              0.0141  Tot=              0.0190
 Quadrupole moment (field-independent basis, Debye-Ang):
   XX=            -83.4170   YY=            -86.6983   ZZ=            -84.4918
   XY=             -0.0985   XZ=             -0.7949   YZ=              0.6423

 Normal termination of Gaussian 16 at Wed May  5 23:12:49 2021.
