 Gaussian 16, Revision A.03,
 Gaussian 16:  EM64L-G16RevA.03 25-Dec-2016

 -------------
 #p 6-31g* mp2
 -------------

 ------------------------------------------------------
 Input file generated by CHIRIPA (05-May-2021 14:53:14)
 ------------------------------------------------------
 Symbolic Z-matrix:
 Charge =  0 Multiplicity = 1

                         Standard orientation:
 ---------------------------------------------------------------------
 Center     Atomic      Atomic             Coordinates (Angstroms)
 Number     Number       Type             X           Y           Z
 ---------------------------------------------------------------------
      1          6           0       -3.174412    0.984818   -0.158775
      2          6           0       -2.307249    1.775540    0.821414
      3          6           0       -1.692352    3.025551    0.191202
      4          1           0       -2.566183    0.697883   -1.027493
      5          1           0       -3.973739    1.636294   -0.538316
      6          1           0       -1.510621    1.122365    1.200047
      7          1           0       -2.917564    2.060461    1.687989
      8          1           0       -2.475519    3.699574   -0.170662
      9          1           0       -1.060582    2.756147   -0.661376
     10          1           0       -1.076435    3.575729    0.909402
     11          6           0       -3.796099   -0.267628    0.456539
     12          6           0       -4.663262   -1.058350   -0.523650
     13          6           0       -5.278159   -2.308361    0.106562
     14          1           0       -2.996772   -0.919104    0.836080
     15          1           0       -4.404328    0.019307    1.325257
     16          1           0       -4.052947   -1.343271   -1.390225
     17          1           0       -5.459890   -0.405175   -0.902283
     18          1           0       -5.909929   -2.038957    0.959140
     19          1           0       -4.494992   -2.982383    0.468426
     20          1           0       -5.894076   -2.858538   -0.611638
     21          6           0        2.888319   -2.782768    0.158383
     22          6           0        1.812841   -2.224878   -0.540635
     23          6           0        1.710958   -0.839568   -0.699012
     24          6           0        2.706859   -0.038209   -0.142870
     25          6           0        3.790507   -0.563998    0.558944
     26          6           0        3.871985   -1.952012    0.704977
     27          1           0        2.959538   -3.859961    0.276619
     28          1           0        1.047446   -2.867618   -0.966197
     29          1           0        0.889054   -0.381153   -1.235434
     30          1           0        4.538043    0.102390    0.971903
     31          1           0        4.708337   -2.382498    1.248340
     32          7           0        2.609801    1.429789   -0.304004
     33          8           0        3.500234    2.114111    0.195465
     34          8           0        1.645133    1.868284   -0.926718
 ---------------------------------------------------------------------

 SCF Done:  E(RHF) =  -669.535911937     A.U. after   15 cycles
 E2 =    -0.2091343698D+01 EUMP2 =    -0.67162725563522D+03

 The electronic state is 1-A.
 Alpha  occ. eigenvalues --  -20.60908 -20.60902 -15.85946 -11.31288 -11.27859
 Alpha  occ. eigenvalues --  -11.27847 -11.27590 -11.26866 -11.26855 -11.21649
 Alpha  occ. eigenvalues --  -11.21317 -11.21187 -11.21117 -11.21024 -11.19947
 Alpha  occ. eigenvalues --   -1.59969  -1.39526  -1.19457  -1.08856  -1.08217
 Alpha  occ. eigenvalues --   -1.04857  -1.03195  -0.95708  -0.95604  -0.86628
 Alpha  occ. eigenvalues --   -0.86256  -0.82532  -0.79298  -0.77994  -0.77581
 Alpha  occ. eigenvalues --   -0.72176  -0.71286  -0.70566  -0.65117  -0.64883
 Alpha  occ. eigenvalues --   -0.64838  -0.62206  -0.60587  -0.59056  -0.57222
 Alpha  occ. eigenvalues --   -0.55358  -0.54895  -0.53187  -0.52950  -0.52278
 Alpha  occ. eigenvalues --   -0.52038  -0.49574  -0.48930  -0.48903  -0.47587
 Alpha  occ. eigenvalues --   -0.46360  -0.45529  -0.45458  -0.44875  -0.43465
 Alpha  occ. eigenvalues --   -0.37434  -0.36459
 Alpha virt. eigenvalues --    0.04931   0.11177   0.16412   0.20779   0.22830
 Alpha virt. eigenvalues --    0.24319   0.26272   0.27465   0.27539   0.28436
 Alpha virt. eigenvalues --    0.28793   0.30679   0.31611   0.31954   0.32303

 Mulliken charges:
               1
     1  C   -0.297554
     2  C   -0.298981
     3  C   -0.480083
     4  H    0.145639
     5  H    0.150392
     6  H    0.147699
     7  H    0.149000
     8  H    0.148474
     9  H    0.176094
    10  H    0.162478
    11  C   -0.297482
    12  C   -0.298864
    13  C   -0.475133
    14  H    0.144986
    15  H    0.150563
    16  H    0.148331
    17  H    0.153545
    18  H    0.156303
    19  H    0.152105
    20  H    0.159786
    21  C   -0.170658
    22  C   -0.218545
    23  C   -0.171323
    24  C    0.158189
    25  C   -0.170787
    26  C   -0.218472
    27  H    0.226039
    28  H    0.223815
    29  H    0.275386
    30  H    0.275907
    31  H    0.223861
    32  N    0.491542
    33  O   -0.459147
    34  O   -0.463106
 Sum of Mulliken charges =  -0.00000

 Dipole moment (field-independent basis, Debye):
    X=              0.5208    Y=             -5.0807    Z=              0.5357  Tot=              5.1353
 Quadrupole moment (field-independent basis, Debye-Ang):
   XX=            -89.3244   YY=            -95.3387   ZZ=            -94.3697
   XY=            -14.6195   XZ=              4.1022   YZ=              1.3603

 Normal termination of Gaussian 16 at Thu May  6 01:03:44 2021.
