 Gaussian 16, Revision A.03,
 Gaussian 16:  EM64L-G16RevA.03 25-Dec-2016

 -------------
 #p 6-31g* mp2
 -------------

 ------------------------------------------------------
 Input file generated by CHIRIPA (05-May-2021 14:55:25)
 ------------------------------------------------------
 Symbolic Z-matrix:
 Charge =  0 Multiplicity = 1

                         Standard orientation:
 ---------------------------------------------------------------------
 Center     Atomic      Atomic             Coordinates (Angstroms)
 Number     Number       Type             X           Y           Z
 ---------------------------------------------------------------------
      1          6           0        4.770323    1.546436    0.097618
      2          6           0        3.492938    1.937175   -0.317270
      3          6           0        2.456049    1.002925   -0.398432
      4          6           0        2.732999   -0.319605   -0.055646
      5          6           0        3.995109   -0.739800    0.361251
      6          6           0        5.016897    0.211549    0.434960
      7          1           0        5.569937    2.278825    0.157772
      8          1           0        3.298551    2.973176   -0.579872
      9          1           0        1.457805    1.278164   -0.716505
     10          1           0        4.158397   -1.779799    0.616512
     11          1           0        6.007953   -0.094761    0.757494
     12          7           0        1.643285   -1.317705   -0.137624
     13          8           0        1.913017   -2.476726    0.169870
     14          8           0        0.540069   -0.922096   -0.507819
     15          6           0       -3.442383    0.877457   -0.148181
     16          6           0       -4.214648    2.059425    0.438798
     17          6           0       -3.630953    3.410809    0.025452
     18          1           0       -2.392988    0.938353    0.171207
     19          1           0       -3.440710    0.957433   -1.244080
     20          1           0       -4.216044    1.976498    1.533210
     21          1           0       -5.262367    1.995604    0.118133
     22          1           0       -3.644362    3.519271   -1.063886
     23          1           0       -2.592093    3.500058    0.359231
     24          1           0       -4.198250    4.241798    0.456137
     25          6           0       -4.013866   -0.480385    0.256048
     26          6           0       -3.241600   -1.662352   -0.330931
     27          6           0       -3.825296   -3.013736    0.082415
     28          1           0       -4.015538   -0.560360    1.351948
     29          1           0       -5.063260   -0.541280   -0.063340
     30          1           0       -2.193881   -1.598530   -0.010266
     31          1           0       -3.240203   -1.579426   -1.425343
     32          1           0       -4.864154   -3.102985   -0.251365
     33          1           0       -3.811886   -3.122198    1.171753
     34          1           0       -3.257998   -3.844725   -0.348271
 ---------------------------------------------------------------------

 SCF Done:  E(RHF) =  -669.536276168     A.U. after   15 cycles
 E2 =    -0.2091186042D+01 EUMP2 =    -0.67162746220991D+03

 The electronic state is 1-A.
 Alpha  occ. eigenvalues --  -20.61002 -20.60992 -15.86025 -11.31325 -11.27884
 Alpha  occ. eigenvalues --  -11.27880 -11.27618 -11.26887 -11.26876 -11.21035
 Alpha  occ. eigenvalues --  -11.20751 -11.20519 -11.20327 -11.20013 -11.19817
 Alpha  occ. eigenvalues --   -1.60057  -1.39613  -1.19491  -1.08899  -1.07480
 Alpha  occ. eigenvalues --   -1.04883  -1.02583  -0.95744  -0.95098  -0.86284
 Alpha  occ. eigenvalues --   -0.86125  -0.82579  -0.78678  -0.77640  -0.77186
 Alpha  occ. eigenvalues --   -0.72242  -0.71369  -0.70598  -0.65147  -0.64885
 Alpha  occ. eigenvalues --   -0.64117  -0.62230  -0.59983  -0.58501  -0.56659
 Alpha  occ. eigenvalues --   -0.55388  -0.54412  -0.53217  -0.52974  -0.51813
 Alpha  occ. eigenvalues --   -0.51515  -0.49155  -0.49002  -0.48966  -0.46969
 Alpha  occ. eigenvalues --   -0.45703  -0.45097  -0.44761  -0.44492  -0.42836
 Alpha  occ. eigenvalues --   -0.37469  -0.36483
 Alpha virt. eigenvalues --    0.04879   0.11172   0.16370   0.21230   0.23653
 Alpha virt. eigenvalues --    0.25222   0.26869   0.27454   0.27935   0.28689
 Alpha virt. eigenvalues --    0.29026   0.30993   0.32212   0.32450   0.32546

 Mulliken charges:
               1
     1  C   -0.170516
     2  C   -0.218590
     3  C   -0.171213
     4  C    0.157589
     5  C   -0.170520
     6  C   -0.218615
     7  H    0.226147
     8  H    0.224162
     9  H    0.276244
    10  H    0.275899
    11  H    0.223914
    12  N    0.490664
    13  O   -0.458704
    14  O   -0.461825
    15  C   -0.298198
    16  C   -0.298823
    17  C   -0.474339
    18  H    0.154165
    19  H    0.147737
    20  H    0.150526
    21  H    0.150727
    22  H    0.153938
    23  H    0.150624
    24  H    0.158092
    25  C   -0.297679
    26  C   -0.309429
    27  C   -0.475073
    28  H    0.146159
    29  H    0.144488
    30  H    0.181796
    31  H    0.148152
    32  H    0.148347
    33  H    0.151694
    34  H    0.162461
 Sum of Mulliken charges =  -0.00000

 Dipole moment (field-independent basis, Debye):
    X=              4.2013    Y=              3.4238    Z=              0.2702  Tot=              5.4264
 Quadrupole moment (field-independent basis, Debye-Ang):
   XX=            -73.1199   YY=            -96.3363   ZZ=            -94.6096
   XY=              5.7021   XZ=              2.4034   YZ=             -1.3975

 Normal termination of Gaussian 16 at Thu May  6 03:13:54 2021.
