 Gaussian 16, Revision A.03,
 Gaussian 16:  EM64L-G16RevA.03 25-Dec-2016

 -------------
 #p 6-31g* mp2
 -------------

 ------------------------------------------------------
 Input file generated by CHIRIPA (05-May-2021 14:51:14)
 ------------------------------------------------------
 Symbolic Z-matrix:
 Charge =  0 Multiplicity = 1

                         Standard orientation:
 ---------------------------------------------------------------------
 Center     Atomic      Atomic             Coordinates (Angstroms)
 Number     Number       Type             X           Y           Z
 ---------------------------------------------------------------------
      1          6           0       -3.377751   -0.623433   -0.613718
      2          6           0       -2.072114   -1.414615   -0.699335
      3          6           0       -2.240753   -2.758629   -1.408546
      4          1           0       -4.130239   -1.225873   -0.086676
      5          1           0       -3.765031   -0.457513   -1.628548
      6          1           0       -1.686693   -1.577797    0.315277
      7          1           0       -1.322590   -0.810145   -1.226066
      8          1           0       -2.602447   -2.611765   -2.431390
      9          1           0       -2.968619   -3.383779   -0.881289
     10          1           0       -1.295232   -3.307577   -1.458589
     11          6           0       -3.225301    0.722509    0.092629
     12          6           0       -4.530937    1.513691    0.178247
     13          6           0       -4.362299    2.857705    0.887457
     14          1           0       -2.838021    0.556589    1.107459
     15          1           0       -2.472813    1.324949   -0.434413
     16          1           0       -5.280462    0.909221    0.704977
     17          1           0       -4.916358    1.676873   -0.836366
     18          1           0       -3.634433    3.482855    0.360200
     19          1           0       -4.000605    2.710841    1.910301
     20          1           0       -5.307820    3.406654    0.937501
     21          6           0        2.635473   -0.304013    0.534492
     22          6           0        2.682747   -1.765062    0.982918
     23          6           0        1.342785   -2.259620    1.528543
     24          1           0        2.329225    0.323497    1.382660
     25          1           0        1.860036   -0.188959   -0.235479
     26          1           0        3.458810   -1.877598    1.750822
     27          1           0        2.989104   -2.389144    0.133635
     28          1           0        0.561830   -2.176173    0.765819
     29          1           0        1.034206   -1.661721    2.392196
     30          1           0        1.399168   -3.306344    1.843264
     31          6           0        3.967579    0.204937   -0.013404
     32          6           0        3.920304    1.665986   -0.461829
     33          6           0        5.260267    2.160544   -1.007455
     34          1           0        4.743016    0.089883    0.756567
     35          1           0        4.273828   -0.422573   -0.861571
     36          1           0        3.613948    2.290068    0.387453
     37          1           0        3.144242    1.778522   -1.229734
     38          1           0        5.568847    1.562644   -1.871107
     39          1           0        6.041222    2.077096   -0.244732
     40          1           0        5.203884    3.207268   -1.322176
 ---------------------------------------------------------------------

 SCF Done:  E(RHF) =  -470.733167092     A.U. after   11 cycles
 E2 =    -0.1582842868D+01 EUMP2 =    -0.47231600996007D+03

 The electronic state is 1-A.
 Alpha  occ. eigenvalues --  -11.21605 -11.21596 -11.21594 -11.21573 -11.21404
 Alpha  occ. eigenvalues --  -11.21384 -11.21343 -11.21324 -11.21098 -11.21066
 Alpha  occ. eigenvalues --  -11.21066 -11.20996  -1.08439  -1.08404  -1.03559
 Alpha  occ. eigenvalues --   -1.03490  -0.96003  -0.95942  -0.87007  -0.86971
 Alpha  occ. eigenvalues --   -0.79684  -0.79507  -0.78293  -0.78174  -0.65077
 Alpha  occ. eigenvalues --   -0.65032  -0.61005  -0.60863  -0.59395  -0.59296
 Alpha  occ. eigenvalues --   -0.57692  -0.57487  -0.55312  -0.55192  -0.52689
 Alpha  occ. eigenvalues --   -0.52649  -0.52414  -0.52384  -0.49988  -0.49850
 Alpha  occ. eigenvalues --   -0.48100  -0.47751  -0.46709  -0.46516  -0.45908
 Alpha  occ. eigenvalues --   -0.45747  -0.45689  -0.45502  -0.43790  -0.43762
 Alpha virt. eigenvalues --    0.21552   0.23081   0.23471   0.24909   0.25856
 Alpha virt. eigenvalues --    0.26258   0.27074   0.27469   0.28100   0.29007
 Alpha virt. eigenvalues --    0.30727   0.31090   0.31552   0.31749   0.32164

 Mulliken charges:
               1
     1  C   -0.297621
     2  C   -0.304994
     3  C   -0.476998
     4  H    0.149803
     5  H    0.149343
     6  H    0.157095
     7  H    0.151319
     8  H    0.155375
     9  H    0.155718
    10  H    0.160646
    11  C   -0.298392
    12  C   -0.299673
    13  C   -0.475695
    14  H    0.149941
    15  H    0.149659
    16  H    0.151945
    17  H    0.151859
    18  H    0.155211
    19  H    0.155204
    20  H    0.160215
    21  C   -0.298834
    22  C   -0.299147
    23  C   -0.484233
    24  H    0.149655
    25  H    0.150153
    26  H    0.151682
    27  H    0.151527
    28  H    0.165552
    29  H    0.154291
    30  H    0.159710
    31  C   -0.298304
    32  C   -0.299566
    33  C   -0.475690
    34  H    0.149525
    35  H    0.149525
    36  H    0.152008
    37  H    0.151663
    38  H    0.155134
    39  H    0.155205
    40  H    0.160183
 Sum of Mulliken charges =  -0.00000

 Dipole moment (field-independent basis, Debye):
    X=             -0.0268    Y=             -0.0016    Z=              0.0026  Tot=              0.0270
 Quadrupole moment (field-independent basis, Debye-Ang):
   XX=            -85.5458   YY=            -85.7840   ZZ=            -83.5367
   XY=             -0.1749   XZ=              0.4165   YZ=             -0.3727

 Normal termination of Gaussian 16 at Thu May  6 04:00:58 2021.
