 Gaussian 16, Revision A.03,
 Gaussian 16:  EM64L-G16RevA.03 25-Dec-2016

 -------------
 #p 6-31g* mp2
 -------------

 ------------------------------------------------------
 Input file generated by CHIRIPA (05-May-2021 14:57:25)
 ------------------------------------------------------
 Symbolic Z-matrix:
 Charge =  0 Multiplicity = 1

                         Standard orientation:
 ---------------------------------------------------------------------
 Center     Atomic      Atomic             Coordinates (Angstroms)
 Number     Number       Type             X           Y           Z
 ---------------------------------------------------------------------
      1          6           0        4.950519    1.510421   -0.654253
      2          6           0        3.566401    1.688600   -0.749066
      3          6           0        2.691158    0.669671   -0.361404
      4          6           0        3.236834   -0.519869    0.118725
      5          6           0        4.611172   -0.727649    0.225075
      6          6           0        5.467576    0.304990   -0.168342
      7          1           0        5.623111    2.307275   -0.957634
      8          1           0        3.162025    2.623693   -1.126062
      9          1           0        1.615479    0.780914   -0.424317
     10          1           0        4.984531   -1.670966    0.604778
     11          1           0        6.542066    0.163815   -0.093609
     12          7           0        2.320226   -1.605821    0.532172
     13          8           0        2.826077   -2.644377    0.951877
     14          8           0        1.113293   -1.397871    0.428697
     15          6           0       -1.905068    2.253169    0.663785
     16          6           0       -1.582980    1.504490   -0.472991
     17          6           0       -2.397327    0.442763   -0.878113
     18          6           0       -3.531257    0.156019   -0.119646
     19          6           0       -3.878833    0.883364    1.017653
     20          6           0       -3.049949    1.940767    1.404173
     21          1           0       -1.266817    3.076263    0.971268
     22          1           0       -0.694474    1.744838   -1.049910
     23          1           0       -2.171511   -0.153235   -1.754018
     24          1           0       -4.771110    0.619888    1.572484
     25          1           0       -3.302554    2.520482    2.287443
     26          7           0       -4.401064   -0.965695   -0.538684
     27          8           0       -5.394510   -1.198151    0.146639
     28          8           0       -4.072905   -1.591198   -1.544514
 ---------------------------------------------------------------------

 SCF Done:  E(RHF) =  -868.336543818     A.U. after   16 cycles
 E2 =    -0.2600290504D+01 EUMP2 =    -0.87093683432254D+03

 The electronic state is 1-A.
 Alpha  occ. eigenvalues --  -20.61148 -20.61138 -20.60327 -20.60314 -15.86203
 Alpha  occ. eigenvalues --  -15.85384 -11.31709 -11.30816 -11.28367 -11.28239
 Alpha  occ. eigenvalues --  -11.28025 -11.27458 -11.27447 -11.27381 -11.27312
 Alpha  occ. eigenvalues --  -11.27272 -11.26613 -11.26476  -1.60218  -1.59393
 Alpha  occ. eigenvalues --   -1.39769  -1.38946  -1.19886  -1.19037  -1.09246
 Alpha  occ. eigenvalues --   -1.08442  -1.05324  -1.04475  -0.96064  -0.95251
 Alpha  occ. eigenvalues --   -0.86709  -0.85895  -0.82901  -0.82097  -0.77943
 Alpha  occ. eigenvalues --   -0.77105  -0.72415  -0.71612  -0.71546  -0.70997
 Alpha  occ. eigenvalues --   -0.70706  -0.70199  -0.65540  -0.65353  -0.64723
 Alpha  occ. eigenvalues --   -0.64554  -0.62695  -0.61816  -0.55793  -0.55044
 Alpha  occ. eigenvalues --   -0.53625  -0.53448  -0.52742  -0.52592  -0.49183
 Alpha  occ. eigenvalues --   -0.49166  -0.48377  -0.48350  -0.45144  -0.44337
 Alpha  occ. eigenvalues --   -0.37851  -0.37038  -0.36928  -0.36030
 Alpha virt. eigenvalues --    0.04616   0.05469   0.10724   0.11464   0.16095
 Alpha virt. eigenvalues --    0.16824   0.19360   0.22032   0.25196   0.27332
 Alpha virt. eigenvalues --    0.28487   0.29152   0.30439   0.31096   0.32393

 Mulliken charges:
               1
     1  C   -0.170475
     2  C   -0.219648
     3  C   -0.176148
     4  C    0.158907
     5  C   -0.169563
     6  C   -0.218358
     7  H    0.226892
     8  H    0.219698
     9  H    0.273197
    10  H    0.277813
    11  H    0.225567
    12  N    0.487240
    13  O   -0.457383
    14  O   -0.460219
    15  C   -0.169552
    16  C   -0.214076
    17  C   -0.160496
    18  C    0.159028
    19  C   -0.168570
    20  C   -0.218217
    21  H    0.220580
    22  H    0.209806
    23  H    0.277638
    24  H    0.275702
    25  H    0.222275
    26  N    0.488614
    27  O   -0.461458
    28  O   -0.458794
 Sum of Mulliken charges =  -0.00000

 Dipole moment (field-independent basis, Debye):
    X=              6.3272    Y=              7.5465    Z=              0.0758  Tot=              9.8483
 Quadrupole moment (field-independent basis, Debye-Ang):
   XX=           -100.2212   YY=           -107.1842   ZZ=           -103.3713
   XY=             -5.8904   XZ=            -11.5632   YZ=              1.0477

 Normal termination of Gaussian 16 at Thu May  6 09:50:51 2021.
