 Gaussian 16, Revision A.03,
 Gaussian 16:  EM64L-G16RevA.03 25-Dec-2016

 -------------
 #p 6-31g* mp2
 -------------

 ------------------------------------------------------
 Input file generated by CHIRIPA (05-May-2021 14:55:25)
 ------------------------------------------------------
 Symbolic Z-matrix:
 Charge =  0 Multiplicity = 1

                         Standard orientation:
 ---------------------------------------------------------------------
 Center     Atomic      Atomic             Coordinates (Angstroms)
 Number     Number       Type             X           Y           Z
 ---------------------------------------------------------------------
      1          6           0       -5.592489    1.895802   -0.028209
      2          6           0       -5.898363    0.695568   -0.678134
      3          6           0       -4.980574   -0.358971   -0.690699
      4          6           0       -3.760863   -0.178152   -0.040392
      5          6           0       -3.426846    1.005540    0.615806
      6          6           0       -4.359880    2.046691    0.615552
      7          1           0       -6.311371    2.709793   -0.023428
      8          1           0       -6.854849    0.575567   -1.178912
      9          1           0       -5.191546   -1.298855   -1.186206
     10          1           0       -2.465218    1.095454    1.106321
     11          1           0       -4.119628    2.977686    1.121093
     12          7           0       -2.781171   -1.287459   -0.046908
     13          8           0       -1.713489   -1.103076    0.533346
     14          8           0       -3.099521   -2.320313   -0.632146
     15          6           0        4.573947   -0.562387    0.323028
     16          6           0        3.082406   -0.234249    0.248088
     17          6           0        2.201784   -1.357013    0.797362
     18          1           0        4.767612   -1.488612   -0.235134
     19          1           0        4.845680   -0.764736    1.368309
     20          1           0        2.813856   -0.031225   -0.796555
     21          1           0        2.892300    0.691406    0.806333
     22          1           0        2.441109   -1.555828    1.847027
     23          1           0        2.362219   -2.282565    0.235031
     24          1           0        1.139453   -1.101442    0.734131
     25          6           0        5.467212    0.550420   -0.222375
     26          6           0        6.958754    0.222281   -0.147434
     27          6           0        7.839375    1.345045   -0.696707
     28          1           0        5.195479    0.752768   -1.267655
     29          1           0        5.273548    1.476645    0.335788
     30          1           0        7.148860   -0.703374   -0.705680
     31          1           0        7.227302    0.019258    0.897209
     32          1           0        7.678940    2.270597   -0.134377
     33          1           0        7.600050    1.543861   -1.746372
     34          1           0        8.901705    1.089474   -0.633477
 ---------------------------------------------------------------------

 SCF Done:  E(RHF) =  -669.536079944     A.U. after   15 cycles
 E2 =    -0.2090599737D+01 EUMP2 =    -0.67162667968148D+03

 The electronic state is 1-A.
 Alpha  occ. eigenvalues --  -20.60925 -20.60916 -15.85968 -11.31285 -11.27849
 Alpha  occ. eigenvalues --  -11.27846 -11.27587 -11.26858 -11.26848 -11.21174
 Alpha  occ. eigenvalues --  -11.20855 -11.20736 -11.20706 -11.20643 -11.19649
 Alpha  occ. eigenvalues --   -1.59986  -1.39543  -1.19454  -1.08858  -1.07782
 Alpha  occ. eigenvalues --   -1.04851  -1.02796  -0.95702  -0.95213  -0.86255
 Alpha  occ. eigenvalues --   -0.86221  -0.82536  -0.78887  -0.77595  -0.77574
 Alpha  occ. eigenvalues --   -0.72194  -0.71302  -0.70564  -0.65111  -0.64854
 Alpha  occ. eigenvalues --   -0.64425  -0.62199  -0.60209  -0.58614  -0.56807
 Alpha  occ. eigenvalues --   -0.55355  -0.54523  -0.53183  -0.52944  -0.51842
 Alpha  occ. eigenvalues --   -0.51641  -0.49185  -0.48942  -0.48926  -0.47179
 Alpha  occ. eigenvalues --   -0.45956  -0.45117  -0.45050  -0.44953  -0.43008
 Alpha  occ. eigenvalues --   -0.37433  -0.36452
 Alpha virt. eigenvalues --    0.04936   0.11203   0.16426   0.21313   0.23461
 Alpha virt. eigenvalues --    0.25095   0.27241   0.27250   0.28003   0.28146
 Alpha virt. eigenvalues --    0.28919   0.30840   0.32093   0.32203   0.32379

 Mulliken charges:
               1
     1  C   -0.170620
     2  C   -0.218590
     3  C   -0.170538
     4  C    0.157428
     5  C   -0.170600
     6  C   -0.218521
     7  H    0.225966
     8  H    0.223784
     9  H    0.275878
    10  H    0.275602
    11  H    0.223833
    12  N    0.494657
    13  O   -0.466247
    14  O   -0.458736
    15  C   -0.297278
    16  C   -0.299115
    17  C   -0.485584
    18  H    0.149426
    19  H    0.147959
    20  H    0.150091
    21  H    0.146412
    22  H    0.148995
    23  H    0.153811
    24  H    0.187134
    25  C   -0.297422
    26  C   -0.299119
    27  C   -0.475283
    28  H    0.148457
    29  H    0.147483
    30  H    0.151861
    31  H    0.151255
    32  H    0.154022
    33  H    0.154540
    34  H    0.159058
 Sum of Mulliken charges =  -0.00000

 Dipole moment (field-independent basis, Debye):
    X=             -3.7787    Y=              3.8601    Z=              0.0097  Tot=              5.4017
 Quadrupole moment (field-independent basis, Debye-Ang):
   XX=            -68.7704   YY=            -95.3907   ZZ=            -93.3392
   XY=            -12.9775   XZ=              2.3583   YZ=              2.3237

 Normal termination of Gaussian 16 at Thu May  6 17:45:02 2021.
