 Gaussian 16, Revision A.03,
 Gaussian 16:  EM64L-G16RevA.03 25-Dec-2016

 -------------
 #p 6-31g* mp2
 -------------

 ------------------------------------------------------
 Input file generated by CHIRIPA (05-May-2021 14:57:27)
 ------------------------------------------------------
 Symbolic Z-matrix:
 Charge =  0 Multiplicity = 1

                         Standard orientation:
 ---------------------------------------------------------------------
 Center     Atomic      Atomic             Coordinates (Angstroms)
 Number     Number       Type             X           Y           Z
 ---------------------------------------------------------------------
      1          6           0        5.417726    1.772931    0.094976
      2          6           0        4.145781    1.974181   -0.451078
      3          6           0        3.212644    0.933518   -0.479768
      4          6           0        3.586670   -0.301046    0.048671
      5          6           0        4.846115   -0.532724    0.599502
      6          6           0        5.763224    0.522326    0.617602
      7          1           0        6.136384    2.586931    0.113150
      8          1           0        3.874707    2.944359   -0.857672
      9          1           0        2.221042    1.061816   -0.896520
     10          1           0        5.087295   -1.511001    0.997277
     11          1           0        6.750310    0.363150    1.042303
     12          7           0        2.607284   -1.410364    0.023904
     13          8           0        2.961319   -2.488598    0.495823
     14          8           0        1.504151   -1.180610   -0.466960
     15          6           0       -6.154121    0.521598    0.590829
     16          6           0       -5.724816   -0.767809    0.259701
     17          6           0       -4.394028   -1.002986   -0.098410
     18          6           0       -3.515479    0.079219   -0.114972
     19          6           0       -3.912861    1.375338    0.209760
     20          6           0       -5.248370    1.587179    0.564848
     21          1           0       -7.189743    0.695225    0.867844
     22          1           0       -6.426026   -1.597253    0.279016
     23          1           0       -4.034899   -1.991099   -0.359328
     24          1           0       -3.190594    2.182151    0.181419
     25          1           0       -5.578967    2.589608    0.821527
     26          7           0       -2.104134   -0.157399   -0.492488
     27          8           0       -1.349772    0.812925   -0.499407
     28          8           0       -1.779007   -1.308704   -0.774317
 ---------------------------------------------------------------------

 SCF Done:  E(RHF) =  -868.335595080     A.U. after   16 cycles
 E2 =    -0.2600777742D+01 EUMP2 =    -0.87093637282229D+03

 The electronic state is 1-A.
 Alpha  occ. eigenvalues --  -20.59990 -20.59894 -20.59327 -20.59184 -15.85007
 Alpha  occ. eigenvalues --  -15.84303 -11.30675 -11.30039 -11.27306 -11.27247
 Alpha  occ. eigenvalues --  -11.27076 -11.26728 -11.26562 -11.26539 -11.26376
 Alpha  occ. eigenvalues --  -11.26338 -11.25821 -11.25751  -1.58985  -1.58352
 Alpha  occ. eigenvalues --   -1.38544  -1.37881  -1.18871  -1.18271  -1.08207
 Alpha  occ. eigenvalues --   -1.07613  -1.04321  -1.03722  -0.94993  -0.94367
 Alpha  occ. eigenvalues --   -0.85705  -0.85104  -0.81831  -0.81185  -0.76827
 Alpha  occ. eigenvalues --   -0.76158  -0.71213  -0.70526  -0.70306  -0.69979
 Alpha  occ. eigenvalues --   -0.69706  -0.69376  -0.64521  -0.64326  -0.63906
 Alpha  occ. eigenvalues --   -0.63736  -0.61667  -0.61043  -0.54809  -0.54244
 Alpha  occ. eigenvalues --   -0.52633  -0.52419  -0.52051  -0.51813  -0.48006
 Alpha  occ. eigenvalues --   -0.47963  -0.47263  -0.47187  -0.43890  -0.43205
 Alpha  occ. eigenvalues --   -0.36870  -0.36303  -0.35938  -0.35347
 Alpha virt. eigenvalues --    0.05713   0.06362   0.11711   0.12300   0.17155
 Alpha virt. eigenvalues --    0.17766   0.21799   0.22375   0.27690   0.28249
 Alpha virt. eigenvalues --    0.28709   0.29350   0.31323   0.31871   0.32959

 Mulliken charges:
               1
     1  C   -0.172164
     2  C   -0.219873
     3  C   -0.173776
     4  C    0.156696
     5  C   -0.172164
     6  C   -0.219325
     7  H    0.221124
     8  H    0.220663
     9  H    0.289879
    10  H    0.272908
    11  H    0.219143
    12  N    0.485147
    13  O   -0.470700
    14  O   -0.439483
    15  C   -0.171825
    16  C   -0.218502
    17  C   -0.171054
    18  C    0.159498
    19  C   -0.171714
    20  C   -0.218445
    21  H    0.223664
    22  H    0.222512
    23  H    0.277612
    24  H    0.272410
    25  H    0.220929
    26  N    0.488076
    27  O   -0.467753
    28  O   -0.443482
 Sum of Mulliken charges =  -0.00000

 Dipole moment (field-independent basis, Debye):
    X=             -1.8314    Y=              4.5479    Z=              1.2497  Tot=              5.0596
 Quadrupole moment (field-independent basis, Debye-Ang):
   XX=            -46.9302   YY=           -101.4053   ZZ=           -105.7034
   XY=              9.0367   XZ=             -2.0455   YZ=             -0.4606

 Normal termination of Gaussian 16 at Thu May  6 16:30:29 2021.
