 Gaussian 16, Revision A.03,
 Gaussian 16:  EM64L-G16RevA.03 25-Dec-2016

 -------------
 #p 6-31g* mp2
 -------------

 ------------------------------------------------------
 Input file generated by CHIRIPA (05-May-2021 14:57:21)
 ------------------------------------------------------
 Symbolic Z-matrix:
 Charge =  0 Multiplicity = 1

                         Standard orientation:
 ---------------------------------------------------------------------
 Center     Atomic      Atomic             Coordinates (Angstroms)
 Number     Number       Type             X           Y           Z
 ---------------------------------------------------------------------
      1          6           0        3.023892    2.641431    0.258505
      2          6           0        4.267802    2.107073    0.610177
      3          6           0        4.524681    0.742024    0.451430
      4          6           0        3.510340   -0.063292   -0.064195
      5          6           0        2.260774    0.439278   -0.423776
      6          6           0        2.026108    1.807298   -0.256441
      7          1           0        2.832970    3.702988    0.385160
      8          1           0        5.044565    2.752490    1.010329
      9          1           0        5.478649    0.302027    0.715563
     10          1           0        1.506167   -0.229201   -0.820162
     11          1           0        1.059126    2.219529   -0.530405
     12          7           0        3.770529   -1.509981   -0.236800
     13          8           0        2.860253   -2.198276   -0.693182
     14          8           0        4.879814   -1.928207    0.087562
     15          6           0       -2.491956   -2.485285    0.314230
     16          6           0       -1.658432   -1.406546    0.001052
     17          6           0       -2.188002   -0.122190   -0.155589
     18          6           0       -3.561766    0.048196    0.008825
     19          6           0       -4.418216   -1.006498    0.320920
     20          6           0       -3.866764   -2.282176    0.472885
     21          1           0       -2.072075   -3.479633    0.434096
     22          1           0       -0.590369   -1.561325   -0.122749
     23          1           0       -1.565649    0.730653   -0.397982
     24          1           0       -5.479010   -0.821044    0.438149
     25          1           0       -4.516493   -3.118083    0.716110
     26          7           0       -4.133980    1.403292   -0.154528
     27          8           0       -5.347566    1.527094   -0.004459
     28          8           0       -3.358062    2.315957   -0.429539
 ---------------------------------------------------------------------

 SCF Done:  E(RHF) =  -868.338490918     A.U. after   16 cycles
 E2 =    -0.2599725719D+01 EUMP2 =    -0.87093821663750D+03

 The electronic state is 1-A.
 Alpha  occ. eigenvalues --  -20.61469 -20.61426 -20.61105 -20.61076 -15.86493
 Alpha  occ. eigenvalues --  -15.86144 -11.31760 -11.31419 -11.28402 -11.28248
 Alpha  occ. eigenvalues --  -11.28054 -11.27930 -11.27925 -11.27581 -11.27283
 Alpha  occ. eigenvalues --  -11.27224 -11.26918 -11.26894  -1.60515  -1.60166
 Alpha  occ. eigenvalues --   -1.40077  -1.39726  -1.19897  -1.19557  -1.09288
 Alpha  occ. eigenvalues --   -1.08942  -1.05300  -1.04959  -0.96155  -0.95808
 Alpha  occ. eigenvalues --   -0.86691  -0.86338  -0.83004  -0.82661  -0.78111
 Alpha  occ. eigenvalues --   -0.77724  -0.72715  -0.72366  -0.71829  -0.71484
 Alpha  occ. eigenvalues --   -0.70995  -0.70633  -0.65550  -0.65345  -0.65202
 Alpha  occ. eigenvalues --   -0.64887  -0.62801  -0.62190  -0.55740  -0.55375
 Alpha  occ. eigenvalues --   -0.53604  -0.53461  -0.53267  -0.52959  -0.49487
 Alpha  occ. eigenvalues --   -0.49447  -0.49134  -0.49101  -0.45504  -0.45153
 Alpha  occ. eigenvalues --   -0.37822  -0.37479  -0.36895  -0.36553
 Alpha virt. eigenvalues --    0.04432   0.04811   0.10729   0.11118   0.15974
 Alpha virt. eigenvalues --    0.16345   0.17998   0.22356   0.24592   0.25359
 Alpha virt. eigenvalues --    0.28213   0.28864   0.30802   0.31331   0.33446

 Mulliken charges:
               1
     1  C   -0.169939
     2  C   -0.217875
     3  C   -0.170118
     4  C    0.158982
     5  C   -0.176658
     6  C   -0.222083
     7  H    0.230966
     8  H    0.226213
     9  H    0.276956
    10  H    0.271006
    11  H    0.230019
    12  N    0.488844
    13  O   -0.468591
    14  O   -0.456195
    15  C   -0.170716
    16  C   -0.225485
    17  C   -0.172766
    18  C    0.158861
    19  C   -0.170630
    20  C   -0.218341
    21  H    0.232434
    22  H    0.234174
    23  H    0.265285
    24  H    0.276037
    25  H    0.225146
    26  N    0.488465
    27  O   -0.458293
    28  O   -0.465696
 Sum of Mulliken charges =  -0.00000

 Dipole moment (field-independent basis, Debye):
    X=              1.2363    Y=              0.3075    Z=              1.2959  Tot=              1.8173
 Quadrupole moment (field-independent basis, Debye-Ang):
   XX=           -116.0024   YY=           -105.4853   ZZ=           -105.7127
   XY=             38.8469   XZ=              1.1448   YZ=             -0.5558

 Normal termination of Gaussian 16 at Wed May  5 16:12:54 2021.
