 Gaussian 16, Revision A.03,
 Gaussian 16:  EM64L-G16RevA.03 25-Dec-2016

 -------------
 #p 6-31g* mp2
 -------------

 ------------------------------------------------------
 Input file generated by CHIRIPA (05-May-2021 14:55:19)
 ------------------------------------------------------
 Symbolic Z-matrix:
 Charge =  0 Multiplicity = 1

                         Standard orientation:
 ---------------------------------------------------------------------
 Center     Atomic      Atomic             Coordinates (Angstroms)
 Number     Number       Type             X           Y           Z
 ---------------------------------------------------------------------
      1          6           0        1.785313    0.977978    0.488559
      2          6           0        2.490222    1.373200   -0.653118
      3          6           0        3.750393    0.835393   -0.931111
      4          6           0        4.278058   -0.099576   -0.041902
      5          6           0        3.600341   -0.513487    1.103814
      6          6           0        2.341642    0.037555    1.361842
      7          1           0        0.806954    1.400900    0.696756
      8          1           0        2.060632    2.103360   -1.333090
      9          1           0        4.317817    1.123587   -1.807691
     10          1           0        4.054519   -1.243295    1.762996
     11          1           0        1.796476   -0.271242    2.249244
     12          7           0        5.611366   -0.675933   -0.325633
     13          8           0        6.054337   -1.497997    0.473506
     14          8           0        6.188194   -0.294704   -1.341787
     15          6           0       -5.940811    0.013728    0.156877
     16          6           0       -6.764434   -0.924216   -0.726237
     17          6           0       -8.255267   -0.897382   -0.387870
     18          1           0       -6.084309   -0.264383    1.209971
     19          1           0       -6.323834    1.037970    0.049098
     20          1           0       -6.379083   -1.946166   -0.617882
     21          1           0       -6.618807   -0.643960   -1.777363
     22          1           0       -8.660856    0.111655   -0.514131
     23          1           0       -8.419770   -1.197949    0.651938
     24          1           0       -8.825201   -1.575061   -1.031132
     25          6           0       -4.448470   -0.001990   -0.169318
     26          6           0       -3.624847    0.935954    0.713795
     27          6           0       -2.134014    0.909120    0.375428
     28          1           0       -4.065447   -1.026232   -0.061540
     29          1           0       -4.304972    0.276121   -1.222412
     30          1           0       -3.770474    0.655698    1.764922
     31          1           0       -4.010198    1.957904    0.605440
     32          1           0       -1.969511    1.209687   -0.664379
     33          1           0       -1.728425   -0.099917    0.501689
     34          1           0       -1.564080    1.586799    1.018690
 ---------------------------------------------------------------------

 SCF Done:  E(RHF) =  -669.535508436     A.U. after   15 cycles
 E2 =    -0.2090878954D+01 EUMP2 =    -0.67162638739069D+03

 The electronic state is 1-A.
 Alpha  occ. eigenvalues --  -20.60691 -20.60686 -15.85745 -11.31085 -11.27662
 Alpha  occ. eigenvalues --  -11.27658 -11.27318 -11.26654 -11.26643 -11.22542
 Alpha  occ. eigenvalues --  -11.22379 -11.22111 -11.22071 -11.21945 -11.21462
 Alpha  occ. eigenvalues --   -1.59768  -1.39322  -1.19255  -1.09129  -1.08645
 Alpha  occ. eigenvalues --   -1.04659  -1.04281  -0.96765  -0.95483  -0.87795
 Alpha  occ. eigenvalues --   -0.86053  -0.82326  -0.80358  -0.78890  -0.77381
 Alpha  occ. eigenvalues --   -0.71962  -0.71091  -0.70355  -0.65751  -0.64903
 Alpha  occ. eigenvalues --   -0.64666  -0.62012  -0.61666  -0.60203  -0.58337
 Alpha  occ. eigenvalues --   -0.56034  -0.55236  -0.53369  -0.53187  -0.52966
 Alpha  occ. eigenvalues --   -0.52749  -0.50685  -0.48719  -0.48719  -0.48662
 Alpha  occ. eigenvalues --   -0.47356  -0.46446  -0.46337  -0.44733  -0.44520
 Alpha  occ. eigenvalues --   -0.37213  -0.36272
 Alpha virt. eigenvalues --    0.05150   0.11379   0.16622   0.20524   0.22327
 Alpha virt. eigenvalues --    0.23757   0.25960   0.26083   0.26833   0.27363
 Alpha virt. eigenvalues --    0.28507   0.30235   0.30612   0.31337   0.32530

 Mulliken charges:
               1
     1  C   -0.175309
     2  C   -0.221610
     3  C   -0.170756
     4  C    0.158043
     5  C   -0.170791
     6  C   -0.222148
     7  H    0.238161
     8  H    0.223222
     9  H    0.275122
    10  H    0.275109
    11  H    0.222997
    12  N    0.488050
    13  O   -0.460815
    14  O   -0.460773
    15  C   -0.298933
    16  C   -0.300151
    17  C   -0.476072
    18  H    0.150454
    19  H    0.150358
    20  H    0.152787
    21  H    0.152640
    22  H    0.155651
    23  H    0.155698
    24  H    0.161782
    25  C   -0.299486
    26  C   -0.299056
    27  C   -0.482291
    28  H    0.150973
    29  H    0.150819
    30  H    0.153903
    31  H    0.154388
    32  H    0.157570
    33  H    0.158729
    34  H    0.151734
 Sum of Mulliken charges =  -0.00000

 Dipole moment (field-independent basis, Debye):
    X=             -4.9879    Y=              2.0032    Z=              0.9754  Tot=              5.4629
 Quadrupole moment (field-independent basis, Debye-Ang):
   XX=           -136.1212   YY=            -93.7042   ZZ=            -91.2203
   XY=              9.2639   XZ=              4.4695   YZ=             -3.4274

 Normal termination of Gaussian 16 at Wed May  5 22:07:01 2021.
