 Gaussian 16, Revision A.03,
 Gaussian 16:  EM64L-G16RevA.03 25-Dec-2016

 -------------
 #p 6-31g* mp2
 -------------

 ------------------------------------------------------
 Input file generated by CHIRIPA (05-May-2021 14:55:21)
 ------------------------------------------------------
 Symbolic Z-matrix:
 Charge =  0 Multiplicity = 1

                         Standard orientation:
 ---------------------------------------------------------------------
 Center     Atomic      Atomic             Coordinates (Angstroms)
 Number     Number       Type             X           Y           Z
 ---------------------------------------------------------------------
      1          6           0       -1.474210    2.189903    0.143791
      2          6           0       -1.187045    1.300366   -0.896778
      3          6           0       -1.874476    0.087755   -1.004292
      4          6           0       -2.847257   -0.204601   -0.049559
      5          6           0       -3.156092    0.660921    0.998670
      6          6           0       -2.456086    1.867909    1.086531
      7          1           0       -0.935313    3.129704    0.219677
      8          1           0       -0.425014    1.547799   -1.630352
      9          1           0       -1.672215   -0.619200   -1.799731
     10          1           0       -3.921069    0.386536    1.714869
     11          1           0       -2.681204    2.556816    1.895712
     12          7           0       -3.581666   -1.485362   -0.152976
     13          8           0       -4.434173   -1.719514    0.700863
     14          8           0       -3.290883   -2.230818   -1.085916
     15          6           0        3.666542   -0.693751   -0.245201
     16          6           0        4.177897   -1.677873    0.807417
     17          6           0        4.527790   -3.044716    0.218256
     18          1           0        2.781548   -1.119984   -0.737193
     19          1           0        4.430349   -0.572938   -1.025840
     20          1           0        3.413915   -1.795734    1.586555
     21          1           0        5.061663   -1.249164    1.297093
     22          1           0        5.306707   -2.947311   -0.544897
     23          1           0        3.649597   -3.496987   -0.253790
     24          1           0        4.891200   -3.732596    0.988071
     25          6           0        3.312575    0.677152    0.328438
     26          6           0        2.801220    1.661274   -0.724181
     27          6           0        2.451326    3.028116   -0.135021
     28          1           0        2.548768    0.556338    1.109076
     29          1           0        4.197568    1.103386    0.820429
     30          1           0        1.917454    1.232565   -1.213857
     31          1           0        3.565202    1.779134   -1.503319
     32          1           0        3.329520    3.480387    0.337026
     33          1           0        1.672410    2.930711    0.628133
     34          1           0        2.087917    3.715996   -0.904836
 ---------------------------------------------------------------------

 SCF Done:  E(RHF) =  -669.535246868     A.U. after   15 cycles
 E2 =    -0.2092310177D+01 EUMP2 =    -0.67162755704501D+03

 The electronic state is 1-A.
 Alpha  occ. eigenvalues --  -20.60789 -20.60784 -15.85843 -11.31216 -11.27785
 Alpha  occ. eigenvalues --  -11.27781 -11.27494 -11.26791 -11.26769 -11.22499
 Alpha  occ. eigenvalues --  -11.22155 -11.21988 -11.21898 -11.21804 -11.21250
 Alpha  occ. eigenvalues --   -1.59865  -1.39418  -1.19388  -1.09009  -1.08771
 Alpha  occ. eigenvalues --   -1.04794  -1.04131  -0.96584  -0.95607  -0.87603
 Alpha  occ. eigenvalues --   -0.86187  -0.82448  -0.80225  -0.78768  -0.77494
 Alpha  occ. eigenvalues --   -0.72060  -0.71188  -0.70492  -0.65712  -0.65033
 Alpha  occ. eigenvalues --   -0.64765  -0.62205  -0.61448  -0.59989  -0.58174
 Alpha  occ. eigenvalues --   -0.55918  -0.55242  -0.53296  -0.53128  -0.52983
 Alpha  occ. eigenvalues --   -0.52888  -0.50506  -0.48826  -0.48815  -0.48516
 Alpha  occ. eigenvalues --   -0.47227  -0.46316  -0.46197  -0.44822  -0.44363
 Alpha  occ. eigenvalues --   -0.37349  -0.36386
 Alpha virt. eigenvalues --    0.05016   0.11150   0.16408   0.19739   0.22805
 Alpha virt. eigenvalues --    0.24044   0.25334   0.26114   0.26774   0.28277
 Alpha virt. eigenvalues --    0.29475   0.29789   0.31081   0.31421   0.32110

 Mulliken charges:
               1
     1  C   -0.173495
     2  C   -0.219672
     3  C   -0.172509
     4  C    0.158600
     5  C   -0.170755
     6  C   -0.219202
     7  H    0.229255
     8  H    0.227390
     9  H    0.275523
    10  H    0.275688
    11  H    0.223650
    12  N    0.488074
    13  O   -0.460336
    14  O   -0.460444
    15  C   -0.298831
    16  C   -0.300300
    17  C   -0.476365
    18  H    0.149952
    19  H    0.150047
    20  H    0.153652
    21  H    0.152019
    22  H    0.155065
    23  H    0.157380
    24  H    0.161873
    25  C   -0.298700
    26  C   -0.301687
    27  C   -0.481468
    28  H    0.152141
    29  H    0.151321
    30  H    0.146067
    31  H    0.155516
    32  H    0.161628
    33  H    0.152605
    34  H    0.156317
 Sum of Mulliken charges =  -0.00000

 Dipole moment (field-independent basis, Debye):
    X=              2.7085    Y=              4.4498    Z=              0.4227  Tot=              5.2264
 Quadrupole moment (field-independent basis, Debye-Ang):
   XX=           -107.3735   YY=            -97.9243   ZZ=            -91.7991
   XY=            -13.6708   XZ=             -3.6522   YZ=              0.5687

 Normal termination of Gaussian 16 at Thu May  6 20:42:33 2021.
