 Gaussian 16, Revision A.03,
 Gaussian 16:  EM64L-G16RevA.03 25-Dec-2016

 -------------
 #p 6-31g* mp2
 -------------

 ------------------------------------------------------
 Input file generated by CHIRIPA (05-May-2021 14:55:24)
 ------------------------------------------------------
 Symbolic Z-matrix:
 Charge =  0 Multiplicity = 1

                         Standard orientation:
 ---------------------------------------------------------------------
 Center     Atomic      Atomic             Coordinates (Angstroms)
 Number     Number       Type             X           Y           Z
 ---------------------------------------------------------------------
      1          6           0        2.187802    2.231249    0.078564
      2          6           0        2.500398    1.629062   -1.144618
      3          6           0        3.121587    0.377138   -1.181455
      4          6           0        3.417264   -0.247116    0.029400
      5          6           0        3.118427    0.327058    1.264030
      6          6           0        2.497268    1.579474    1.276872
      7          1           0        1.705259    3.203965    0.097860
      8          1           0        2.261232    2.132915   -2.076808
      9          1           0        3.374716   -0.111819   -2.114336
     10          1           0        3.369169   -0.199694    2.176761
     11          1           0        2.255668    2.044754    2.228286
     12          7           0        4.074873   -1.572733    0.003104
     13          8           0        4.324955   -2.102028    1.083818
     14          8           0        4.327774   -2.057354   -1.097723
     15          6           0       -3.520837    0.058668   -0.312237
     16          6           0       -2.718262    1.256912    0.195768
     17          6           0       -1.290805    1.287084   -0.351267
     18          1           0       -3.000279   -0.867850   -0.033799
     19          1           0       -3.548482    0.083735   -1.410418
     20          1           0       -2.693310    1.230355    1.292714
     21          1           0       -3.240889    2.180681   -0.083745
     22          1           0       -1.298336    1.337774   -1.444874
     23          1           0       -0.747646    0.382050   -0.060595
     24          1           0       -0.735015    2.151763    0.024615
     25          6           0       -4.949901    0.014646    0.225877
     26          6           0       -5.752477   -1.183597   -0.282128
     27          6           0       -7.179934   -1.213769    0.264907
     28          1           0       -4.922257   -0.010420    1.324058
     29          1           0       -5.470459    0.941165   -0.052562
     30          1           0       -5.229850   -2.107366   -0.002616
     31          1           0       -5.777428   -1.157040   -1.379074
     32          1           0       -7.723093   -0.308734   -0.025765
     33          1           0       -7.172402   -1.264459    1.358513
     34          1           0       -7.735724   -2.078448   -0.110977
 ---------------------------------------------------------------------

 SCF Done:  E(RHF) =  -669.534804091     A.U. after   15 cycles
 E2 =    -0.2091979087D+01 EUMP2 =    -0.67162678317791D+03

 The electronic state is 1-A.
 Alpha  occ. eigenvalues --  -20.60746 -20.60741 -15.85802 -11.31153 -11.27741
 Alpha  occ. eigenvalues --  -11.27733 -11.27479 -11.26737 -11.26725 -11.22002
 Alpha  occ. eigenvalues --  -11.21779 -11.21685 -11.21605 -11.21546 -11.21222
 Alpha  occ. eigenvalues --   -1.59823  -1.39377  -1.19338  -1.08755  -1.08699
 Alpha  occ. eigenvalues --   -1.04738  -1.03832  -0.96293  -0.95568  -0.87307
 Alpha  occ. eigenvalues --   -0.86138  -0.82404  -0.79899  -0.78516  -0.77446
 Alpha  occ. eigenvalues --   -0.72020  -0.71148  -0.70475  -0.65344  -0.64992
 Alpha  occ. eigenvalues --   -0.64743  -0.62087  -0.61226  -0.59702  -0.57903
 Alpha  occ. eigenvalues --   -0.55573  -0.55269  -0.53455  -0.52834  -0.52718
 Alpha  occ. eigenvalues --   -0.52590  -0.50206  -0.48778  -0.48775  -0.48213
 Alpha  occ. eigenvalues --   -0.46921  -0.46059  -0.45978  -0.44786  -0.44107
 Alpha  occ. eigenvalues --   -0.37222  -0.36340
 Alpha virt. eigenvalues --    0.05074   0.11281   0.16511   0.20912   0.22660
 Alpha virt. eigenvalues --    0.24083   0.26357   0.26851   0.27086   0.27429
 Alpha virt. eigenvalues --    0.28463   0.30317   0.31158   0.31686   0.32512

 Mulliken charges:
               1
     1  C   -0.165906
     2  C   -0.216643
     3  C   -0.171249
     4  C    0.157922
     5  C   -0.171353
     6  C   -0.218921
     7  H    0.225002
     8  H    0.223485
     9  H    0.275531
    10  H    0.275408
    11  H    0.223134
    12  N    0.488105
    13  O   -0.460739
    14  O   -0.460548
    15  C   -0.298919
    16  C   -0.300520
    17  C   -0.472297
    18  H    0.151825
    19  H    0.149642
    20  H    0.151293
    21  H    0.150525
    22  H    0.152434
    23  H    0.161466
    24  H    0.149845
    25  C   -0.298359
    26  C   -0.299979
    27  C   -0.475854
    28  H    0.149630
    29  H    0.149176
    30  H    0.153254
    31  H    0.152145
    32  H    0.154890
    33  H    0.155376
    34  H    0.161202
 Sum of Mulliken charges =  -0.00000

 Dipole moment (field-independent basis, Debye):
    X=             -2.3444    Y=              4.6362    Z=              0.0821  Tot=              5.1959
 Quadrupole moment (field-independent basis, Debye-Ang):
   XX=           -112.4621   YY=            -97.6041   ZZ=            -89.2177
   XY=             16.5495   XZ=              0.7939   YZ=             -0.4158

 Normal termination of Gaussian 16 at Thu May  6 03:10:21 2021.
