 Gaussian 16, Revision A.03,
 Gaussian 16:  EM64L-G16RevA.03 25-Dec-2016

 -------------
 #p 6-31g* mp2
 -------------

 ------------------------------------------------------
 Input file generated by CHIRIPA (05-May-2021 14:51:11)
 ------------------------------------------------------
 Symbolic Z-matrix:
 Charge =  0 Multiplicity = 1

                         Standard orientation:
 ---------------------------------------------------------------------
 Center     Atomic      Atomic             Coordinates (Angstroms)
 Number     Number       Type             X           Y           Z
 ---------------------------------------------------------------------
      1          6           0        3.796032    0.310203    0.381682
      2          6           0        4.332516    0.777062   -0.971911
      3          6           0        5.677770    1.494919   -0.858919
      4          1           0        3.695451    1.177802    1.048091
      5          1           0        4.531740   -0.359084    0.848783
      6          1           0        3.595408    1.444174   -1.436938
      7          1           0        4.431650   -0.091722   -1.635237
      8          1           0        6.431222    0.834113   -0.418184
      9          1           0        5.590228    2.378735   -0.218758
     10          1           0        6.042796    1.820090   -1.838143
     11          6           0        2.451836   -0.409201    0.285136
     12          6           0        1.915352   -0.876060    1.638729
     13          6           0        0.570098   -1.593916    1.525737
     14          1           0        1.716128    0.260087   -0.181965
     15          1           0        2.552417   -1.276800   -0.381273
     16          1           0        1.816218   -0.007275    2.302055
     17          1           0        2.652460   -1.543171    2.103756
     18          1           0        0.657640   -2.477733    0.885576
     19          1           0       -0.183354   -0.933110    1.085002
     20          1           0        0.205073   -1.919087    2.504961
     21          6           0       -3.205087    0.793100   -0.488017
     22          6           0       -3.984574    1.553994    0.585027
     23          6           0       -4.138602    3.040399    0.261498
     24          1           0       -2.212449    1.249365   -0.603933
     25          1           0       -3.716617    0.908025   -1.453690
     26          1           0       -3.472479    1.436520    1.548654
     27          1           0       -4.975401    1.095745    0.698537
     28          1           0       -4.669350    3.175331   -0.686499
     29          1           0       -3.157889    3.518043    0.168446
     30          1           0       -4.698865    3.565115    1.041651
     31          6           0       -3.042781   -0.694102   -0.178801
     32          6           0       -2.263295   -1.454997   -1.251846
     33          6           0       -2.109266   -2.941401   -0.928316
     34          1           0       -2.531251   -0.809028    0.786872
     35          1           0       -4.035419   -1.150369   -0.062885
     36          1           0       -1.272468   -0.996748   -1.365355
     37          1           0       -2.775389   -1.337524   -2.215472
     38          1           0       -3.089979   -3.419047   -0.835265
     39          1           0       -1.578518   -3.076334    0.019683
     40          1           0       -1.549003   -3.466117   -1.708469
 ---------------------------------------------------------------------

 SCF Done:  E(RHF) =  -470.732236478     A.U. after   11 cycles
 E2 =    -0.1584142350D+01 EUMP2 =    -0.47231637882742D+03

 The electronic state is 1-A.
 Alpha  occ. eigenvalues --  -11.21660 -11.21635 -11.21599 -11.21516 -11.21464
 Alpha  occ. eigenvalues --  -11.21400 -11.21381 -11.21292 -11.21118 -11.21096
 Alpha  occ. eigenvalues --  -11.21075 -11.20913  -1.08494  -1.08390  -1.03616
 Alpha  occ. eigenvalues --   -1.03454  -0.96057  -0.95919  -0.87072  -0.86948
 Alpha  occ. eigenvalues --   -0.79686  -0.79529  -0.78305  -0.78203  -0.65209
 Alpha  occ. eigenvalues --   -0.64988  -0.61048  -0.60881  -0.59402  -0.59298
 Alpha  occ. eigenvalues --   -0.57631  -0.57532  -0.55520  -0.55068  -0.52741
 Alpha  occ. eigenvalues --   -0.52621  -0.52475  -0.52320  -0.50235  -0.49617
 Alpha  occ. eigenvalues --   -0.48097  -0.47735  -0.46708  -0.46540  -0.45938
 Alpha  occ. eigenvalues --   -0.45771  -0.45685  -0.45522  -0.43833  -0.43740
 Alpha virt. eigenvalues --    0.20666   0.23064   0.23872   0.24767   0.25708
 Alpha virt. eigenvalues --    0.26330   0.26902   0.27737   0.28251   0.29307
 Alpha virt. eigenvalues --    0.30936   0.31288   0.31629   0.31801   0.32070

 Mulliken charges:
               1
     1  C   -0.298299
     2  C   -0.299709
     3  C   -0.475748
     4  H    0.149710
     5  H    0.149812
     6  H    0.151947
     7  H    0.152097
     8  H    0.155257
     9  H    0.155216
    10  H    0.160416
    11  C   -0.298802
    12  C   -0.300244
    13  C   -0.483795
    14  H    0.148998
    15  H    0.150107
    16  H    0.151791
    17  H    0.152220
    18  H    0.157914
    19  H    0.162613
    20  H    0.160123
    21  C   -0.298478
    22  C   -0.299530
    23  C   -0.475631
    24  H    0.148299
    25  H    0.149869
    26  H    0.151757
    27  H    0.152158
    28  H    0.155259
    29  H    0.154844
    30  H    0.160253
    31  C   -0.303507
    32  C   -0.300749
    33  C   -0.480576
    34  H    0.153420
    35  H    0.150162
    36  H    0.152589
    37  H    0.152023
    38  H    0.154154
    39  H    0.163281
    40  H    0.158781
 Sum of Mulliken charges =  -0.00000

 Dipole moment (field-independent basis, Debye):
    X=              0.0339    Y=             -0.0175    Z=              0.0262  Tot=              0.0463
 Quadrupole moment (field-independent basis, Debye-Ang):
   XX=            -84.7790   YY=            -85.4446   ZZ=            -84.6076
   XY=             -0.6145   XZ=              0.3653   YZ=              0.2794

 Normal termination of Gaussian 16 at Wed May  5 21:28:56 2021.
