 Gaussian 16, Revision A.03,
 Gaussian 16:  EM64L-G16RevA.03 25-Dec-2016

 -------------
 #p 6-31g* mp2
 -------------

 ------------------------------------------------------
 Input file generated by CHIRIPA (05-May-2021 14:51:10)
 ------------------------------------------------------
 Symbolic Z-matrix:
 Charge =  0 Multiplicity = 1

                         Standard orientation:
 ---------------------------------------------------------------------
 Center     Atomic      Atomic             Coordinates (Angstroms)
 Number     Number       Type             X           Y           Z
 ---------------------------------------------------------------------
      1          6           0        3.630931    0.048725    0.551662
      2          6           0        2.664442    1.097242   -0.000152
      3          6           0        1.432017    1.288772    0.884291
      4          1           0        3.101980   -0.908255    0.658172
      5          1           0        3.945828    0.345902    1.561573
      6          1           0        2.352539    0.798881   -1.009267
      7          1           0        3.195806    2.051790   -0.105541
      8          1           0        1.725063    1.609990    1.889052
      9          1           0        0.877004    0.349962    0.980192
     10          1           0        0.754638    2.042663    0.471174
     11          6           0        4.867942   -0.154023   -0.321507
     12          6           0        5.834430   -1.202540    0.230307
     13          6           0        7.066855   -1.394070   -0.654136
     14          1           0        4.553045   -0.451200   -1.331418
     15          1           0        5.396892    0.802957   -0.428017
     16          1           0        5.303067   -2.157088    0.335696
     17          1           0        6.146334   -0.904179    1.239422
     18          1           0        7.621868   -0.455260   -0.750037
     19          1           0        6.773810   -1.715287   -1.658897
     20          1           0        7.744235   -2.147961   -0.241019
     21          6           0       -4.466769   -0.609375    0.197849
     22          6           0       -5.772993   -1.153872   -0.381191
     23          6           0       -6.194680   -2.478773    0.254901
     24          1           0       -3.671959   -1.354655    0.057210
     25          1           0       -4.582003   -0.476185    1.282458
     26          1           0       -5.655780   -1.284689   -1.464595
     27          1           0       -6.564742   -0.407129   -0.239328
     28          1           0       -6.339115   -2.359506    1.333565
     29          1           0       -5.424989   -3.242052    0.101336
     30          1           0       -7.130823   -2.849922   -0.173751
     31          6           0       -4.032103    0.714673   -0.428004
     32          6           0       -2.725880    1.259170    0.151036
     33          6           0       -2.304193    2.584070   -0.485056
     34          1           0       -3.916871    0.581482   -1.512613
     35          1           0       -4.826913    1.459954   -0.287366
     36          1           0       -1.934131    0.512428    0.009174
     37          1           0       -2.843092    1.389988    1.234440
     38          1           0       -3.073884    3.347350   -0.331492
     39          1           0       -2.159757    2.464804   -1.563719
     40          1           0       -1.368049    2.955220   -0.056404
 ---------------------------------------------------------------------

 SCF Done:  E(RHF) =  -470.733130964     A.U. after   11 cycles
 E2 =    -0.1582548561D+01 EUMP2 =    -0.47231567952507D+03

 The electronic state is 1-A.
 Alpha  occ. eigenvalues --  -11.21604 -11.21599 -11.21591 -11.21548 -11.21406
 Alpha  occ. eigenvalues --  -11.21385 -11.21347 -11.21324 -11.21073 -11.21065
 Alpha  occ. eigenvalues --  -11.21044 -11.21040  -1.08433  -1.08405  -1.03549
 Alpha  occ. eigenvalues --   -1.03487  -0.96024  -0.95919  -0.87035  -0.86943
 Alpha  occ. eigenvalues --   -0.79599  -0.79560  -0.78249  -0.78211  -0.65072
 Alpha  occ. eigenvalues --   -0.65027  -0.60972  -0.60862  -0.59654  -0.59114
 Alpha  occ. eigenvalues --   -0.57734  -0.57411  -0.55296  -0.55213  -0.52949
 Alpha  occ. eigenvalues --   -0.52525  -0.52445  -0.52167  -0.49944  -0.49879
 Alpha  occ. eigenvalues --   -0.48000  -0.47790  -0.46676  -0.46548  -0.45808
 Alpha  occ. eigenvalues --   -0.45744  -0.45712  -0.45663  -0.43887  -0.43640
 Alpha virt. eigenvalues --    0.21659   0.23060   0.23406   0.25069   0.26200
 Alpha virt. eigenvalues --    0.26780   0.26814   0.27138   0.27735   0.28906
 Alpha virt. eigenvalues --    0.29839   0.30945   0.31612   0.31793   0.32299

 Mulliken charges:
               1
     1  C   -0.298591
     2  C   -0.299194
     3  C   -0.482581
     4  H    0.149522
     5  H    0.149568
     6  H    0.151816
     7  H    0.151860
     8  H    0.154990
     9  H    0.156269
    10  H    0.166643
    11  C   -0.298211
    12  C   -0.299630
    13  C   -0.475699
    14  H    0.149450
    15  H    0.149683
    16  H    0.151901
    17  H    0.151953
    18  H    0.155198
    19  H    0.155154
    20  H    0.160257
    21  C   -0.298166
    22  C   -0.299620
    23  C   -0.475686
    24  H    0.149330
    25  H    0.149608
    26  H    0.151847
    27  H    0.151963
    28  H    0.155205
    29  H    0.155072
    30  H    0.160212
    31  C   -0.298399
    32  C   -0.300570
    33  C   -0.479797
    34  H    0.149270
    35  H    0.149557
    36  H    0.154165
    37  H    0.152131
    38  H    0.155163
    39  H    0.154828
    40  H    0.163526
 Sum of Mulliken charges =  -0.00000

 Dipole moment (field-independent basis, Debye):
    X=              0.0062    Y=              0.0046    Z=              0.0081  Tot=              0.0112
 Quadrupole moment (field-independent basis, Debye-Ang):
   XX=            -85.4404   YY=            -84.9831   ZZ=            -84.4291
   XY=             -0.0805   XZ=              0.5132   YZ=              0.9974

 Normal termination of Gaussian 16 at Wed May  5 18:13:15 2021.
