 Gaussian 16, Revision A.03,
 Gaussian 16:  EM64L-G16RevA.03 25-Dec-2016

 -------------
 #p 6-31g* mp2
 -------------

 ------------------------------------------------------
 Input file generated by CHIRIPA (05-May-2021 14:53:12)
 ------------------------------------------------------
 Symbolic Z-matrix:
 Charge =  0 Multiplicity = 1

                         Standard orientation:
 ---------------------------------------------------------------------
 Center     Atomic      Atomic             Coordinates (Angstroms)
 Number     Number       Type             X           Y           Z
 ---------------------------------------------------------------------
      1          6           0       -3.740633    0.752752   -0.230232
      2          6           0       -3.238431    1.934565    0.599886
      3          6           0       -2.240667    2.809143   -0.159966
      4          1           0       -2.882593    0.143417   -0.545548
      5          1           0       -4.209269    1.131814   -1.148974
      6          1           0       -2.772115    1.553448    1.517445
      7          1           0       -4.097783    2.541051    0.913422
      8          1           0       -2.698533    3.216978   -1.066956
      9          1           0       -1.365333    2.223763   -0.459502
     10          1           0       -1.894625    3.647937    0.452029
     11          6           0       -4.738832   -0.130881    0.515770
     12          6           0       -5.241034   -1.312694   -0.314348
     13          6           0       -6.238797   -2.187272    0.445504
     14          1           0       -4.270196   -0.509944    1.434512
     15          1           0       -5.596872    0.478454    0.831085
     16          1           0       -4.381682   -1.919180   -0.627885
     17          1           0       -5.707350   -0.931577   -1.231907
     18          1           0       -7.114132   -1.601893    0.745039
     19          1           0       -5.780932   -2.595107    1.352494
     20          1           0       -6.584840   -3.026066   -0.166491
     21          6           0        5.712026   -0.313165    0.664518
     22          6           0        5.023131   -1.503856    0.411142
     23          6           0        3.693245   -1.476925   -0.019236
     24          6           0        3.080294   -0.236128   -0.186565
     25          6           0        3.739932    0.967420    0.057654
     26          6           0        5.069359    0.916505    0.487279
     27          1           0        6.744934   -0.343401    0.998554
     28          1           0        5.519704   -2.460282    0.547932
     29          1           0        3.136346   -2.383515   -0.222651
     30          1           0        3.218267    1.905581   -0.087730
     31          1           0        5.601892    1.842805    0.683293
     32          7           0        1.672645   -0.194922   -0.641788
     33          8           0        1.155139    0.911098   -0.781583
     34          8           0        1.113491   -1.269425   -0.850176
 ---------------------------------------------------------------------

 SCF Done:  E(RHF) =  -669.536475977     A.U. after   15 cycles
 E2 =    -0.2090841408D+01 EUMP2 =    -0.67162731738561D+03

 The electronic state is 1-A.
 Alpha  occ. eigenvalues --  -20.61037 -20.61022 -15.86059 -11.31341 -11.27900
 Alpha  occ. eigenvalues --  -11.27894 -11.27631 -11.26899 -11.26888 -11.20711
 Alpha  occ. eigenvalues --  -11.20392 -11.20363 -11.20360 -11.20100 -11.19492
 Alpha  occ. eigenvalues --   -1.60089  -1.39645  -1.19505  -1.08918  -1.07328
 Alpha  occ. eigenvalues --   -1.04896  -1.02427  -0.95766  -0.94865  -0.86298
 Alpha  occ. eigenvalues --   -0.85882  -0.82600  -0.78516  -0.77656  -0.77113
 Alpha  occ. eigenvalues --   -0.72284  -0.71399  -0.70614  -0.65162  -0.64899
 Alpha  occ. eigenvalues --   -0.63954  -0.62242  -0.59815  -0.58280  -0.56480
 Alpha  occ. eigenvalues --   -0.55403  -0.54133  -0.53230  -0.52987  -0.51594
 Alpha  occ. eigenvalues --   -0.51286  -0.49141  -0.49035  -0.48679  -0.46812
 Alpha  occ. eigenvalues --   -0.45545  -0.45054  -0.44667  -0.44522  -0.42689
 Alpha  occ. eigenvalues --   -0.37483  -0.36495
 Alpha virt. eigenvalues --    0.04864   0.11161   0.16363   0.21294   0.23947
 Alpha virt. eigenvalues --    0.25459   0.27222   0.27742   0.28150   0.28647
 Alpha virt. eigenvalues --    0.29167   0.30867   0.32312   0.32587   0.32758

 Mulliken charges:
               1
     1  C   -0.301432
     2  C   -0.296893
     3  C   -0.488749
     4  H    0.163514
     5  H    0.146217
     6  H    0.148873
     7  H    0.145192
     8  H    0.148984
     9  H    0.186120
    10  H    0.151002
    11  C   -0.297247
    12  C   -0.299718
    13  C   -0.475054
    14  H    0.147919
    15  H    0.145777
    16  H    0.155583
    17  H    0.150355
    18  H    0.153075
    19  H    0.153913
    20  H    0.158040
    21  C   -0.170460
    22  C   -0.218633
    23  C   -0.170424
    24  C    0.157454
    25  C   -0.170727
    26  C   -0.218582
    27  H    0.226178
    28  H    0.223955
    29  H    0.275864
    30  H    0.276266
    31  H    0.224075
    32  N    0.491841
    33  O   -0.462851
    34  O   -0.459427
 Sum of Mulliken charges =  -0.00000

 Dipole moment (field-independent basis, Debye):
    X=              5.3651    Y=             -0.2602    Z=              1.5120  Tot=              5.5801
 Quadrupole moment (field-independent basis, Debye-Ang):
   XX=            -66.0560   YY=            -90.5173   ZZ=            -96.4308
   XY=             -2.1495   XZ=              5.0805   YZ=             -0.1660

 Normal termination of Gaussian 16 at Thu May  6 10:23:39 2021.
