 Gaussian 16, Revision A.03,
 Gaussian 16:  EM64L-G16RevA.03 25-Dec-2016

 -------------
 #p 6-31g* mp2
 -------------

 ------------------------------------------------------
 Input file generated by CHIRIPA (05-May-2021 14:57:25)
 ------------------------------------------------------
 Symbolic Z-matrix:
 Charge =  0 Multiplicity = 1

                         Standard orientation:
 ---------------------------------------------------------------------
 Center     Atomic      Atomic             Coordinates (Angstroms)
 Number     Number       Type             X           Y           Z
 ---------------------------------------------------------------------
      1          6           0       -0.918857    2.601930    0.193578
      2          6           0       -2.199897    2.513406    0.748215
      3          6           0       -2.974051    1.363419    0.567209
      4          6           0       -2.433498    0.316207   -0.177397
      5          6           0       -1.160531    0.374270   -0.742616
      6          6           0       -0.404170    1.533962   -0.548759
      7          1           0       -0.324387    3.499037    0.339179
      8          1           0       -2.602177    3.341247    1.325185
      9          1           0       -3.968758    1.268296    0.985455
     10          1           0       -0.786570   -0.467365   -1.312898
     11          1           0        0.590391    1.599924   -0.980664
     12          7           0       -3.243642   -0.906370   -0.375822
     13          8           0       -2.744575   -1.815118   -1.035933
     14          8           0       -4.362360   -0.932729    0.132521
     15          6           0        3.443732    1.599815   -0.612847
     16          6           0        3.134217    0.600689   -1.541539
     17          6           0        2.500556   -0.576675   -1.133082
     18          6           0        2.189402   -0.722416    0.217930
     19          6           0        2.484787    0.254772    1.167214
     20          6           0        3.118603    1.423978    0.736187
     21          1           0        3.936034    2.511250   -0.938913
     22          1           0        3.385534    0.734522   -2.589857
     23          1           0        2.249475   -1.366283   -1.830862
     24          1           0        2.221806    0.092660    2.205472
     25          1           0        3.357775    2.198223    1.459641
     26          7           0        1.518492   -1.964520    0.662293
     27          8           0        1.254881   -2.068686    1.858242
     28          8           0        1.268948   -2.810394   -0.193780
 ---------------------------------------------------------------------

 SCF Done:  E(RHF) =  -868.334501598     A.U. after   16 cycles
 E2 =    -0.2607175181D+01 EUMP2 =    -0.87094167677930D+03

 The electronic state is 1-A.
 Alpha  occ. eigenvalues --  -20.61271 -20.61247 -20.60274 -20.60229 -15.86306
 Alpha  occ. eigenvalues --  -15.85308 -11.32062 -11.30880 -11.28684 -11.28644
 Alpha  occ. eigenvalues --  -11.28513 -11.27810 -11.27776 -11.27424 -11.27366
 Alpha  occ. eigenvalues --  -11.27224 -11.26561 -11.26346  -1.60318  -1.59324
 Alpha  occ. eigenvalues --   -1.39861  -1.38871  -1.20358  -1.19038  -1.09645
 Alpha  occ. eigenvalues --   -1.08415  -1.05770  -1.04476  -0.96387  -0.95225
 Alpha  occ. eigenvalues --   -0.87122  -0.85869  -0.83195  -0.82058  -0.78174
 Alpha  occ. eigenvalues --   -0.77081  -0.72512  -0.71700  -0.71509  -0.71371
 Alpha  occ. eigenvalues --   -0.70642  -0.70175  -0.65933  -0.65716  -0.64695
 Alpha  occ. eigenvalues --   -0.64567  -0.63057  -0.61924  -0.56220  -0.55144
 Alpha  occ. eigenvalues --   -0.54260  -0.53802  -0.52777  -0.52080  -0.49303
 Alpha  occ. eigenvalues --   -0.49255  -0.48300  -0.48269  -0.45160  -0.44229
 Alpha  occ. eigenvalues --   -0.38491  -0.37652  -0.36899  -0.35857
 Alpha virt. eigenvalues --    0.04245   0.05499   0.10122   0.11579   0.15675
 Alpha virt. eigenvalues --    0.16982   0.20460   0.21941   0.26237   0.27211
 Alpha virt. eigenvalues --    0.28073   0.28377   0.30310   0.31281   0.31842

 Mulliken charges:
               1
     1  C   -0.177567
     2  C   -0.217521
     3  C   -0.172080
     4  C    0.162909
     5  C   -0.184945
     6  C   -0.219256
     7  H    0.218595
     8  H    0.221118
     9  H    0.275279
    10  H    0.277184
    11  H    0.231240
    12  N    0.488052
    13  O   -0.454214
    14  O   -0.462207
    15  C   -0.179717
    16  C   -0.225919
    17  C   -0.182747
    18  C    0.163588
    19  C   -0.165037
    20  C   -0.220131
    21  H    0.228476
    22  H    0.228433
    23  H    0.281151
    24  H    0.280089
    25  H    0.225846
    26  N    0.487987
    27  O   -0.455392
    28  O   -0.453215
 Sum of Mulliken charges =  -0.00000

 Dipole moment (field-independent basis, Debye):
    X=              5.4141    Y=              8.3032    Z=             -0.7454  Tot=              9.9404
 Quadrupole moment (field-independent basis, Debye-Ang):
   XX=           -106.3351   YY=           -108.2461   ZZ=           -100.3649
   XY=             -3.2516   XZ=             -7.3363   YZ=              4.7080

 Normal termination of Gaussian 16 at Thu May  6 18:05:31 2021.
