 Gaussian 16, Revision A.03,
 Gaussian 16:  EM64L-G16RevA.03 25-Dec-2016

 -------------
 #p 6-31g* mp2
 -------------

 ------------------------------------------------------
 Input file generated by CHIRIPA (05-May-2021 14:55:24)
 ------------------------------------------------------
 Symbolic Z-matrix:
 Charge =  0 Multiplicity = 1

                         Standard orientation:
 ---------------------------------------------------------------------
 Center     Atomic      Atomic             Coordinates (Angstroms)
 Number     Number       Type             X           Y           Z
 ---------------------------------------------------------------------
      1          6           0       -2.026451    2.451581   -0.698224
      2          6           0       -3.164820    2.086355    0.027893
      3          6           0       -3.483126    0.738449    0.218623
      4          6           0       -2.637163   -0.222375   -0.333150
      5          6           0       -1.495886    0.109809   -1.061458
      6          6           0       -1.197079    1.463884   -1.239628
      7          1           0       -1.786757    3.501063   -0.841509
      8          1           0       -3.810738    2.851264    0.449497
      9          1           0       -4.358156    0.427732    0.776472
     10          1           0       -0.871144   -0.675342   -1.469688
     11          1           0       -0.312351    1.744591   -1.803989
     12          7           0       -2.963817   -1.652608   -0.137881
     13          8           0       -2.202363   -2.479971   -0.634164
     14          8           0       -3.975118   -1.919181    0.507756
     15          6           0        3.769007   -0.413973    0.007038
     16          6           0        5.150165    0.220706   -0.159008
     17          6           0        6.063689   -0.584892   -1.083281
     18          1           0        3.885645   -1.432726    0.401350
     19          1           0        3.297600   -0.513127   -0.980555
     20          1           0        5.618260    0.319902    0.828748
     21          1           0        5.030216    1.238135   -0.552792
     22          1           0        5.621513   -0.672825   -2.080953
     23          1           0        6.212899   -1.596275   -0.691563
     24          1           0        7.045773   -0.113253   -1.187826
     25          6           0        2.844307    0.379811    0.928215
     26          6           0        1.463150   -0.254868    1.094260
     27          6           0        0.549626    0.550730    2.018533
     28          1           0        3.315716    0.478965    1.915806
     29          1           0        2.727671    1.398564    0.533902
     30          1           0        1.583099   -1.272297    1.488044
     31          1           0        0.995055   -0.354064    0.106504
     32          1           0        0.400416    1.562113    1.626816
     33          1           0        0.991801    0.638662    3.016206
     34          1           0       -0.432458    0.079090    2.123078
 ---------------------------------------------------------------------

 SCF Done:  E(RHF) =  -669.534018367     A.U. after   15 cycles
 E2 =    -0.2094468223D+01 EUMP2 =    -0.67162848659002D+03

 The electronic state is 1-A.
 Alpha  occ. eigenvalues --  -20.60805 -20.60798 -15.85860 -11.31232 -11.27814
 Alpha  occ. eigenvalues --  -11.27804 -11.27567 -11.26827 -11.26813 -11.21831
 Alpha  occ. eigenvalues --  -11.21705 -11.21640 -11.21583 -11.21251 -11.21107
 Alpha  occ. eigenvalues --   -1.59881  -1.39433  -1.19425  -1.08812  -1.08643
 Alpha  occ. eigenvalues --   -1.04845  -1.03686  -0.96145  -0.95644  -0.87158
 Alpha  occ. eigenvalues --   -0.86229  -0.82482  -0.79769  -0.78471  -0.77513
 Alpha  occ. eigenvalues --   -0.72077  -0.71211  -0.70542  -0.65324  -0.65063
 Alpha  occ. eigenvalues --   -0.64834  -0.62219  -0.61108  -0.59527  -0.57774
 Alpha  occ. eigenvalues --   -0.55531  -0.55329  -0.53192  -0.52934  -0.52635
 Alpha  occ. eigenvalues --   -0.52527  -0.50077  -0.48838  -0.48831  -0.48077
 Alpha  occ. eigenvalues --   -0.46819  -0.45995  -0.45948  -0.44830  -0.43963
 Alpha  occ. eigenvalues --   -0.37375  -0.36337
 Alpha virt. eigenvalues --    0.04988   0.11168   0.16420   0.20629   0.22848
 Alpha virt. eigenvalues --    0.24135   0.25588   0.26802   0.27507   0.27971
 Alpha virt. eigenvalues --    0.28911   0.30538   0.31407   0.31582   0.31859

 Mulliken charges:
               1
     1  C   -0.170823
     2  C   -0.217440
     3  C   -0.171870
     4  C    0.158512
     5  C   -0.168420
     6  C   -0.215497
     7  H    0.225862
     8  H    0.223780
     9  H    0.275939
    10  H    0.276147
    11  H    0.223394
    12  N    0.487588
    13  O   -0.460061
    14  O   -0.460451
    15  C   -0.297506
    16  C   -0.299477
    17  C   -0.475727
    18  H    0.153446
    19  H    0.145067
    20  H    0.153083
    21  H    0.149466
    22  H    0.154460
    23  H    0.157024
    24  H    0.160535
    25  C   -0.297893
    26  C   -0.300403
    27  C   -0.474849
    28  H    0.151311
    29  H    0.143652
    30  H    0.157946
    31  H    0.145084
    32  H    0.151363
    33  H    0.154655
    34  H    0.162102
 Sum of Mulliken charges =  -0.00000

 Dipole moment (field-independent basis, Debye):
    X=              1.0986    Y=              4.9951    Z=             -0.6635  Tot=              5.1574
 Quadrupole moment (field-independent basis, Debye-Ang):
   XX=            -98.1377   YY=            -97.1743   ZZ=            -93.3289
   XY=            -14.9937   XZ=             -0.1413   YZ=             -1.6179

 Normal termination of Gaussian 16 at Thu May  6 12:42:59 2021.
