 Gaussian 16, Revision A.03,
 Gaussian 16:  EM64L-G16RevA.03 25-Dec-2016

 -------------
 #p 6-31g* mp2
 -------------

 ------------------------------------------------------
 Input file generated by CHIRIPA (05-May-2021 14:53:14)
 ------------------------------------------------------
 Symbolic Z-matrix:
 Charge =  0 Multiplicity = 1

                         Standard orientation:
 ---------------------------------------------------------------------
 Center     Atomic      Atomic             Coordinates (Angstroms)
 Number     Number       Type             X           Y           Z
 ---------------------------------------------------------------------
      1          6           0        2.698414    1.141803   -0.538810
      2          6           0        2.606960    2.249910    0.510819
      3          6           0        2.420158    3.635804   -0.107401
      4          1           0        3.534199    1.357367   -1.218471
      5          1           0        1.786606    1.150944   -1.151931
      6          1           0        3.518065    2.237788    1.122667
      7          1           0        1.771414    2.031583    1.188176
      8          1           0        1.501850    3.671618   -0.702404
      9          1           0        3.258425    3.878995   -0.768286
     10          1           0        2.357227    4.412889    0.660738
     11          6           0        2.885267   -0.249497    0.063765
     12          6           0        2.976720   -1.357603   -0.985864
     13          6           0        3.163522   -2.743497   -0.367644
     14          1           0        3.797075   -0.258638    0.676886
     15          1           0        2.049481   -0.465061    0.743426
     16          1           0        3.812266   -1.139276   -1.663221
     17          1           0        2.065616   -1.345482   -1.597712
     18          1           0        2.325256   -2.986689    0.293241
     19          1           0        4.081830   -2.779312    0.227359
     20          1           0        3.226453   -3.520582   -1.135783
     21          6           0       -3.862859    1.274828   -0.764338
     22          6           0       -3.589905    0.077653   -1.434256
     23          6           0       -2.660000   -0.829241   -0.917179
     24          6           0       -2.018542   -0.505500    0.277397
     25          6           0       -2.268914    0.679129    0.968236
     26          6           0       -3.202656    1.571222    0.432659
     27          1           0       -4.586722    1.973576   -1.173202
     28          1           0       -4.101119   -0.155161   -2.364043
     29          1           0       -2.429649   -1.763242   -1.415174
     30          1           0       -1.743408    0.883498    1.893165
     31          1           0       -3.412640    2.500211    0.955088
     32          7           0       -1.032062   -1.457754    0.834596
     33          8           0       -0.480361   -1.149142    1.888647
     34          8           0       -0.829237   -2.494711    0.206728
 ---------------------------------------------------------------------

 SCF Done:  E(RHF) =  -669.536971086     A.U. after   15 cycles
 E2 =    -0.2092635603D+01 EUMP2 =    -0.67162960668890D+03

 The electronic state is 1-A.
 Alpha  occ. eigenvalues --  -20.61161 -20.61142 -15.86140 -11.31400 -11.27950
 Alpha  occ. eigenvalues --  -11.27945 -11.27671 -11.26938 -11.26928 -11.21172
 Alpha  occ. eigenvalues --  -11.20860 -11.20777 -11.20543 -11.20283 -11.19668
 Alpha  occ. eigenvalues --   -1.60188  -1.39746  -1.19557  -1.08974  -1.07655
 Alpha  occ. eigenvalues --   -1.04940  -1.02739  -0.95825  -0.95182  -0.86344
 Alpha  occ. eigenvalues --   -0.86198  -0.82661  -0.78860  -0.77726  -0.77392
 Alpha  occ. eigenvalues --   -0.72357  -0.71504  -0.70663  -0.65211  -0.64941
 Alpha  occ. eigenvalues --   -0.64283  -0.62287  -0.60129  -0.58622  -0.56779
 Alpha  occ. eigenvalues --   -0.55447  -0.54466  -0.53275  -0.53029  -0.51911
 Alpha  occ. eigenvalues --   -0.51597  -0.49218  -0.49142  -0.49023  -0.47150
 Alpha  occ. eigenvalues --   -0.45901  -0.45396  -0.44951  -0.44502  -0.42987
 Alpha  occ. eigenvalues --   -0.37528  -0.36536
 Alpha virt. eigenvalues --    0.04741   0.11103   0.16222   0.21172   0.23376
 Alpha virt. eigenvalues --    0.25084   0.26842   0.27310   0.27888   0.28717
 Alpha virt. eigenvalues --    0.28826   0.31004   0.31761   0.32329   0.32450

 Mulliken charges:
               1
     1  C   -0.296910
     2  C   -0.298681
     3  C   -0.475199
     4  H    0.147200
     5  H    0.143691
     6  H    0.152732
     7  H    0.151294
     8  H    0.151355
     9  H    0.155155
    10  H    0.157429
    11  C   -0.310461
    12  C   -0.296518
    13  C   -0.480987
    14  H    0.147068
    15  H    0.169291
    16  H    0.145232
    17  H    0.148659
    18  H    0.177808
    19  H    0.149016
    20  H    0.154572
    21  C   -0.170298
    22  C   -0.218545
    23  C   -0.170786
    24  C    0.158526
    25  C   -0.171018
    26  C   -0.218488
    27  H    0.226552
    28  H    0.224322
    29  H    0.276175
    30  H    0.276149
    31  H    0.224491
    32  N    0.487805
    33  O   -0.458552
    34  O   -0.458078
 Sum of Mulliken charges =  -0.00000

 Dipole moment (field-independent basis, Debye):
    X=             -3.7659    Y=              3.1966    Z=             -1.8172  Tot=              5.2634
 Quadrupole moment (field-independent basis, Debye-Ang):
   XX=            -80.7844   YY=            -98.0502   ZZ=            -93.3869
   XY=             -4.4712   XZ=              4.2347   YZ=              4.8444

 Normal termination of Gaussian 16 at Thu May  6 17:05:42 2021.
