 Gaussian 16, Revision A.03,
 Gaussian 16:  EM64L-G16RevA.03 25-Dec-2016

 -------------
 #p 6-31g* mp2
 -------------

 ------------------------------------------------------
 Input file generated by CHIRIPA (05-May-2021 14:57:26)
 ------------------------------------------------------
 Symbolic Z-matrix:
 Charge =  0 Multiplicity = 1

                         Standard orientation:
 ---------------------------------------------------------------------
 Center     Atomic      Atomic             Coordinates (Angstroms)
 Number     Number       Type             X           Y           Z
 ---------------------------------------------------------------------
      1          6           0       -3.361790   -1.496429    0.046004
      2          6           0       -2.545990   -1.230230   -1.058591
      3          6           0       -1.836282   -0.028743   -1.143977
      4          6           0       -1.966173    0.888233   -0.102069
      5          6           0       -2.770922    0.652091    1.011441
      6          6           0       -3.471459   -0.556077    1.075679
      7          1           0       -3.909546   -2.432369    0.104119
      8          1           0       -2.458912   -1.958678   -1.859732
      9          1           0       -1.197612    0.202998   -1.987669
     10          1           0       -2.837627    1.397657    1.794448
     11          1           0       -4.104276   -0.760122    1.934722
     12          7           0       -1.219691    2.163730   -0.181269
     13          8           0       -1.351094    2.955197    0.749833
     14          8           0       -0.517331    2.347847   -1.172948
     15          6           0        0.647440   -2.747714    0.029056
     16          6           0        0.987406   -2.096709   -1.161379
     17          6           0        1.785669   -0.949159   -1.140118
     18          6           0        2.228587   -0.477925    0.094812
     19          6           0        1.906930   -1.104262    1.297946
     20          6           0        1.107477   -2.250289    1.252762
     21          1           0        0.026868   -3.638568    0.003249
     22          1           0        0.631561   -2.480763   -2.113179
     23          1           0        2.063912   -0.425517   -2.046648
     24          1           0        2.276689   -0.697675    2.231426
     25          1           0        0.845033   -2.753808    2.178849
     26          7           0        3.074302    0.736129    0.129983
     27          8           0        3.451818    1.131242    1.230894
     28          8           0        3.343644    1.269603   -0.944027
 ---------------------------------------------------------------------

 SCF Done:  E(RHF) =  -868.334195644     A.U. after   16 cycles
 E2 =    -0.2605514024D+01 EUMP2 =    -0.87093970966854D+03

 The electronic state is 1-A.
 Alpha  occ. eigenvalues --  -20.60802 -20.60793 -20.60351 -20.60308 -15.85856
 Alpha  occ. eigenvalues --  -15.85404 -11.31415 -11.31130 -11.28068 -11.28010
 Alpha  occ. eigenvalues --  -11.27861 -11.27755 -11.27742 -11.27621 -11.27147
 Alpha  occ. eigenvalues --  -11.27074 -11.26907 -11.26846  -1.59870  -1.59392
 Alpha  occ. eigenvalues --   -1.39419  -1.38938  -1.19649  -1.19348  -1.09006
 Alpha  occ. eigenvalues --   -1.08689  -1.05117  -1.04801  -0.95798  -0.95459
 Alpha  occ. eigenvalues --   -0.86488  -0.86209  -0.82639  -0.82301  -0.77658
 Alpha  occ. eigenvalues --   -0.77256  -0.72064  -0.71626  -0.71236  -0.70782
 Alpha  occ. eigenvalues --   -0.70683  -0.70479  -0.65304  -0.65172  -0.64989
 Alpha  occ. eigenvalues --   -0.64839  -0.62491  -0.62125  -0.55612  -0.55348
 Alpha  occ. eigenvalues --   -0.53979  -0.53215  -0.52932  -0.52547  -0.48836
 Alpha  occ. eigenvalues --   -0.48815  -0.48410  -0.48348  -0.44792  -0.44247
 Alpha  occ. eigenvalues --   -0.37993  -0.37530  -0.36811  -0.35696
 Alpha virt. eigenvalues --    0.04834   0.05318   0.10722   0.11353   0.16342
 Alpha virt. eigenvalues --    0.16729   0.19801   0.21972   0.25649   0.27067
 Alpha virt. eigenvalues --    0.28385   0.28895   0.29805   0.31242   0.31937

 Mulliken charges:
               1
     1  C   -0.173976
     2  C   -0.217545
     3  C   -0.160138
     4  C    0.157633
     5  C   -0.170760
     6  C   -0.219403
     7  H    0.222758
     8  H    0.215448
     9  H    0.271725
    10  H    0.277132
    11  H    0.223054
    12  N    0.486976
    13  O   -0.457288
    14  O   -0.457444
    15  C   -0.164389
    16  C   -0.222065
    17  C   -0.170540
    18  C    0.159239
    19  C   -0.171073
    20  C   -0.218262
    21  H    0.219253
    22  H    0.215632
    23  H    0.278943
    24  H    0.277326
    25  H    0.221671
    26  N    0.489821
    27  O   -0.460330
    28  O   -0.453398
 Sum of Mulliken charges =  -0.00000

 Dipole moment (field-independent basis, Debye):
    X=             -5.4140    Y=             -8.4315    Z=              0.2215  Tot=             10.0225
 Quadrupole moment (field-independent basis, Debye-Ang):
   XX=           -108.5041   YY=           -109.9677   ZZ=            -96.3160
   XY=             -2.1491   XZ=             -2.7233   YZ=              1.1647

 Normal termination of Gaussian 16 at Thu May  6 22:54:52 2021.
