 Gaussian 16, Revision A.03,
 Gaussian 16:  EM64L-G16RevA.03 25-Dec-2016

 -------------
 #p 6-31g* mp2
 -------------

 ------------------------------------------------------
 Input file generated by CHIRIPA (05-May-2021 14:51:14)
 ------------------------------------------------------
 Symbolic Z-matrix:
 Charge =  0 Multiplicity = 1

                         Standard orientation:
 ---------------------------------------------------------------------
 Center     Atomic      Atomic             Coordinates (Angstroms)
 Number     Number       Type             X           Y           Z
 ---------------------------------------------------------------------
      1          6           0        4.489000    0.076506   -0.124471
      2          6           0        5.893405   -0.377573    0.274833
      3          6           0        6.954704    0.694276    0.024674
      4          1           0        4.488611    0.353870   -1.187492
      5          1           0        4.232085    0.986060    0.435977
      6          1           0        6.147050   -1.286784   -0.285180
      7          1           0        5.890405   -0.654069    1.336980
      8          1           0        6.728819    1.600719    0.595584
      9          1           0        6.986921    0.964409   -1.035793
     10          1           0        7.951118    0.348615    0.317141
     11          6           0        3.417061   -0.984190    0.119655
     12          6           0        2.012656   -0.530111   -0.279649
     13          6           0        0.951358   -1.601960   -0.029490
     14          1           0        3.673976   -1.893744   -0.440793
     15          1           0        3.417450   -1.261553    1.182676
     16          1           0        2.015656   -0.253614   -1.341796
     17          1           0        1.759012    0.379101    0.280364
     18          1           0        0.919140   -1.872093    1.030977
     19          1           0        1.177242   -2.508402   -0.600400
     20          1           0       -0.045057   -1.256299   -0.321957
     21          6           0       -4.634553    0.315267    0.318249
     22          6           0       -5.415114   -0.794646   -0.386596
     23          6           0       -6.776450   -1.060264    0.256835
     24          1           0       -4.496139    0.043999    1.373805
     25          1           0       -5.232054    1.237377    0.308254
     26          1           0       -4.815735   -1.714026   -0.376491
     27          1           0       -5.551519   -0.520793   -1.440642
     28          1           0       -7.396286   -0.158127    0.233270
     29          1           0       -6.656322   -1.358141    1.303467
     30          1           0       -7.317442   -1.857255   -0.262774
     31          6           0       -3.271508    0.592417   -0.313433
     32          6           0       -2.490948    1.702330    0.391411
     33          6           0       -1.129611    1.967947   -0.252019
     34          1           0       -2.674007   -0.329694   -0.303438
     35          1           0       -3.409921    0.863684   -1.368989
     36          1           0       -2.354542    1.428477    1.445458
     37          1           0       -3.090326    2.621709    0.381307
     38          1           0       -1.249740    2.265823   -1.298652
     39          1           0       -0.509775    1.065811   -0.228454
     40          1           0       -0.588619    2.764938    0.267590
 ---------------------------------------------------------------------

 SCF Done:  E(RHF) =  -470.732493105     A.U. after   11 cycles
 E2 =    -0.1583534950D+01 EUMP2 =    -0.47231602805538D+03

 The electronic state is 1-A.
 Alpha  occ. eigenvalues --  -11.21599 -11.21596 -11.21589 -11.21568 -11.21407
 Alpha  occ. eigenvalues --  -11.21400 -11.21346 -11.21340 -11.21122 -11.21067
 Alpha  occ. eigenvalues --  -11.21060 -11.20956  -1.08449  -1.08406  -1.03588
 Alpha  occ. eigenvalues --   -1.03471  -0.96046  -0.95916  -0.87020  -0.86972
 Alpha  occ. eigenvalues --   -0.79656  -0.79530  -0.78276  -0.78205  -0.65115
 Alpha  occ. eigenvalues --   -0.65018  -0.61097  -0.60840  -0.59460  -0.59249
 Alpha  occ. eigenvalues --   -0.57786  -0.57424  -0.55348  -0.55138  -0.52728
 Alpha  occ. eigenvalues --   -0.52644  -0.52487  -0.52298  -0.49968  -0.49853
 Alpha  occ. eigenvalues --   -0.47928  -0.47867  -0.46729  -0.46492  -0.45817
 Alpha  occ. eigenvalues --   -0.45750  -0.45728  -0.45602  -0.43805  -0.43745
 Alpha virt. eigenvalues --    0.21199   0.23061   0.23525   0.25186   0.25895
 Alpha virt. eigenvalues --    0.26544   0.27013   0.27232   0.27955   0.29095
 Alpha virt. eigenvalues --    0.30527   0.31198   0.31439   0.31823   0.32083

 Mulliken charges:
               1
     1  C   -0.298330
     2  C   -0.299678
     3  C   -0.475704
     4  H    0.149822
     5  H    0.149768
     6  H    0.151908
     7  H    0.151880
     8  H    0.155217
     9  H    0.155228
    10  H    0.160227
    11  C   -0.297901
    12  C   -0.302835
    13  C   -0.483278
    14  H    0.149443
    15  H    0.149517
    16  H    0.152957
    17  H    0.154947
    18  H    0.155351
    19  H    0.156328
    20  H    0.164458
    21  C   -0.298097
    22  C   -0.299748
    23  C   -0.475706
    24  H    0.149740
    25  H    0.149655
    26  H    0.152121
    27  H    0.151887
    28  H    0.155135
    29  H    0.155204
    30  H    0.160246
    31  C   -0.302133
    32  C   -0.298890
    33  C   -0.486525
    34  H    0.152055
    35  H    0.149704
    36  H    0.151544
    37  H    0.151714
    38  H    0.154615
    39  H    0.168934
    40  H    0.159220
 Sum of Mulliken charges =  -0.00000

 Dipole moment (field-independent basis, Debye):
    X=              0.0267    Y=             -0.0103    Z=             -0.0056  Tot=              0.0292
 Quadrupole moment (field-independent basis, Debye-Ang):
   XX=            -86.4265   YY=            -84.8017   ZZ=            -83.6293
   XY=             -1.1947   XZ=              0.5746   YZ=              0.1139

 Normal termination of Gaussian 16 at Wed May  5 21:38:55 2021.
