 Gaussian 16, Revision A.03,
 Gaussian 16:  EM64L-G16RevA.03 25-Dec-2016

 -------------
 #p 6-31g* mp2
 -------------

 ------------------------------------------------------
 Input file generated by CHIRIPA (05-May-2021 14:55:23)
 ------------------------------------------------------
 Symbolic Z-matrix:
 Charge =  0 Multiplicity = 1

                         Standard orientation:
 ---------------------------------------------------------------------
 Center     Atomic      Atomic             Coordinates (Angstroms)
 Number     Number       Type             X           Y           Z
 ---------------------------------------------------------------------
      1          6           0       -2.611616    2.185640   -0.449610
      2          6           0       -1.769283    1.859753    0.618470
      3          6           0       -1.509268    0.523160    0.935426
      4          6           0       -2.111016   -0.466586    0.159803
      5          6           0       -2.954832   -0.173832   -0.910506
      6          6           0       -3.200663    1.169599   -1.209349
      7          1           0       -2.808092    3.226594   -0.688794
      8          1           0       -1.310446    2.646737    1.210221
      9          1           0       -0.861203    0.242690    1.756867
     10          1           0       -3.397737   -0.980324   -1.482191
     11          1           0       -3.855254    1.419734   -2.039403
     12          7           0       -1.843258   -1.885197    0.485762
     13          8           0       -2.385630   -2.738602   -0.212929
     14          8           0       -1.096088   -2.116837    1.433769
     15          6           0        2.533482   -0.429203   -0.198960
     16          6           0        3.689932   -1.405029   -0.418900
     17          6           0        3.223656   -2.855853   -0.543360
     18          1           0        1.985241   -0.718729    0.707987
     19          1           0        1.824790   -0.517191   -1.034070
     20          1           0        4.396933   -1.314238    0.415680
     21          1           0        4.235599   -1.113033   -1.325322
     22          1           0        2.535256   -2.968209   -1.387210
     23          1           0        2.697506   -3.170557    0.363684
     24          1           0        4.066401   -3.536348   -0.700099
     25          6           0        2.983693    1.025126   -0.072606
     26          6           0        1.827242    2.000951    0.147333
     27          6           0        2.293518    3.451775    0.271794
     28          1           0        3.692385    1.113114    0.762504
     29          1           0        3.531933    1.314651   -0.979552
     30          1           0        1.281575    1.708955    1.053756
     31          1           0        1.120242    1.910160   -0.687246
     32          1           0        2.819667    3.766479   -0.635250
     33          1           0        2.981919    3.564131    1.115644
     34          1           0        1.450773    4.132270    0.428533
 ---------------------------------------------------------------------

 SCF Done:  E(RHF) =  -669.534725728     A.U. after   15 cycles
 E2 =    -0.2093829869D+01 EUMP2 =    -0.67162855559682D+03

 The electronic state is 1-A.
 Alpha  occ. eigenvalues --  -20.60799 -20.60794 -15.85841 -11.31178 -11.27732
 Alpha  occ. eigenvalues --  -11.27726 -11.27475 -11.26759 -11.26727 -11.21954
 Alpha  occ. eigenvalues --  -11.21588 -11.21469 -11.21298 -11.21182 -11.20489
 Alpha  occ. eigenvalues --   -1.59863  -1.39419  -1.19350  -1.08751  -1.08439
 Alpha  occ. eigenvalues --   -1.04757  -1.03525  -0.95961  -0.95590  -0.86974
 Alpha  occ. eigenvalues --   -0.86148  -0.82436  -0.79653  -0.78220  -0.77438
 Alpha  occ. eigenvalues --   -0.72063  -0.71176  -0.70463  -0.65100  -0.64988
 Alpha  occ. eigenvalues --   -0.64757  -0.62126  -0.60910  -0.59414  -0.57562
 Alpha  occ. eigenvalues --   -0.55253  -0.55226  -0.53147  -0.52841  -0.52657
 Alpha  occ. eigenvalues --   -0.52360  -0.49892  -0.48818  -0.48816  -0.47923
 Alpha  occ. eigenvalues --   -0.46682  -0.45757  -0.45625  -0.44779  -0.43774
 Alpha  occ. eigenvalues --   -0.37331  -0.36242
 Alpha virt. eigenvalues --    0.05041   0.11200   0.16482   0.20143   0.23072
 Alpha virt. eigenvalues --    0.24078   0.25177   0.26702   0.26987   0.28556
 Alpha virt. eigenvalues --    0.29449   0.30698   0.31301   0.31772   0.32472

 Mulliken charges:
               1
     1  C   -0.173005
     2  C   -0.213986
     3  C   -0.167330
     4  C    0.157542
     5  C   -0.171936
     6  C   -0.218628
     7  H    0.225452
     8  H    0.224626
     9  H    0.274637
    10  H    0.275306
    11  H    0.223254
    12  N    0.488743
    13  O   -0.459998
    14  O   -0.461355
    15  C   -0.301957
    16  C   -0.299755
    17  C   -0.477198
    18  H    0.156879
    19  H    0.148334
    20  H    0.150934
    21  H    0.149523
    22  H    0.155953
    23  H    0.165226
    24  H    0.158171
    25  C   -0.298316
    26  C   -0.299462
    27  C   -0.475685
    28  H    0.149645
    29  H    0.149647
    30  H    0.142105
    31  H    0.155958
    32  H    0.158000
    33  H    0.157276
    34  H    0.151402
 Sum of Mulliken charges =  -0.00000

 Dipole moment (field-independent basis, Debye):
    X=             -0.9453    Y=              4.8669    Z=             -1.1547  Tot=              5.0906
 Quadrupole moment (field-independent basis, Debye-Ang):
   XX=            -89.7157   YY=           -100.8954   ZZ=            -91.6908
   XY=             -9.6529   XZ=              5.0449   YZ=              2.1555

 Normal termination of Gaussian 16 at Thu May  6 01:31:05 2021.
