 Gaussian 16, Revision A.03,
 Gaussian 16:  EM64L-G16RevA.03 25-Dec-2016

 -------------
 #p 6-31g* mp2
 -------------

 ------------------------------------------------------
 Input file generated by CHIRIPA (05-May-2021 14:57:24)
 ------------------------------------------------------
 Symbolic Z-matrix:
 Charge =  0 Multiplicity = 1

                         Standard orientation:
 ---------------------------------------------------------------------
 Center     Atomic      Atomic             Coordinates (Angstroms)
 Number     Number       Type             X           Y           Z
 ---------------------------------------------------------------------
      1          6           0        3.052090    2.488550   -0.454998
      2          6           0        4.111929    1.666086   -0.058997
      3          6           0        3.911815    0.296943    0.140873
      4          6           0        2.633149   -0.218637   -0.065235
      5          6           0        1.557065    0.574861   -0.459815
      6          6           0        1.780283    1.941277   -0.653792
      7          1           0        3.216517    3.551075   -0.607973
      8          1           0        5.100698    2.088361    0.096133
      9          1           0        4.714535   -0.362673    0.447412
     10          1           0        0.582650    0.124989   -0.606618
     11          1           0        0.955335    2.577614   -0.961334
     12          7           0        2.409068   -1.666645    0.143239
     13          8           0        1.273073   -2.096449   -0.044961
     14          8           0        3.373672   -2.344370    0.490894
     15          6           0       -2.993369    2.433330    0.592056
     16          6           0       -2.420350    1.595720    1.554646
     17          6           0       -2.236431    0.234805    1.292673
     18          6           0       -2.638826   -0.257192    0.051985
     19          6           0       -3.212662    0.551829   -0.927549
     20          6           0       -3.387002    1.909635   -0.643790
     21          1           0       -3.132521    3.489314    0.804025
     22          1           0       -2.113704    1.999675    2.515289
     23          1           0       -1.795398   -0.436153    2.019806
     24          1           0       -3.508394    0.120130   -1.876019
     25          1           0       -3.832287    2.557774   -1.393245
     26          7           0       -2.449190   -1.696286   -0.236886
     27          8           0       -2.812100   -2.105239   -1.337655
     28          8           0       -1.941234   -2.388046    0.642935
 ---------------------------------------------------------------------

 SCF Done:  E(RHF) =  -868.335671425     A.U. after   16 cycles
 E2 =    -0.2602600886D+01 EUMP2 =    -0.87093827231121D+03

 The electronic state is 1-A.
 Alpha  occ. eigenvalues --  -20.60431 -20.60357 -20.60297 -20.60277 -15.85429
 Alpha  occ. eigenvalues --  -15.85365 -11.31333 -11.31028 -11.27949 -11.27895
 Alpha  occ. eigenvalues --  -11.27767 -11.27628 -11.27624 -11.27444 -11.27061
 Alpha  occ. eigenvalues --  -11.27024 -11.26723 -11.26707  -1.59424  -1.59392
 Alpha  occ. eigenvalues --   -1.38973  -1.38925  -1.19554  -1.19234  -1.08841
 Alpha  occ. eigenvalues --   -1.08579  -1.04997  -1.04674  -0.95580  -0.95357
 Alpha  occ. eigenvalues --   -0.86362  -0.86064  -0.82397  -0.82174  -0.77357
 Alpha  occ. eigenvalues --   -0.77181  -0.71715  -0.71546  -0.70767  -0.70664
 Alpha  occ. eigenvalues --   -0.70601  -0.70346  -0.65158  -0.64967  -0.64872
 Alpha  occ. eigenvalues --   -0.64685  -0.62304  -0.62026  -0.55468  -0.55191
 Alpha  occ. eigenvalues --   -0.53375  -0.53060  -0.52984  -0.52741  -0.48450
 Alpha  occ. eigenvalues --   -0.48391  -0.48351  -0.48306  -0.44423  -0.44056
 Alpha  occ. eigenvalues --   -0.37581  -0.37240  -0.36699  -0.36227
 Alpha virt. eigenvalues --    0.05064   0.05454   0.10895   0.11455   0.16496
 Alpha virt. eigenvalues --    0.16846   0.21207   0.21362   0.27027   0.27137
 Alpha virt. eigenvalues --    0.28056   0.28175   0.30446   0.31006   0.32130

 Mulliken charges:
               1
     1  C   -0.172053
     2  C   -0.218766
     3  C   -0.170981
     4  C    0.158321
     5  C   -0.171976
     6  C   -0.220473
     7  H    0.223194
     8  H    0.222596
     9  H    0.276031
    10  H    0.275366
    11  H    0.220909
    12  N    0.486953
    13  O   -0.450511
    14  O   -0.462549
    15  C   -0.175553
    16  C   -0.218877
    17  C   -0.174134
    18  C    0.154270
    19  C   -0.175156
    20  C   -0.220779
    21  H    0.224478
    22  H    0.224423
    23  H    0.281684
    24  H    0.277511
    25  H    0.223151
    26  N    0.489569
    27  O   -0.462667
    28  O   -0.443982
 Sum of Mulliken charges =  -0.00000

 Dipole moment (field-independent basis, Debye):
    X=              0.0354    Y=              9.7791    Z=              0.3943  Tot=              9.7871
 Quadrupole moment (field-independent basis, Debye-Ang):
   XX=            -92.8572   YY=           -110.6693   ZZ=           -101.1016
   XY=             -0.6300   XZ=             -1.4647   YZ=             -1.1120

 Normal termination of Gaussian 16 at Fri May  7 12:36:24 2021.
