 Gaussian 16, Revision A.03,
 Gaussian 16:  EM64L-G16RevA.03 25-Dec-2016

 -------------
 #p 6-31g* mp2
 -------------

 ------------------------------------------------------
 Input file generated by CHIRIPA (05-May-2021 14:51:12)
 ------------------------------------------------------
 Symbolic Z-matrix:
 Charge =  0 Multiplicity = 1

                         Standard orientation:
 ---------------------------------------------------------------------
 Center     Atomic      Atomic             Coordinates (Angstroms)
 Number     Number       Type             X           Y           Z
 ---------------------------------------------------------------------
      1          6           0        2.302112   -0.577700    0.151201
      2          6           0        3.485601   -1.292361    0.804347
      3          6           0        3.053680   -2.453735    1.700141
      4          1           0        1.627851   -0.206783    0.935253
      5          1           0        1.725492   -1.302878   -0.439579
      6          1           0        4.060606   -0.565765    1.392601
      7          1           0        4.157221   -1.661453    0.018654
      8          1           0        2.498603   -3.199981    1.122553
      9          1           0        2.401439   -2.098067    2.504308
     10          1           0        3.915378   -2.950465    2.156865
     11          6           0        2.717838    0.585703   -0.747350
     12          6           0        1.534349    1.300364   -1.400495
     13          6           0        1.966270    2.461738   -2.296289
     14          1           0        3.294458    1.310881   -0.156569
     15          1           0        3.392099    0.214786   -1.531402
     16          1           0        0.862729    1.669456   -0.614802
     17          1           0        0.959344    0.573767   -1.988750
     18          1           0        2.618511    2.106070   -3.100456
     19          1           0        2.521347    3.207984   -1.718701
     20          1           0        1.104572    2.958468   -2.753013
     21          6           0       -2.003741    0.346532    0.750054
     22          6           0       -2.569151    1.583539    1.448702
     23          6           0       -1.544486    2.273902    2.349399
     24          1           0       -1.643287   -0.362251    1.508107
     25          1           0       -1.128146    0.638768    0.153960
     26          1           0       -3.444249    1.289298    2.042202
     27          1           0       -2.928475    2.289377    0.688902
     28          1           0       -0.674627    2.595275    1.767450
     29          1           0       -1.193331    1.589514    3.128439
     30          1           0       -1.969748    3.155608    2.838897
     31          6           0       -3.016208   -0.354535   -0.153905
     32          6           0       -2.450799   -1.591542   -0.852554
     33          6           0       -3.475464   -2.281905   -1.753251
     34          1           0       -3.891804   -0.646770    0.442188
     35          1           0       -3.376662    0.354248   -0.911960
     36          1           0       -2.091476   -2.297380   -0.092754
     37          1           0       -1.575701   -1.297301   -1.446054
     38          1           0       -3.826619   -1.597517   -2.532291
     39          1           0       -4.345324   -2.603279   -1.171302
     40          1           0       -3.050201   -3.163611   -2.242749
 ---------------------------------------------------------------------

 SCF Done:  E(RHF) =  -470.733130732     A.U. after   11 cycles
 E2 =    -0.1584117626D+01 EUMP2 =    -0.47231724835784D+03

 The electronic state is 1-A.
 Alpha  occ. eigenvalues --  -11.21680 -11.21592 -11.21585 -11.21575 -11.21420
 Alpha  occ. eigenvalues --  -11.21346 -11.21335 -11.21254 -11.21135 -11.21115
 Alpha  occ. eigenvalues --  -11.21063 -11.21057  -1.08470  -1.08377  -1.03565
 Alpha  occ. eigenvalues --   -1.03515  -0.96001  -0.95965  -0.87022  -0.86982
 Alpha  occ. eigenvalues --   -0.79663  -0.79561  -0.78452  -0.78016  -0.65137
 Alpha  occ. eigenvalues --   -0.64984  -0.61038  -0.60843  -0.59387  -0.59321
 Alpha  occ. eigenvalues --   -0.57617  -0.57572  -0.55285  -0.55258  -0.52719
 Alpha  occ. eigenvalues --   -0.52659  -0.52430  -0.52389  -0.49960  -0.49904
 Alpha  occ. eigenvalues --   -0.48058  -0.47881  -0.46842  -0.46497  -0.46298
 Alpha  occ. eigenvalues --   -0.45714  -0.45675  -0.45032  -0.43804  -0.43754
 Alpha virt. eigenvalues --    0.20432   0.22652   0.23426   0.24042   0.25081
 Alpha virt. eigenvalues --    0.26570   0.26869   0.27904   0.28027   0.29818
 Alpha virt. eigenvalues --    0.30641   0.31669   0.31800   0.31822   0.32089

 Mulliken charges:
               1
     1  C   -0.301002
     2  C   -0.299709
     3  C   -0.475605
     4  H    0.152733
     5  H    0.150319
     6  H    0.151890
     7  H    0.151787
     8  H    0.155260
     9  H    0.155085
    10  H    0.160156
    11  C   -0.297880
    12  C   -0.307462
    13  C   -0.475024
    14  H    0.149568
    15  H    0.149727
    16  H    0.157311
    17  H    0.152517
    18  H    0.155558
    19  H    0.155489
    20  H    0.160051
    21  C   -0.308644
    22  C   -0.299142
    23  C   -0.477748
    24  H    0.149199
    25  H    0.161656
    26  H    0.151873
    27  H    0.151649
    28  H    0.155346
    29  H    0.155031
    30  H    0.160677
    31  C   -0.297600
    32  C   -0.301129
    33  C   -0.475689
    34  H    0.149203
    35  H    0.149242
    36  H    0.152193
    37  H    0.152868
    38  H    0.155073
    39  H    0.155258
    40  H    0.159914
 Sum of Mulliken charges =  -0.00000

 Dipole moment (field-independent basis, Debye):
    X=              0.0280    Y=              0.0055    Z=             -0.0070  Tot=              0.0293
 Quadrupole moment (field-independent basis, Debye-Ang):
   XX=            -85.1867   YY=            -85.1913   ZZ=            -84.4918
   XY=             -0.3688   XZ=             -0.6160   YZ=              0.1951

 Normal termination of Gaussian 16 at Thu May  6 07:06:41 2021.
