 Gaussian 16, Revision A.03,
 Gaussian 16:  EM64L-G16RevA.03 25-Dec-2016

 -------------
 #p 6-31g* mp2
 -------------

 ------------------------------------------------------
 Input file generated by CHIRIPA (05-May-2021 14:57:26)
 ------------------------------------------------------
 Symbolic Z-matrix:
 Charge =  0 Multiplicity = 1

                         Standard orientation:
 ---------------------------------------------------------------------
 Center     Atomic      Atomic             Coordinates (Angstroms)
 Number     Number       Type             X           Y           Z
 ---------------------------------------------------------------------
      1          6           0        3.952344   -2.116201   -0.136209
      2          6           0        2.812186   -1.814159    0.615676
      3          6           0        2.282634   -0.520281    0.613752
      4          6           0        2.921472    0.451531   -0.154856
      5          6           0        4.058795    0.181700   -0.914446
      6          6           0        4.570919   -1.119066   -0.897528
      7          1           0        4.356943   -3.123991   -0.128890
      8          1           0        2.329708   -2.586544    1.207859
      9          1           0        1.401157   -0.259007    1.186598
     10          1           0        4.517790    0.972760   -1.494934
     11          1           0        5.456507   -1.350759   -1.482420
     12          7           0        2.370084    1.824947   -0.164829
     13          8           0        2.951445    2.663293   -0.850273
     14          8           0        1.366987    2.037078    0.512985
     15          6           0       -1.318557   -0.318156    2.020925
     16          6           0       -2.286744    0.691218    2.003579
     17          6           0       -3.230186    0.752484    0.973669
     18          6           0       -3.176097   -0.216186   -0.027352
     19          6           0       -2.223784   -1.234164   -0.037916
     20          6           0       -1.290217   -1.275936    1.001918
     21          1           0       -0.589504   -0.358176    2.824838
     22          1           0       -2.311144    1.436375    2.793635
     23          1           0       -3.990590    1.523042    0.935670
     24          1           0       -2.224655   -1.962931   -0.839361
     25          1           0       -0.539450   -2.060968    1.012815
     26          7           0       -4.169649   -0.161645   -1.122924
     27          8           0       -4.100726   -1.026900   -1.993109
     28          8           0       -4.998505    0.745325   -1.090705
 ---------------------------------------------------------------------

 SCF Done:  E(RHF) =  -868.335734037     A.U. after   16 cycles
 E2 =    -0.2602547639D+01 EUMP2 =    -0.87093828167605D+03

 The electronic state is 1-A.
 Alpha  occ. eigenvalues --  -20.61238 -20.61225 -20.60653 -20.60638 -15.86292
 Alpha  occ. eigenvalues --  -15.85704 -11.31741 -11.31121 -11.28361 -11.28307
 Alpha  occ. eigenvalues --  -11.28108 -11.27760 -11.27628 -11.27545 -11.27466
 Alpha  occ. eigenvalues --  -11.27311 -11.26900 -11.26662  -1.60305  -1.59720
 Alpha  occ. eigenvalues --   -1.39857  -1.39273  -1.19945  -1.19310  -1.09313
 Alpha  occ. eigenvalues --   -1.08735  -1.05394  -1.04722  -0.96140  -0.95548
 Alpha  occ. eigenvalues --   -0.86778  -0.86160  -0.82985  -0.82377  -0.78039
 Alpha  occ. eigenvalues --   -0.77384  -0.72519  -0.71933  -0.71628  -0.71114
 Alpha  occ. eigenvalues --   -0.71036  -0.70454  -0.65621  -0.65432  -0.64987
 Alpha  occ. eigenvalues --   -0.64808  -0.62754  -0.62025  -0.55868  -0.55324
 Alpha  occ. eigenvalues --   -0.53704  -0.53597  -0.52867  -0.52841  -0.49278
 Alpha  occ. eigenvalues --   -0.49258  -0.48691  -0.48674  -0.45244  -0.44667
 Alpha  occ. eigenvalues --   -0.37916  -0.37353  -0.36960  -0.36214
 Alpha virt. eigenvalues --    0.04523   0.05108   0.10515   0.11403   0.15913
 Alpha virt. eigenvalues --    0.16497   0.19120   0.22240   0.25312   0.26876
 Alpha virt. eigenvalues --    0.27845   0.29409   0.30269   0.31530   0.33319

 Mulliken charges:
               1
     1  C   -0.169312
     2  C   -0.225853
     3  C   -0.171306
     4  C    0.155241
     5  C   -0.168330
     6  C   -0.218965
     7  H    0.227373
     8  H    0.217106
     9  H    0.278854
    10  H    0.278068
    11  H    0.226045
    12  N    0.487368
    13  O   -0.457649
    14  O   -0.462140
    15  C   -0.170135
    16  C   -0.210684
    17  C   -0.168331
    18  C    0.160076
    19  C   -0.170048
    20  C   -0.220667
    21  H    0.220840
    22  H    0.227584
    23  H    0.277573
    24  H    0.274771
    25  H    0.214555
    26  N    0.488149
    27  O   -0.461539
    28  O   -0.458643
 Sum of Mulliken charges =  -0.00000

 Dipole moment (field-independent basis, Debye):
    X=              5.3790    Y=             -4.7401    Z=              3.7884  Tot=              8.1089
 Quadrupole moment (field-independent basis, Debye-Ang):
   XX=           -111.9874   YY=           -106.3779   ZZ=           -103.3182
   XY=            -14.6388   XZ=            -16.8215   YZ=              1.2153

 Normal termination of Gaussian 16 at Wed May  5 16:30:35 2021.
