 Gaussian 16, Revision A.03,
 Gaussian 16:  EM64L-G16RevA.03 25-Dec-2016

 -------------
 #p 6-31g* mp2
 -------------

 ------------------------------------------------------
 Input file generated by CHIRIPA (05-May-2021 14:53:18)
 ------------------------------------------------------
 Symbolic Z-matrix:
 Charge =  0 Multiplicity = 1

                         Standard orientation:
 ---------------------------------------------------------------------
 Center     Atomic      Atomic             Coordinates (Angstroms)
 Number     Number       Type             X           Y           Z
 ---------------------------------------------------------------------
      1          6           0       -3.129642    0.721757    0.620034
      2          6           0       -2.698783    1.947171   -0.186629
      3          6           0       -2.166768    3.077792    0.694536
      4          1           0       -3.901546    1.019390    1.342892
      5          1           0       -2.274743    0.358899    1.207297
      6          1           0       -3.553867    2.306778   -0.773255
      7          1           0       -1.927952    1.646547   -0.907781
      8          1           0       -1.297648    2.741838    1.269311
      9          1           0       -2.932800    3.405820    1.404601
     10          1           0       -1.864505    3.943817    0.097462
     11          6           0       -3.663796   -0.417034   -0.246893
     12          6           0       -4.094655   -1.642448    0.559770
     13          6           0       -4.626669   -2.773069   -0.321395
     14          1           0       -4.518695   -0.054176   -0.834156
     15          1           0       -2.891892   -0.714667   -0.969751
     16          1           0       -4.865485   -1.341824    1.280923
     17          1           0       -3.239571   -2.002055    1.146396
     18          1           0       -3.860637   -3.101097   -1.031460
     19          1           0       -5.495790   -2.437115   -0.896169
     20          1           0       -4.928933   -3.639094    0.275679
     21          6           0        4.904861   -1.052628    0.507340
     22          6           0        4.757508    0.317994    0.270266
     23          6           0        3.514895    0.846300   -0.092160
     24          6           0        2.436052   -0.028776   -0.208897
     25          6           0        2.551016   -1.398942    0.020706
     26          6           0        3.803086   -1.905218    0.382025
     27          1           0        5.873826   -1.454473    0.788451
     28          1           0        5.611415    0.982496    0.366838
     29          1           0        3.372720    1.903347   -0.281517
     30          1           0        1.681399   -2.036384   -0.083472
     31          1           0        3.914577   -2.970085    0.565529
     32          7           0        1.115546    0.518858   -0.591995
     33          8           0        0.180619   -0.273165   -0.688162
     34          8           0        1.040466    1.729746   -0.788846
 ---------------------------------------------------------------------

 SCF Done:  E(RHF) =  -669.537116808     A.U. after   15 cycles
 E2 =    -0.2093149009D+01 EUMP2 =    -0.67163026581624D+03

 The electronic state is 1-A.
 Alpha  occ. eigenvalues --  -20.61300 -20.61286 -15.86266 -11.31483 -11.28024
 Alpha  occ. eigenvalues --  -11.28019 -11.27740 -11.27002 -11.26992 -11.20469
 Alpha  occ. eigenvalues --  -11.20186 -11.19798 -11.19646 -11.19442 -11.19317
 Alpha  occ. eigenvalues --   -1.60315  -1.39874  -1.19633  -1.09061  -1.06824
 Alpha  occ. eigenvalues --   -1.05009  -1.01997  -0.95916  -0.94497  -0.86415
 Alpha  occ. eigenvalues --   -0.85535  -0.82756  -0.78117  -0.77820  -0.76583
 Alpha  occ. eigenvalues --   -0.72476  -0.71611  -0.70740  -0.65290  -0.65019
 Alpha  occ. eigenvalues --   -0.63423  -0.62356  -0.59394  -0.57929  -0.56095
 Alpha  occ. eigenvalues --   -0.55513  -0.53785  -0.53346  -0.53096  -0.51262
 Alpha  occ. eigenvalues --   -0.50941  -0.49304  -0.49236  -0.48443  -0.46427
 Alpha  occ. eigenvalues --   -0.45306  -0.45073  -0.44156  -0.43863  -0.42232
 Alpha  occ. eigenvalues --   -0.37604  -0.36603
 Alpha virt. eigenvalues --    0.04680   0.11054   0.16192   0.21176   0.24396
 Alpha virt. eigenvalues --    0.25812   0.27131   0.27861   0.28416   0.29091
 Alpha virt. eigenvalues --    0.29406   0.30833   0.32343   0.32744   0.33122

 Mulliken charges:
               1
     1  C   -0.291987
     2  C   -0.308831
     3  C   -0.469055
     4  H    0.139199
     5  H    0.149369
     6  H    0.140257
     7  H    0.181997
     8  H    0.152925
     9  H    0.143693
    10  H    0.157507
    11  C   -0.301586
    12  C   -0.297937
    13  C   -0.474777
    14  H    0.143002
    15  H    0.164925
    16  H    0.147553
    17  H    0.149142
    18  H    0.154402
    19  H    0.153453
    20  H    0.154843
    21  C   -0.170125
    22  C   -0.218633
    23  C   -0.170322
    24  C    0.159154
    25  C   -0.170576
    26  C   -0.218591
    27  H    0.226751
    28  H    0.224567
    29  H    0.276456
    30  H    0.275960
    31  H    0.224559
    32  N    0.490093
    33  O   -0.460986
    34  O   -0.456401
 Sum of Mulliken charges =  -0.00000

 Dipole moment (field-independent basis, Debye):
    X=              5.2669    Y=             -1.9756    Z=              1.1480  Tot=              5.7412
 Quadrupole moment (field-independent basis, Debye-Ang):
   XX=            -72.7461   YY=            -92.0212   ZZ=            -96.6680
   XY=             -3.4454   XZ=              2.5995   YZ=             -0.6268

 Normal termination of Gaussian 16 at Wed May  5 15:47:11 2021.
