 Gaussian 16, Revision A.03,
 Gaussian 16:  EM64L-G16RevA.03 25-Dec-2016

 -------------
 #p 6-31g* mp2
 -------------

 ------------------------------------------------------
 Input file generated by CHIRIPA (05-May-2021 14:57:24)
 ------------------------------------------------------
 Symbolic Z-matrix:
 Charge =  0 Multiplicity = 1

                         Standard orientation:
 ---------------------------------------------------------------------
 Center     Atomic      Atomic             Coordinates (Angstroms)
 Number     Number       Type             X           Y           Z
 ---------------------------------------------------------------------
      1          6           0        3.792902    1.376923    0.437056
      2          6           0        3.858398    0.570208   -0.703752
      3          6           0        2.983276   -0.508571   -0.861695
      4          6           0        2.050884   -0.753004    0.145375
      5          6           0        1.960856    0.032503    1.293488
      6          6           0        2.846010    1.105973    1.430284
      7          1           0        4.476614    2.212882    0.551535
      8          1           0        4.592747    0.778270   -1.476724
      9          1           0        3.012121   -1.149200   -1.734724
     10          1           0        1.218079   -0.199776    2.046978
     11          1           0        2.792854    1.730791    2.317314
     12          7           0        1.119122   -1.892249   -0.010638
     13          8           0        0.306751   -2.086595    0.890983
     14          8           0        1.218820   -2.569271   -1.031588
     15          6           0       -3.159300   -1.705571    0.374434
     16          6           0       -2.561481   -1.478014   -0.869493
     17          6           0       -2.029114   -0.223778   -1.182584
     18          6           0       -2.112138    0.784776   -0.223827
     19          6           0       -2.701524    0.589107    1.024223
     20          6           0       -3.227293   -0.673104    1.315662
     21          1           0       -3.570292   -2.682990    0.609240
     22          1           0       -2.507263   -2.277980   -1.602404
     23          1           0       -1.560800   -0.020212   -2.137917
     24          1           0       -2.740679    1.406160    1.734371
     25          1           0       -3.690989   -0.846957    2.282515
     26          7           0       -1.552038    2.116802   -0.543821
     27          8           0       -1.637755    2.988786    0.318115
     28          8           0       -1.037920    2.263636   -1.650509
 ---------------------------------------------------------------------

 SCF Done:  E(RHF) =  -868.339411798     A.U. after   16 cycles
 E2 =    -0.2602025987D+01 EUMP2 =    -0.87094143778504D+03

 The electronic state is 1-A.
 Alpha  occ. eigenvalues --  -20.60960 -20.60917 -20.60390 -20.60373 -15.85947
 Alpha  occ. eigenvalues --  -15.85424 -11.31045 -11.30440 -11.27579 -11.27575
 Alpha  occ. eigenvalues --  -11.27239 -11.26984 -11.26866 -11.26523 -11.26515
 Alpha  occ. eigenvalues --  -11.26508 -11.25914 -11.25751  -1.60006  -1.59469
 Alpha  occ. eigenvalues --   -1.39570  -1.39033  -1.19178  -1.18528  -1.08626
 Alpha  occ. eigenvalues --   -1.07973  -1.04542  -1.03886  -0.95515  -0.94890
 Alpha  occ. eigenvalues --   -0.85957  -0.85306  -0.82364  -0.81749  -0.77447
 Alpha  occ. eigenvalues --   -0.76855  -0.72212  -0.71655  -0.71354  -0.70772
 Alpha  occ. eigenvalues --   -0.70290  -0.69638  -0.64840  -0.64549  -0.64188
 Alpha  occ. eigenvalues --   -0.63891  -0.61908  -0.61267  -0.55051  -0.54371
 Alpha  occ. eigenvalues --   -0.52878  -0.52640  -0.52208  -0.51987  -0.48979
 Alpha  occ. eigenvalues --   -0.48934  -0.48426  -0.48373  -0.44997  -0.44518
 Alpha  occ. eigenvalues --   -0.37182  -0.36365  -0.36079  -0.35430
 Alpha virt. eigenvalues --    0.05030   0.05661   0.11524   0.12206   0.16626
 Alpha virt. eigenvalues --    0.17296   0.21661   0.22301   0.27559   0.28184
 Alpha virt. eigenvalues --    0.28500   0.29128   0.31212   0.31859   0.32621

 Mulliken charges:
               1
     1  C   -0.167677
     2  C   -0.216217
     3  C   -0.169554
     4  C    0.157567
     5  C   -0.172393
     6  C   -0.214845
     7  H    0.227241
     8  H    0.223951
     9  H    0.273525
    10  H    0.273052
    11  H    0.225218
    12  N    0.488902
    13  O   -0.461215
    14  O   -0.466864
    15  C   -0.157086
    16  C   -0.203340
    17  C   -0.181888
    18  C    0.157626
    19  C   -0.175283
    20  C   -0.215081
    21  H    0.225779
    22  H    0.228169
    23  H    0.272884
    24  H    0.269268
    25  H    0.219695
    26  N    0.488135
    27  O   -0.466266
    28  O   -0.463302
 Sum of Mulliken charges =  -0.00000

 Dipole moment (field-independent basis, Debye):
    X=              1.3914    Y=             -0.9105    Z=              1.6925  Tot=              2.3727
 Quadrupole moment (field-independent basis, Debye-Ang):
   XX=            -82.4944   YY=           -118.7632   ZZ=            -97.6477
   XY=             14.7173   XZ=             -3.8315   YZ=              5.0253

 Normal termination of Gaussian 16 at Thu May  6 08:14:24 2021.
