 Gaussian 16, Revision A.03,
 Gaussian 16:  EM64L-G16RevA.03 25-Dec-2016

 -------------
 #p 6-31g* mp2
 -------------

 ------------------------------------------------------
 Input file generated by CHIRIPA (05-May-2021 14:55:21)
 ------------------------------------------------------
 Symbolic Z-matrix:
 Charge =  0 Multiplicity = 1

                         Standard orientation:
 ---------------------------------------------------------------------
 Center     Atomic      Atomic             Coordinates (Angstroms)
 Number     Number       Type             X           Y           Z
 ---------------------------------------------------------------------
      1          6           0        3.142709   -2.328893    0.332116
      2          6           0        2.389639   -1.723058   -0.679007
      3          6           0        2.440421   -0.339011   -0.869756
      4          6           0        3.258565    0.412207   -0.027377
      5          6           0        4.020685   -0.162050    0.988837
      6          6           0        3.954398   -1.547833    1.161349
      7          1           0        3.097238   -3.404728    0.473211
      8          1           0        1.758398   -2.327145   -1.324498
      9          1           0        1.867848    0.155905   -1.644763
     10          1           0        4.640740    0.466419    1.616513
     11          1           0        4.540335   -2.015618    1.947415
     12          7           0        3.320533    1.878354   -0.219661
     13          8           0        4.049084    2.517987    0.535799
     14          8           0        2.639380    2.360125   -1.122193
     15          6           0       -4.901499   -0.141592   -0.162334
     16          6           0       -5.607605    0.878371    0.731575
     17          6           0       -7.094668    1.020691    0.405719
     18          1           0       -5.021232    0.156179   -1.213021
     19          1           0       -5.396195   -1.116920   -0.055548
     20          1           0       -5.110859    1.851163    0.624184
     21          1           0       -5.486013    0.578241    1.780266
     22          1           0       -7.609934    0.062908    0.531241
     23          1           0       -7.232648    1.343063   -0.631410
     24          1           0       -7.579814    1.754780    1.056569
     25          6           0       -3.414282   -0.295064    0.151292
     26          6           0       -2.708175   -1.315026   -0.742619
     27          6           0       -1.221111   -1.457346   -0.416761
     28          1           0       -2.919585    0.680265    0.044506
     29          1           0       -3.294548   -0.592834    1.201978
     30          1           0       -2.829767   -1.014897   -1.791310
     31          1           0       -3.204922   -2.287819   -0.635227
     32          1           0       -1.083133   -1.779719    0.620369
     33          1           0       -0.705846   -0.499563   -0.542283
     34          1           0       -0.735966   -2.191435   -1.067610
 ---------------------------------------------------------------------

 SCF Done:  E(RHF) =  -669.534938364     A.U. after   15 cycles
 E2 =    -0.2091892912D+01 EUMP2 =    -0.67162683127524D+03

 The electronic state is 1-A.
 Alpha  occ. eigenvalues --  -20.60745 -20.60739 -15.85797 -11.31142 -11.27698
 Alpha  occ. eigenvalues --  -11.27689 -11.27432 -11.26725 -11.26684 -11.21960
 Alpha  occ. eigenvalues --  -11.21663 -11.21657 -11.21589 -11.21499 -11.21112
 Alpha  occ. eigenvalues --   -1.59820  -1.39374  -1.19310  -1.08711  -1.08632
 Alpha  occ. eigenvalues --   -1.04714  -1.03774  -0.96247  -0.95548  -0.87279
 Alpha  occ. eigenvalues --   -0.86106  -0.82382  -0.79848  -0.78420  -0.77425
 Alpha  occ. eigenvalues --   -0.72016  -0.71143  -0.70420  -0.65261  -0.64960
 Alpha  occ. eigenvalues --   -0.64735  -0.62097  -0.61160  -0.59630  -0.57844
 Alpha  occ. eigenvalues --   -0.55529  -0.55211  -0.53301  -0.53025  -0.52592
 Alpha  occ. eigenvalues --   -0.52547  -0.50170  -0.48773  -0.48771  -0.48153
 Alpha  occ. eigenvalues --   -0.46856  -0.45971  -0.45873  -0.44784  -0.44031
 Alpha  occ. eigenvalues --   -0.37287  -0.36250
 Alpha virt. eigenvalues --    0.05084   0.11278   0.16546   0.20605   0.22787
 Alpha virt. eigenvalues --    0.24020   0.26194   0.26361   0.27031   0.27920
 Alpha virt. eigenvalues --    0.29089   0.29354   0.31243   0.31752   0.32284

 Mulliken charges:
               1
     1  C   -0.172853
     2  C   -0.212547
     3  C   -0.171512
     4  C    0.157903
     5  C   -0.171435
     6  C   -0.218344
     7  H    0.225322
     8  H    0.225167
     9  H    0.275055
    10  H    0.275283
    11  H    0.223117
    12  N    0.488165
    13  O   -0.460459
    14  O   -0.461007
    15  C   -0.298508
    16  C   -0.300115
    17  C   -0.475875
    18  H    0.150403
    19  H    0.148828
    20  H    0.154048
    21  H    0.151859
    22  H    0.154610
    23  H    0.155656
    24  H    0.161073
    25  C   -0.299521
    26  C   -0.300446
    27  C   -0.476366
    28  H    0.153382
    29  H    0.149739
    30  H    0.152670
    31  H    0.151505
    32  H    0.157709
    33  H    0.159203
    34  H    0.148291
 Sum of Mulliken charges =  -0.00000

 Dipole moment (field-independent basis, Debye):
    X=             -0.2917    Y=             -5.1280    Z=              0.7195  Tot=              5.1864
 Quadrupole moment (field-independent basis, Debye-Ang):
   XX=            -95.5576   YY=            -99.2907   ZZ=            -91.8956
   XY=            -16.6492   XZ=              4.7839   YZ=              0.1571

 Normal termination of Gaussian 16 at Wed May  5 15:55:25 2021.
