 Gaussian 16, Revision A.03,
 Gaussian 16:  EM64L-G16RevA.03 25-Dec-2016

 -------------
 #p 6-31g* mp2
 -------------

 ------------------------------------------------------
 Input file generated by CHIRIPA (05-May-2021 14:51:09)
 ------------------------------------------------------
 Symbolic Z-matrix:
 Charge =  0 Multiplicity = 1

                         Standard orientation:
 ---------------------------------------------------------------------
 Center     Atomic      Atomic             Coordinates (Angstroms)
 Number     Number       Type             X           Y           Z
 ---------------------------------------------------------------------
      1          6           0       -2.694377   -0.600573    0.859210
      2          6           0       -1.204318   -0.330963    1.071392
      3          6           0       -0.575836   -1.265591    2.105450
      4          1           0       -3.219799   -0.495005    1.818236
      5          1           0       -2.829560   -1.643863    0.541929
      6          1           0       -1.071868    0.711900    1.386842
      7          1           0       -0.682411   -0.436998    0.111712
      8          1           0       -0.678587   -2.309986    1.793550
      9          1           0       -1.070257   -1.154560    3.075925
     10          1           0        0.489610   -1.055403    2.241484
     11          6           0       -3.336860    0.325807   -0.171694
     12          6           0       -4.826919    0.056198   -0.383876
     13          6           0       -5.455401    0.990825   -1.417934
     14          1           0       -3.201677    1.369097    0.145587
     15          1           0       -2.811437    0.220239   -1.130720
     16          1           0       -5.348826    0.162232    0.575804
     17          1           0       -4.959369   -0.986666   -0.699326
     18          1           0       -4.960980    0.879795   -2.388408
     19          1           0       -5.352650    2.035220   -1.106033
     20          1           0       -6.520847    0.780637   -1.553968
     21          6           0        3.424879    0.780834   -0.300080
     22          6           0        2.605423    1.991414    0.148217
     23          6           0        3.438068    3.271133    0.230779
     24          1           0        4.259846    0.632297    0.398284
     25          1           0        3.871937    0.992451   -1.281280
     26          1           0        2.158916    1.777043    1.127652
     27          1           0        1.772198    2.136971   -0.551188
     28          1           0        3.871620    3.512282   -0.745172
     29          1           0        4.260533    3.150308    0.943206
     30          1           0        2.832561    4.123972    0.553098
     31          6           0        2.606357   -0.506068   -0.387436
     32          6           0        3.425814   -1.716649   -0.835733
     33          6           0        2.593169   -2.996368   -0.918295
     34          1           0        2.159300   -0.717686    0.593764
     35          1           0        1.771391   -0.357531   -1.085800
     36          1           0        4.259039   -1.862206   -0.136329
     37          1           0        3.872321   -1.502278   -1.815168
     38          1           0        1.770703   -2.875543   -1.630722
     39          1           0        2.159617   -3.237516    0.057656
     40          1           0        3.198675   -3.849207   -1.240613
 ---------------------------------------------------------------------

 SCF Done:  E(RHF) =  -470.732917940     A.U. after   11 cycles
 E2 =    -0.1583826473D+01 EUMP2 =    -0.47231674441323D+03

 The electronic state is 1-A.
 Alpha  occ. eigenvalues --  -11.21600 -11.21592 -11.21589 -11.21517 -11.21390
 Alpha  occ. eigenvalues --  -11.21379 -11.21325 -11.21316 -11.21076 -11.21067
 Alpha  occ. eigenvalues --  -11.21065 -11.21053  -1.08450  -1.08380  -1.03535
 Alpha  occ. eigenvalues --   -1.03494  -0.96003  -0.95939  -0.87006  -0.86970
 Alpha  occ. eigenvalues --   -0.79591  -0.79564  -0.78349  -0.78111  -0.65076
 Alpha  occ. eigenvalues --   -0.65031  -0.60952  -0.60881  -0.59397  -0.59303
 Alpha  occ. eigenvalues --   -0.57728  -0.57445  -0.55269  -0.55249  -0.52725
 Alpha  occ. eigenvalues --   -0.52650  -0.52464  -0.52304  -0.49919  -0.49901
 Alpha  occ. eigenvalues --   -0.47934  -0.47880  -0.46657  -0.46585  -0.45976
 Alpha  occ. eigenvalues --   -0.45703  -0.45662  -0.45443  -0.43780  -0.43740
 Alpha virt. eigenvalues --    0.20856   0.23145   0.23781   0.24245   0.25078
 Alpha virt. eigenvalues --    0.26270   0.26837   0.27707   0.28445   0.29657
 Alpha virt. eigenvalues --    0.30785   0.31170   0.31653   0.31817   0.32177

 Mulliken charges:
               1
     1  C   -0.298386
     2  C   -0.302699
     3  C   -0.478959
     4  H    0.149329
     5  H    0.149433
     6  H    0.152049
     7  H    0.156694
     8  H    0.155470
     9  H    0.155018
    10  H    0.161353
    11  C   -0.298088
    12  C   -0.299614
    13  C   -0.475680
    14  H    0.149517
    15  H    0.149134
    16  H    0.151956
    17  H    0.151920
    18  H    0.155031
    19  H    0.155148
    20  H    0.160227
    21  C   -0.297916
    22  C   -0.300334
    23  C   -0.475704
    24  H    0.149326
    25  H    0.149378
    26  H    0.152231
    27  H    0.152613
    28  H    0.155207
    29  H    0.155082
    30  H    0.160193
    31  C   -0.306681
    32  C   -0.299061
    33  C   -0.476633
    34  H    0.158212
    35  H    0.150588
    36  H    0.151769
    37  H    0.151746
    38  H    0.154408
    39  H    0.156393
    40  H    0.160332
 Sum of Mulliken charges =  -0.00000

 Dipole moment (field-independent basis, Debye):
    X=              0.0124    Y=              0.0009    Z=             -0.0026  Tot=              0.0127
 Quadrupole moment (field-independent basis, Debye-Ang):
   XX=            -85.3662   YY=            -85.6963   ZZ=            -83.8526
   XY=             -0.3269   XZ=             -0.3937   YZ=              0.6182

 Normal termination of Gaussian 16 at Thu May  6 00:32:41 2021.
