 Gaussian 16, Revision A.03,
 Gaussian 16:  EM64L-G16RevA.03 25-Dec-2016

 -------------
 #p 6-31g* mp2
 -------------

 ------------------------------------------------------
 Input file generated by CHIRIPA (05-May-2021 14:57:26)
 ------------------------------------------------------
 Symbolic Z-matrix:
 Charge =  0 Multiplicity = 1

                         Standard orientation:
 ---------------------------------------------------------------------
 Center     Atomic      Atomic             Coordinates (Angstroms)
 Number     Number       Type             X           Y           Z
 ---------------------------------------------------------------------
      1          6           0        2.879043    1.927025    1.700845
      2          6           0        3.109474    2.253001    0.360263
      3          6           0        3.097725    1.260197   -0.623988
      4          6           0        2.851132   -0.054212   -0.230529
      5          6           0        2.618035   -0.410582    1.096858
      6          6           0        2.634490    0.598616    2.064224
      7          1           0        2.889998    2.704627    2.458877
      8          1           0        3.299669    3.283818    0.075153
      9          1           0        3.273017    1.484681   -1.669119
     10          1           0        2.431304   -1.447037    1.350453
     11          1           0        2.455210    0.342537    3.104573
     12          7           0        2.836202   -1.113927   -1.263574
     13          8           0        2.616534   -2.264421   -0.891087
     14          8           0        3.044451   -0.773972   -2.426200
     15          6           0       -4.260979    1.729809   -0.920421
     16          6           0       -2.865604    1.824068   -0.944156
     17          6           0       -2.075834    0.804892   -0.403701
     18          6           0       -2.717532   -0.299317    0.155081
     19          6           0       -4.105573   -0.422329    0.193796
     20          6           0       -4.875427    0.608887   -0.352522
     21          1           0       -4.866756    2.526207   -1.342538
     22          1           0       -2.385686    2.693425   -1.384545
     23          1           0       -0.993634    0.852186   -0.408780
     24          1           0       -4.555220   -1.301221    0.639649
     25          1           0       -5.958890    0.532993   -0.332696
     26          7           0       -1.891978   -1.384646    0.730340
     27          8           0       -2.481594   -2.347095    1.216842
     28          8           0       -0.670927   -1.252329    0.683834
 ---------------------------------------------------------------------

 SCF Done:  E(RHF) =  -868.338115252     A.U. after   16 cycles
 E2 =    -0.2600537078D+01 EUMP2 =    -0.87093865233013D+03

 The electronic state is 1-A.
 Alpha  occ. eigenvalues --  -20.60846 -20.60838 -20.60055 -20.59969 -15.85892
 Alpha  occ. eigenvalues --  -15.85070 -11.31226 -11.30500 -11.27795 -11.27790
 Alpha  occ. eigenvalues --  -11.27547 -11.27232 -11.26976 -11.26957 -11.26816
 Alpha  occ. eigenvalues --  -11.26803 -11.26253 -11.26062  -1.59909  -1.59086
 Alpha  occ. eigenvalues --   -1.39467  -1.38633  -1.19400  -1.18721  -1.08803
 Alpha  occ. eigenvalues --   -1.08115  -1.04801  -1.04127  -0.95645  -0.94924
 Alpha  occ. eigenvalues --   -0.86202  -0.85527  -0.82482  -0.81752  -0.77532
 Alpha  occ. eigenvalues --   -0.76763  -0.72147  -0.71294  -0.71223  -0.70516
 Alpha  occ. eigenvalues --   -0.70390  -0.69837  -0.65061  -0.64810  -0.64374
 Alpha  occ. eigenvalues --   -0.64141  -0.62150  -0.61452  -0.55311  -0.54677
 Alpha  occ. eigenvalues --   -0.53130  -0.52906  -0.52463  -0.52219  -0.48874
 Alpha  occ. eigenvalues --   -0.48860  -0.48076  -0.48023  -0.44881  -0.44016
 Alpha  occ. eigenvalues --   -0.37384  -0.36749  -0.36402  -0.35702
 Alpha virt. eigenvalues --    0.04993   0.05794   0.11252   0.11932   0.16487
 Alpha virt. eigenvalues --    0.17226   0.21338   0.21978   0.27215   0.27891
 Alpha virt. eigenvalues --    0.28153   0.28928   0.30781   0.31469   0.32301

 Mulliken charges:
               1
     1  C   -0.172841
     2  C   -0.222627
     3  C   -0.176959
     4  C    0.154859
     5  C   -0.151545
     6  C   -0.221442
     7  H    0.222100
     8  H    0.218354
     9  H    0.271822
    10  H    0.285830
    11  H    0.223965
    12  N    0.488369
    13  O   -0.451445
    14  O   -0.468386
    15  C   -0.170596
    16  C   -0.218613
    17  C   -0.170490
    18  C    0.158342
    19  C   -0.170588
    20  C   -0.218643
    21  H    0.225482
    22  H    0.222582
    23  H    0.275699
    24  H    0.275893
    25  H    0.223609
    26  N    0.492482
    27  O   -0.458963
    28  O   -0.466252
 Sum of Mulliken charges =  -0.00000

 Dipole moment (field-independent basis, Debye):
    X=             -3.0245    Y=              7.1933    Z=              1.7559  Tot=              7.9983
 Quadrupole moment (field-independent basis, Debye-Ang):
   XX=            -86.4609   YY=           -104.9591   ZZ=           -105.6900
   XY=              3.4112   XZ=             14.0878   YZ=             -3.5756

 Normal termination of Gaussian 16 at Thu May  6 11:28:50 2021.
