 Gaussian 16, Revision A.03,
 Gaussian 16:  EM64L-G16RevA.03 25-Dec-2016

 -------------
 #p 6-31g* mp2
 -------------

 ------------------------------------------------------
 Input file generated by CHIRIPA (05-May-2021 14:53:11)
 ------------------------------------------------------
 Symbolic Z-matrix:
 Charge =  0 Multiplicity = 1

                         Standard orientation:
 ---------------------------------------------------------------------
 Center     Atomic      Atomic             Coordinates (Angstroms)
 Number     Number       Type             X           Y           Z
 ---------------------------------------------------------------------
      1          6           0       -3.832686    0.365132    0.120495
      2          6           0       -3.443005    1.780089    0.549483
      3          6           0       -1.932491    1.954175    0.710222
      4          1           0       -3.456273   -0.352743    0.862057
      5          1           0       -3.332119    0.126122   -0.828030
      6          1           0       -3.945251    2.016873    1.496213
      7          1           0       -3.820555    2.494694   -0.193088
      8          1           0       -1.417994    1.744513   -0.233142
      9          1           0       -1.543399    1.263977    1.465758
     10          1           0       -1.676206    2.972940    1.017299
     11          6           0       -5.339525    0.175446   -0.044385
     12          6           0       -5.729206   -1.239511   -0.473372
     13          6           0       -7.239720   -1.413597   -0.634112
     14          1           0       -5.840092    0.414457    0.904141
     15          1           0       -5.715938    0.893321   -0.785947
     16          1           0       -5.351656   -1.954116    0.269199
     17          1           0       -5.226960   -1.476294   -1.420102
     18          1           0       -7.628812   -0.723398   -1.389647
     19          1           0       -7.754217   -1.203934    0.309252
     20          1           0       -7.496005   -2.432362   -0.941188
     21          6           0        1.103863   -0.299322    0.431302
     22          6           0        1.584819    0.401921   -0.679310
     23          6           0        2.956364    0.457476   -0.944499
     24          6           0        3.822558   -0.202640   -0.074301
     25          6           0        3.374111   -0.909508    1.040384
     26          6           0        1.998467   -0.951649    1.286098
     27          1           0        0.036821   -0.337268    0.629744
     28          1           0        0.892381    0.909470   -1.344870
     29          1           0        3.355828    0.993119   -1.797102
     30          1           0        4.088850   -1.405528    1.685775
     31          1           0        1.627793   -1.497003    2.149368
     32          7           0        5.276721   -0.150928   -0.344737
     33          8           0        6.019171   -0.740873    0.437166
     34          8           0        5.646511    0.478570   -1.333486
 ---------------------------------------------------------------------

 SCF Done:  E(RHF) =  -669.534910406     A.U. after   15 cycles
 E2 =    -0.2091732316D+01 EUMP2 =    -0.67162664272269D+03

 The electronic state is 1-A.
 Alpha  occ. eigenvalues --  -20.60685 -20.60680 -15.85739 -11.31077 -11.27657
 Alpha  occ. eigenvalues --  -11.27653 -11.27305 -11.26647 -11.26637 -11.22635
 Alpha  occ. eigenvalues --  -11.22416 -11.22404 -11.22277 -11.22156 -11.21618
 Alpha  occ. eigenvalues --   -1.59761  -1.39316  -1.19249  -1.09338  -1.08640
 Alpha  occ. eigenvalues --   -1.04656  -1.04431  -0.96912  -0.95478  -0.87929
 Alpha  occ. eigenvalues --   -0.86049  -0.82324  -0.80514  -0.79129  -0.77377
 Alpha  occ. eigenvalues --   -0.71957  -0.71085  -0.70358  -0.65964  -0.64899
 Alpha  occ. eigenvalues --   -0.64678  -0.62043  -0.61800  -0.60279  -0.58518
 Alpha  occ. eigenvalues --   -0.56241  -0.55167  -0.53570  -0.53306  -0.52932
 Alpha  occ. eigenvalues --   -0.52743  -0.50848  -0.48801  -0.48713  -0.48705
 Alpha  occ. eigenvalues --   -0.47531  -0.46665  -0.46570  -0.44728  -0.44667
 Alpha  occ. eigenvalues --   -0.37199  -0.36264
 Alpha virt. eigenvalues --    0.05154   0.11363   0.16613   0.19714   0.22371
 Alpha virt. eigenvalues --    0.23868   0.24457   0.25963   0.26764   0.27273
 Alpha virt. eigenvalues --    0.29278   0.30135   0.30818   0.31595   0.31908

 Mulliken charges:
               1
     1  C   -0.299831
     2  C   -0.300134
     3  C   -0.479790
     4  H    0.146210
     5  H    0.147512
     6  H    0.156106
     7  H    0.155867
     8  H    0.148643
     9  H    0.151677
    10  H    0.168706
    11  C   -0.298589
    12  C   -0.300269
    13  C   -0.476229
    14  H    0.151614
    15  H    0.151936
    16  H    0.151734
    17  H    0.152324
    18  H    0.156354
    19  H    0.156187
    20  H    0.162094
    21  C   -0.171099
    22  C   -0.221603
    23  C   -0.171102
    24  C    0.158123
    25  C   -0.170752
    26  C   -0.220341
    27  H    0.231830
    28  H    0.223499
    29  H    0.275136
    30  H    0.275097
    31  H    0.222610
    32  N    0.488096
    33  O   -0.460803
    34  O   -0.460815
 Sum of Mulliken charges =  -0.00000

 Dipole moment (field-independent basis, Debye):
    X=             -5.4207    Y=             -0.1000    Z=              0.9776  Tot=              5.5091
 Quadrupole moment (field-independent basis, Debye-Ang):
   XX=           -134.6732   YY=            -93.4354   ZZ=            -90.9422
   XY=             -0.6640   XZ=              4.5863   YZ=             -3.0540

 Normal termination of Gaussian 16 at Wed May  5 20:06:07 2021.
