 Gaussian 16, Revision A.03,
 Gaussian 16:  EM64L-G16RevA.03 25-Dec-2016

 -------------
 #p 6-31g* mp2
 -------------

 ------------------------------------------------------
 Input file generated by CHIRIPA (05-May-2021 14:51:07)
 ------------------------------------------------------
 Symbolic Z-matrix:
 Charge =  0 Multiplicity = 1

                         Standard orientation:
 ---------------------------------------------------------------------
 Center     Atomic      Atomic             Coordinates (Angstroms)
 Number     Number       Type             X           Y           Z
 ---------------------------------------------------------------------
      1          6           0        3.019352   -0.047648    0.276229
      2          6           0        2.445201    1.215386    0.918943
      3          6           0        0.921167    1.178554    1.036245
      4          1           0        2.576484   -0.177890   -0.720691
      5          1           0        2.717333   -0.922114    0.869094
      6          1           0        2.749369    2.087338    0.325819
      7          1           0        2.889632    1.342740    1.914372
      8          1           0        0.602172    0.326853    1.645711
      9          1           0        0.461113    1.075682    0.048132
     10          1           0        0.531912    2.091127    1.498363
     11          6           0        4.541794   -0.025789    0.152050
     12          6           0        5.115946   -1.288823   -0.490664
     13          6           0        6.639979   -1.251991   -0.607966
     14          1           0        4.843814    0.848677   -0.440815
     15          1           0        4.984663    0.104453    1.148970
     16          1           0        4.671515   -1.416177   -1.486093
     17          1           0        4.811778   -2.160775    0.102460
     18          1           0        7.100034   -1.149119    0.380147
     19          1           0        6.958975   -0.400290   -1.217432
     20          1           0        7.029235   -2.164564   -1.070084
     21          6           0       -4.211524   -0.413858    0.227102
     22          6           0       -4.514409   -1.772243   -0.406172
     23          6           0       -5.377471   -2.662361    0.488595
     24          1           0       -3.705062   -0.569831    1.189450
     25          1           0       -5.157878    0.097592    0.451215
     26          1           0       -3.567744   -2.280391   -0.630291
     27          1           0       -5.020037   -1.613015   -1.367214
     28          1           0       -6.336487   -2.179425    0.702282
     29          1           0       -4.875943   -2.850593    1.443393
     30          1           0       -5.581835   -3.628390    0.016488
     31          6           0       -3.349624    0.487295   -0.655381
     32          6           0       -3.046738    1.845680   -0.022107
     33          6           0       -2.183676    2.735798   -0.916874
     34          1           0       -2.403268   -0.024154   -0.879494
     35          1           0       -3.856085    0.643267   -1.617729
     36          1           0       -2.541109    1.686452    0.938935
     37          1           0       -3.993402    2.353828    0.202012
     38          1           0       -2.685204    2.924030   -1.871672
     39          1           0       -1.224660    2.252862   -1.130561
     40          1           0       -1.979311    3.701827   -0.444767
 ---------------------------------------------------------------------

 SCF Done:  E(RHF) =  -470.733040201     A.U. after   11 cycles
 E2 =    -0.1582850467D+01 EUMP2 =    -0.47231589066790D+03

 The electronic state is 1-A.
 Alpha  occ. eigenvalues --  -11.21641 -11.21624 -11.21565 -11.21509 -11.21440
 Alpha  occ. eigenvalues --  -11.21379 -11.21350 -11.21290 -11.21116 -11.21088
 Alpha  occ. eigenvalues --  -11.21044 -11.20970  -1.08466  -1.08370  -1.03578
 Alpha  occ. eigenvalues --   -1.03458  -0.96042  -0.95899  -0.87054  -0.86922
 Alpha  occ. eigenvalues --   -0.79635  -0.79529  -0.78277  -0.78186  -0.65123
 Alpha  occ. eigenvalues --   -0.64982  -0.61104  -0.60760  -0.59397  -0.59273
 Alpha  occ. eigenvalues --   -0.57647  -0.57514  -0.55512  -0.55034  -0.52700
 Alpha  occ. eigenvalues --   -0.52610  -0.52471  -0.52316  -0.50133  -0.49690
 Alpha  occ. eigenvalues --   -0.47998  -0.47801  -0.46746  -0.46459  -0.45847
 Alpha  occ. eigenvalues --   -0.45753  -0.45698  -0.45598  -0.43812  -0.43727
 Alpha virt. eigenvalues --    0.21134   0.22976   0.23672   0.24912   0.26064
 Alpha virt. eigenvalues --    0.26453   0.27119   0.27642   0.27898   0.29204
 Alpha virt. eigenvalues --    0.29833   0.31149   0.31573   0.31929   0.32290

 Mulliken charges:
               1
     1  C   -0.298502
     2  C   -0.300307
     3  C   -0.479197
     4  H    0.149512
     5  H    0.149450
     6  H    0.152390
     7  H    0.152103
     8  H    0.154545
     9  H    0.158723
    10  H    0.161588
    11  C   -0.298314
    12  C   -0.299685
    13  C   -0.475732
    14  H    0.149698
    15  H    0.149747
    16  H    0.151986
    17  H    0.151909
    18  H    0.155211
    19  H    0.155263
    20  H    0.160328
    21  C   -0.298235
    22  C   -0.299649
    23  C   -0.475660
    24  H    0.149817
    25  H    0.149349
    26  H    0.151928
    27  H    0.151792
    28  H    0.155116
    29  H    0.155096
    30  H    0.160102
    31  C   -0.298841
    32  C   -0.301193
    33  C   -0.477761
    34  H    0.149703
    35  H    0.149245
    36  H    0.155079
    37  H    0.151411
    38  H    0.154134
    39  H    0.158364
    40  H    0.159487
 Sum of Mulliken charges =  -0.00000

 Dipole moment (field-independent basis, Debye):
    X=              0.0358    Y=              0.0041    Z=              0.0163  Tot=              0.0395
 Quadrupole moment (field-independent basis, Debye-Ang):
   XX=            -85.7344   YY=            -85.0987   ZZ=            -84.0611
   XY=             -0.6608   XZ=              0.8930   YZ=             -0.1480

 Normal termination of Gaussian 16 at Thu May  6 08:23:34 2021.
