 Gaussian 16, Revision A.03,
 Gaussian 16:  EM64L-G16RevA.03 25-Dec-2016

 -------------
 #p 6-31g* mp2
 -------------

 ------------------------------------------------------
 Input file generated by CHIRIPA (05-May-2021 14:57:26)
 ------------------------------------------------------
 Symbolic Z-matrix:
 Charge =  0 Multiplicity = 1

                         Standard orientation:
 ---------------------------------------------------------------------
 Center     Atomic      Atomic             Coordinates (Angstroms)
 Number     Number       Type             X           Y           Z
 ---------------------------------------------------------------------
      1          6           0        1.992695   -2.090041   -0.222363
      2          6           0        2.933818   -1.755465   -1.201581
      3          6           0        3.745121   -0.626971   -1.050469
      4          6           0        3.587929    0.148081    0.097518
      5          6           0        2.659352   -0.159124    1.090825
      6          6           0        1.858702   -1.292209    0.918703
      7          1           0        1.366592   -2.968466   -0.347911
      8          1           0        3.040069   -2.373236   -2.088776
      9          1           0        4.481725   -0.344888   -1.792940
     10          1           0        2.576523    0.476043    1.964392
     11          1           0        1.128654   -1.549627    1.680812
     12          7           0        4.441181    1.345198    0.268614
     13          8           0        4.283202    2.011690    1.289137
     14          8           0        5.251782    1.594338   -0.621044
     15          6           0       -4.796369    2.168476   -0.303173
     16          6           0       -5.348859    1.053977    0.336489
     17          6           0       -4.610545   -0.125490    0.471759
     18          6           0       -3.316880   -0.155664   -0.046711
     19          6           0       -2.738632    0.938014   -0.689195
     20          6           0       -3.495313    2.107046   -0.813074
     21          1           0       -5.377043    3.080661   -0.403830
     22          1           0       -6.359035    1.098814    0.733450
     23          1           0       -5.013743   -1.003057    0.962400
     24          1           0       -1.729094    0.863077   -1.074729
     25          1           0       -3.063672    2.971034   -1.310323
     26          7           0       -2.525538   -1.398790    0.090464
     27          8           0       -1.387966   -1.399842   -0.374901
     28          8           0       -3.057841   -2.348561    0.660750
 ---------------------------------------------------------------------

 SCF Done:  E(RHF) =  -868.340162743     A.U. after   16 cycles
 E2 =    -0.2599122760D+01 EUMP2 =    -0.87093928550275D+03

 The electronic state is 1-A.
 Alpha  occ. eigenvalues --  -20.61677 -20.61666 -20.60159 -20.60153 -15.86684
 Alpha  occ. eigenvalues --  -15.85204 -11.31743 -11.30273 -11.28281 -11.28255
 Alpha  occ. eigenvalues --  -11.27955 -11.27223 -11.27194 -11.26856 -11.26798
 Alpha  occ. eigenvalues --  -11.26298 -11.25731 -11.25606  -1.60747  -1.59244
 Alpha  occ. eigenvalues --   -1.40304  -1.38806  -1.19888  -1.18402  -1.09344
 Alpha  occ. eigenvalues --   -1.07795  -1.05238  -1.03774  -0.96231  -0.94690
 Alpha  occ. eigenvalues --   -0.86651  -0.85151  -0.83068  -0.81557  -0.78148
 Alpha  occ. eigenvalues --   -0.76685  -0.72943  -0.72050  -0.71425  -0.70985
 Alpha  occ. eigenvalues --   -0.70571  -0.69386  -0.65541  -0.65234  -0.64025
 Alpha  occ. eigenvalues --   -0.63736  -0.62584  -0.61143  -0.55750  -0.54117
 Alpha  occ. eigenvalues --   -0.53591  -0.53321  -0.52104  -0.51844  -0.49699
 Alpha  occ. eigenvalues --   -0.49658  -0.48200  -0.48153  -0.45771  -0.44280
 Alpha  occ. eigenvalues --   -0.37853  -0.36829  -0.36235  -0.35388
 Alpha virt. eigenvalues --    0.04335   0.05856   0.10830   0.12291   0.15923
 Alpha virt. eigenvalues --    0.17466   0.21025   0.22558   0.26961   0.27883
 Alpha virt. eigenvalues --    0.28304   0.29517   0.30628   0.32085   0.32207

 Mulliken charges:
               1
     1  C   -0.158474
     2  C   -0.222730
     3  C   -0.173439
     4  C    0.155778
     5  C   -0.176855
     6  C   -0.212403
     7  H    0.237001
     8  H    0.220404
     9  H    0.271246
    10  H    0.270613
    11  H    0.226651
    12  N    0.488158
    13  O   -0.464260
    14  O   -0.463836
    15  C   -0.169670
    16  C   -0.218657
    17  C   -0.170721
    18  C    0.156447
    19  C   -0.171100
    20  C   -0.218538
    21  H    0.228140
    22  H    0.225122
    23  H    0.275619
    24  H    0.277543
    25  H    0.226876
    26  N    0.490154
    27  O   -0.468926
    28  O   -0.460143
 Sum of Mulliken charges =  -0.00000

 Dipole moment (field-independent basis, Debye):
    X=             -6.3223    Y=              0.0252    Z=             -1.1048  Tot=              6.4181
 Quadrupole moment (field-independent basis, Debye-Ang):
   XX=           -105.7912   YY=           -106.9657   ZZ=           -100.9621
   XY=            -29.4226   XZ=             -5.0150   YZ=             -1.0577

 Normal termination of Gaussian 16 at Fri May  7 05:06:24 2021.
