 Gaussian 16, Revision A.03,
 Gaussian 16:  EM64L-G16RevA.03 25-Dec-2016

 -------------
 #p 6-31g* mp2
 -------------

 ------------------------------------------------------
 Input file generated by CHIRIPA (05-May-2021 14:55:20)
 ------------------------------------------------------
 Symbolic Z-matrix:
 Charge =  0 Multiplicity = 1

                         Standard orientation:
 ---------------------------------------------------------------------
 Center     Atomic      Atomic             Coordinates (Angstroms)
 Number     Number       Type             X           Y           Z
 ---------------------------------------------------------------------
      1          6           0       -4.957720    2.109113    0.178616
      2          6           0       -5.340824    1.136711   -0.751001
      3          6           0       -4.584038   -0.027530   -0.913379
      4          6           0       -3.444826   -0.187541   -0.126052
      5          6           0       -3.037184    0.763008    0.808599
      6          6           0       -3.809148    1.919492    0.954082
      7          1           0       -5.551505    3.010510    0.298193
      8          1           0       -6.232344    1.281298   -1.354598
      9          1           0       -4.857729   -0.796459   -1.625600
     10          1           0       -2.143463    0.590700    1.395958
     11          1           0       -3.509225    2.672982    1.676816
     12          7           0       -2.635617   -1.415965   -0.289011
     13          8           0       -1.636199   -1.533147    0.416729
     14          8           0       -3.016099   -2.238361   -1.119394
     15          6           0        4.983075    0.605646   -0.048340
     16          6           0        6.384491    0.295173   -0.575243
     17          6           0        7.178401    1.555153   -0.921584
     18          1           0        4.436337    1.189898   -0.801116
     19          1           0        5.066813    1.243765    0.842272
     20          1           0        6.298186   -0.343308   -1.463786
     21          1           0        6.927889   -0.288572    0.178797
     22          1           0        7.294053    2.192398   -0.038893
     23          1           0        6.660771    2.137351   -1.690809
     24          1           0        8.177097    1.310058   -1.296278
     25          6           0        4.177101   -0.643835    0.302277
     26          6           0        2.775685   -0.333362    0.829180
     27          6           0        1.981775   -1.593342    1.175522
     28          1           0        4.093364   -1.281954   -0.588334
     29          1           0        4.723838   -1.228088    1.055054
     30          1           0        2.232288    0.250383    0.075140
     31          1           0        2.861990    0.305119    1.717723
     32          1           0        2.499405   -2.175540    1.944746
     33          1           0        1.866124   -2.230587    0.292831
     34          1           0        0.983079   -1.348247    1.550216
 ---------------------------------------------------------------------

 SCF Done:  E(RHF) =  -669.535763931     A.U. after   15 cycles
 E2 =    -0.2090723228D+01 EUMP2 =    -0.67162648715924D+03

 The electronic state is 1-A.
 Alpha  occ. eigenvalues --  -20.60866 -20.60861 -15.85913 -11.31258 -11.27828
 Alpha  occ. eigenvalues --  -11.27822 -11.27567 -11.26840 -11.26830 -11.21228
 Alpha  occ. eigenvalues --  -11.20931 -11.20817 -11.20788 -11.20731 -11.19774
 Alpha  occ. eigenvalues --   -1.59935  -1.39491  -1.19430  -1.08829  -1.07860
 Alpha  occ. eigenvalues --   -1.04831  -1.02880  -0.95672  -0.95292  -0.86306
 Alpha  occ. eigenvalues --   -0.86229  -0.82502  -0.78968  -0.77668  -0.77549
 Alpha  occ. eigenvalues --   -0.72141  -0.71254  -0.70540  -0.65087  -0.64834
 Alpha  occ. eigenvalues --   -0.64498  -0.62180  -0.60282  -0.58698  -0.56903
 Alpha  occ. eigenvalues --   -0.55334  -0.54588  -0.53161  -0.52924  -0.51937
 Alpha  occ. eigenvalues --   -0.51724  -0.49257  -0.48888  -0.48871  -0.47266
 Alpha  occ. eigenvalues --   -0.46026  -0.45200  -0.45129  -0.44893  -0.43109
 Alpha  occ. eigenvalues --   -0.37411  -0.36434
 Alpha virt. eigenvalues --    0.04981   0.11220   0.16472   0.21231   0.23384
 Alpha virt. eigenvalues --    0.24818   0.27046   0.27187   0.27717   0.28077
 Alpha virt. eigenvalues --    0.29004   0.30644   0.31827   0.32051   0.32316

 Mulliken charges:
               1
     1  C   -0.170718
     2  C   -0.218534
     3  C   -0.170916
     4  C    0.157816
     5  C   -0.170504
     6  C   -0.218537
     7  H    0.225871
     8  H    0.223690
     9  H    0.275782
    10  H    0.275332
    11  H    0.223805
    12  N    0.494186
    13  O   -0.465588
    14  O   -0.459669
    15  C   -0.297499
    16  C   -0.299238
    17  C   -0.475321
    18  H    0.148201
    19  H    0.147306
    20  H    0.152207
    21  H    0.151535
    22  H    0.154054
    23  H    0.154332
    24  H    0.159327
    25  C   -0.297607
    26  C   -0.300248
    27  C   -0.477019
    28  H    0.150546
    29  H    0.148446
    30  H    0.149783
    31  H    0.145396
    32  H    0.147807
    33  H    0.160846
    34  H    0.175131
 Sum of Mulliken charges =  -0.00000

 Dipole moment (field-independent basis, Debye):
    X=             -3.0992    Y=              4.2499    Z=              0.5466  Tot=              5.2882
 Quadrupole moment (field-independent basis, Debye-Ang):
   XX=            -74.7651   YY=            -97.0952   ZZ=            -92.1540
   XY=            -14.2502   XZ=              1.4222   YZ=              1.0304

 Normal termination of Gaussian 16 at Thu May  6 19:04:13 2021.
