 Gaussian 16, Revision A.03,
 Gaussian 16:  EM64L-G16RevA.03 25-Dec-2016

 -------------
 #p 6-31g* mp2
 -------------

 ------------------------------------------------------
 Input file generated by CHIRIPA (05-May-2021 14:53:12)
 ------------------------------------------------------
 Symbolic Z-matrix:
 Charge =  0 Multiplicity = 1

                         Standard orientation:
 ---------------------------------------------------------------------
 Center     Atomic      Atomic             Coordinates (Angstroms)
 Number     Number       Type             X           Y           Z
 ---------------------------------------------------------------------
      1          6           0        3.395497    0.921743    0.432618
      2          6           0        3.148621    2.082514   -0.531563
      3          6           0        2.365245    3.227903    0.110467
      4          1           0        2.430343    0.547035    0.800064
      5          1           0        3.941321    1.293471    1.310850
      6          1           0        2.604638    1.708432   -1.408353
      7          1           0        4.114467    2.454378   -0.896904
      8          1           0        2.906550    3.628531    0.973651
      9          1           0        1.388142    2.878348    0.459296
     10          1           0        2.199998    4.047008   -0.596371
     11          6           0        4.177490   -0.230979   -0.194636
     12          6           0        4.424367   -1.391751    0.769546
     13          6           0        5.207742   -2.537140    0.127516
     14          1           0        3.631667   -0.602708   -1.072867
     15          1           0        5.142645    0.143729   -0.562081
     16          1           0        3.458520   -1.763614    1.134886
     17          1           0        4.968350   -1.017669    1.646336
     18          1           0        6.184846   -2.187584   -0.221313
     19          1           0        4.666437   -2.937768   -0.735668
     20          1           0        5.372990   -3.356245    0.834354
     21          6           0       -0.532974   -0.674868   -0.658784
     22          6           0       -0.990040    0.626855   -0.428286
     23          6           0       -2.331682    0.863066   -0.114044
     24          6           0       -3.192660   -0.230672   -0.038260
     25          6           0       -2.767531   -1.539204   -0.262536
     26          6           0       -1.421611   -1.751844   -0.575320
     27          1           0        0.510907   -0.849207   -0.902329
     28          1           0       -0.302168    1.465166   -0.492423
     29          1           0       -2.712224    1.860588    0.069144
     30          1           0       -3.477009   -2.354680   -0.191414
     31          1           0       -1.069447   -2.763852   -0.753831
     32          7           0       -4.615261    0.006918    0.293642
     33          8           0       -5.353713   -0.973716    0.354340
     34          8           0       -4.964905    1.169275    0.486805
 ---------------------------------------------------------------------

 SCF Done:  E(RHF) =  -669.535439064     A.U. after   15 cycles
 E2 =    -0.2092147699D+01 EUMP2 =    -0.67162758676277D+03

 The electronic state is 1-A.
 Alpha  occ. eigenvalues --  -20.60760 -20.60755 -15.85813 -11.31189 -11.27759
 Alpha  occ. eigenvalues --  -11.27750 -11.27501 -11.26776 -11.26744 -11.22752
 Alpha  occ. eigenvalues --  -11.22507 -11.22475 -11.22407 -11.22204 -11.21852
 Alpha  occ. eigenvalues --   -1.59835  -1.39388  -1.19361  -1.09495  -1.08754
 Alpha  occ. eigenvalues --   -1.04769  -1.04543  -0.96990  -0.95588  -0.88000
 Alpha  occ. eigenvalues --   -0.86165  -0.82420  -0.80599  -0.79281  -0.77468
 Alpha  occ. eigenvalues --   -0.72032  -0.71158  -0.70484  -0.66209  -0.65010
 Alpha  occ. eigenvalues --   -0.64756  -0.62286  -0.61768  -0.60343  -0.58579
 Alpha  occ. eigenvalues --   -0.56365  -0.55213  -0.53652  -0.53408  -0.53093
 Alpha  occ. eigenvalues --   -0.52834  -0.50931  -0.48910  -0.48786  -0.48776
 Alpha  occ. eigenvalues --   -0.47656  -0.46806  -0.46769  -0.44798  -0.44791
 Alpha  occ. eigenvalues --   -0.37338  -0.36364
 Alpha virt. eigenvalues --    0.05055   0.11203   0.16496   0.17607   0.22028
 Alpha virt. eigenvalues --    0.23704   0.24935   0.25742   0.26603   0.28315
 Alpha virt. eigenvalues --    0.29643   0.30645   0.30933   0.31442   0.32261

 Mulliken charges:
               1
     1  C   -0.302256
     2  C   -0.302592
     3  C   -0.480019
     4  H    0.146906
     5  H    0.155400
     6  H    0.146257
     7  H    0.158249
     8  H    0.162179
     9  H    0.149429
    10  H    0.164563
    11  C   -0.299591
    12  C   -0.300383
    13  C   -0.475925
    14  H    0.143531
    15  H    0.154317
    16  H    0.149956
    17  H    0.155790
    18  H    0.157710
    19  H    0.153221
    20  H    0.163204
    21  C   -0.175680
    22  C   -0.226583
    23  C   -0.172468
    24  C    0.158831
    25  C   -0.170852
    26  C   -0.218903
    27  H    0.228851
    28  H    0.234379
    29  H    0.276048
    30  H    0.275632
    31  H    0.223494
    32  N    0.488045
    33  O   -0.460471
    34  O   -0.460267
 Sum of Mulliken charges =  -0.00000

 Dipole moment (field-independent basis, Debye):
    X=              5.2597    Y=             -0.7775    Z=             -1.1002  Tot=              5.4295
 Quadrupole moment (field-independent basis, Debye-Ang):
   XX=           -125.5374   YY=            -89.7293   ZZ=            -95.5494
   XY=              3.6829   XZ=              4.3300   YZ=              0.5193

 Normal termination of Gaussian 16 at Wed May  5 20:06:56 2021.
