 Gaussian 16, Revision A.03,
 Gaussian 16:  EM64L-G16RevA.03 25-Dec-2016

 -------------
 #p 6-31g* mp2
 -------------

 ------------------------------------------------------
 Input file generated by CHIRIPA (05-May-2021 14:55:20)
 ------------------------------------------------------
 Symbolic Z-matrix:
 Charge =  0 Multiplicity = 1

                         Standard orientation:
 ---------------------------------------------------------------------
 Center     Atomic      Atomic             Coordinates (Angstroms)
 Number     Number       Type             X           Y           Z
 ---------------------------------------------------------------------
      1          6           0       -1.723578    2.566396    0.510929
      2          6           0       -3.119336    2.483134    0.549006
      3          6           0       -3.768829    1.290750    0.215948
      4          6           0       -2.987990    0.196235   -0.152315
      5          6           0       -1.595737    0.247826   -0.199863
      6          6           0       -0.967567    1.450443    0.137274
      7          1           0       -1.227318    3.496643    0.771240
      8          1           0       -3.709017    3.348194    0.838819
      9          1           0       -4.847943    1.198617    0.236947
     10          1           0       -1.034817   -0.631404   -0.492678
     11          1           0        0.116547    1.512204    0.106814
     12          7           0       -3.664293   -1.071505   -0.507068
     13          8           0       -2.953660   -2.021510   -0.828203
     14          8           0       -4.892206   -1.091150   -0.457270
     15          6           0        3.169791   -1.061693   -0.041724
     16          6           0        2.375791   -1.529376    1.178448
     17          6           0        1.355188   -2.615968    0.838626
     18          1           0        2.472454   -0.686502   -0.803236
     19          1           0        3.685233   -1.923674   -0.487486
     20          1           0        1.863111   -0.666525    1.622590
     21          1           0        3.075111   -1.903319    1.937219
     22          1           0        1.853825   -3.494227    0.415987
     23          1           0        0.634936   -2.250406    0.099571
     24          1           0        0.798834   -2.935612    1.725283
     25          6           0        4.194118    0.024447    0.281975
     26          6           0        4.988118    0.492130   -0.938199
     27          6           0        6.008723    1.578722   -0.598377
     28          1           0        3.678677    0.886428    0.727736
     29          1           0        4.891455   -0.350744    1.043485
     30          1           0        4.288798    0.866073   -1.696970
     31          1           0        5.500800   -0.370721   -1.382340
     32          1           0        6.728974    1.213159    0.140678
     33          1           0        5.510086    2.456981   -0.175738
     34          1           0        6.565076    1.898366   -1.485033
 ---------------------------------------------------------------------

 SCF Done:  E(RHF) =  -669.535372478     A.U. after   15 cycles
 E2 =    -0.2091703722D+01 EUMP2 =    -0.67162707620027D+03

 The electronic state is 1-A.
 Alpha  occ. eigenvalues --  -20.60758 -20.60752 -15.85810 -11.31185 -11.27763
 Alpha  occ. eigenvalues --  -11.27753 -11.27513 -11.26785 -11.26775 -11.22125
 Alpha  occ. eigenvalues --  -11.22114 -11.22005 -11.21947 -11.21535 -11.21397
 Alpha  occ. eigenvalues --   -1.59832  -1.39385  -1.19365  -1.08993  -1.08758
 Alpha  occ. eigenvalues --   -1.04774  -1.04020  -0.96456  -0.95590  -0.87463
 Alpha  occ. eigenvalues --   -0.86170  -0.82423  -0.80073  -0.78804  -0.77471
 Alpha  occ. eigenvalues --   -0.72030  -0.71154  -0.70487  -0.65658  -0.65017
 Alpha  occ. eigenvalues --   -0.64787  -0.62210  -0.61348  -0.59813  -0.58058
 Alpha  occ. eigenvalues --   -0.55787  -0.55258  -0.53112  -0.53090  -0.52969
 Alpha  occ. eigenvalues --   -0.52767  -0.50387  -0.48790  -0.48784  -0.48377
 Alpha  occ. eigenvalues --   -0.47127  -0.46329  -0.46293  -0.44787  -0.44282
 Alpha  occ. eigenvalues --   -0.37347  -0.36371
 Alpha virt. eigenvalues --    0.05055   0.11264   0.16509   0.18372   0.22709
 Alpha virt. eigenvalues --    0.23597   0.25338   0.25573   0.27167   0.28465
 Alpha virt. eigenvalues --    0.29125   0.30959   0.31360   0.31529   0.32117

 Mulliken charges:
               1
     1  C   -0.170592
     2  C   -0.218826
     3  C   -0.170115
     4  C    0.157905
     5  C   -0.176851
     6  C   -0.223606
     7  H    0.225656
     8  H    0.223491
     9  H    0.275718
    10  H    0.285894
    11  H    0.224954
    12  N    0.486989
    13  O   -0.460541
    14  O   -0.460392
    15  C   -0.298600
    16  C   -0.302739
    17  C   -0.478323
    18  H    0.142983
    19  H    0.154521
    20  H    0.146431
    21  H    0.155496
    22  H    0.160037
    23  H    0.154284
    24  H    0.166005
    25  C   -0.297745
    26  C   -0.299861
    27  C   -0.475687
    28  H    0.143516
    29  H    0.152757
    30  H    0.150510
    31  H    0.154763
    32  H    0.156713
    33  H    0.153224
    34  H    0.162032
 Sum of Mulliken charges =  -0.00000

 Dipole moment (field-independent basis, Debye):
    X=              2.4890    Y=              4.3350    Z=              1.2788  Tot=              5.1597
 Quadrupole moment (field-independent basis, Debye-Ang):
   XX=           -104.6465   YY=            -92.2545   ZZ=            -95.8178
   XY=            -16.6409   XZ=             -4.9689   YZ=             -0.3020

 Normal termination of Gaussian 16 at Thu May  6 01:20:56 2021.
