 Gaussian 16, Revision A.03,
 Gaussian 16:  EM64L-G16RevA.03 25-Dec-2016

 -------------
 #p 6-31g* mp2
 -------------

 ------------------------------------------------------
 Input file generated by CHIRIPA (05-May-2021 14:53:12)
 ------------------------------------------------------
 Symbolic Z-matrix:
 Charge =  0 Multiplicity = 1

                         Standard orientation:
 ---------------------------------------------------------------------
 Center     Atomic      Atomic             Coordinates (Angstroms)
 Number     Number       Type             X           Y           Z
 ---------------------------------------------------------------------
      1          6           0       -3.141006    1.005693   -0.131287
      2          6           0       -1.890114    1.267009   -0.970911
      3          6           0       -1.088482    2.472132   -0.478104
      4          1           0       -3.777245    1.901225   -0.144258
      5          1           0       -2.845310    0.847480    0.915101
      6          1           0       -2.187959    1.423311   -2.015648
      7          1           0       -1.256869    0.370684   -0.956097
      8          1           0       -0.763089    2.321448    0.556311
      9          1           0       -1.699468    3.380056   -0.509260
     10          1           0       -0.198599    2.640802   -1.092529
     11          6           0       -3.952898   -0.195918   -0.611589
     12          6           0       -5.203790   -0.457233    0.228036
     13          6           0       -6.005421   -1.662356   -0.264771
     14          1           0       -4.248593   -0.037705   -1.657977
     15          1           0       -3.316658   -1.091449   -0.598617
     16          1           0       -5.837034    0.439092    0.213221
     17          1           0       -4.905945   -0.613535    1.272772
     18          1           0       -5.394435   -2.570280   -0.233615
     19          1           0       -6.330815   -1.511672   -1.299187
     20          1           0       -6.895305   -1.831026    0.349653
     21          6           0        4.743528   -0.456284   -1.276877
     22          6           0        4.490304    0.726355   -0.574194
     23          6           0        3.400301    0.815242    0.296748
     24          6           0        2.580364   -0.302787    0.441683
     25          6           0        2.806440   -1.495040   -0.244401
     26          6           0        3.902271   -1.561259   -1.110033
     27          1           0        5.592532   -0.516529   -1.951384
     28          1           0        5.141949    1.586076   -0.701799
     29          1           0        3.181130    1.718483    0.853109
     30          1           0        2.139081   -2.335373   -0.096445
     31          1           0        4.096502   -2.481003   -1.654451
     32          7           0        1.423342   -0.220686    1.360900
     33          8           0        0.715977   -1.219753    1.471067
     34          8           0        1.245742    0.841178    1.953809
 ---------------------------------------------------------------------

 SCF Done:  E(RHF) =  -669.536550793     A.U. after   15 cycles
 E2 =    -0.2091632180D+01 EUMP2 =    -0.67162818297347D+03

 The electronic state is 1-A.
 Alpha  occ. eigenvalues --  -20.60994 -20.60986 -15.86011 -11.31296 -11.27856
 Alpha  occ. eigenvalues --  -11.27848 -11.27589 -11.26856 -11.26845 -11.20886
 Alpha  occ. eigenvalues --  -11.20768 -11.20587 -11.20487 -11.20433 -11.20078
 Alpha  occ. eigenvalues --   -1.60044  -1.39602  -1.19460  -1.08873  -1.07599
 Alpha  occ. eigenvalues --   -1.04851  -1.02741  -0.95722  -0.95182  -0.86253
 Alpha  occ. eigenvalues --   -0.86202  -0.82556  -0.78814  -0.77613  -0.77410
 Alpha  occ. eigenvalues --   -0.72238  -0.71361  -0.70570  -0.65117  -0.64856
 Alpha  occ. eigenvalues --   -0.64206  -0.62199  -0.60117  -0.58578  -0.56810
 Alpha  occ. eigenvalues --   -0.55360  -0.54443  -0.53183  -0.52944  -0.51918
 Alpha  occ. eigenvalues --   -0.51610  -0.49140  -0.49001  -0.48969  -0.47132
 Alpha  occ. eigenvalues --   -0.45921  -0.45041  -0.44963  -0.44668  -0.42994
 Alpha  occ. eigenvalues --   -0.37435  -0.36449
 Alpha virt. eigenvalues --    0.04882   0.11196   0.16350   0.21318   0.23656
 Alpha virt. eigenvalues --    0.24960   0.27242   0.27415   0.28200   0.28343
 Alpha virt. eigenvalues --    0.28840   0.30916   0.32192   0.32252   0.32670

 Mulliken charges:
               1
     1  C   -0.299372
     2  C   -0.297896
     3  C   -0.486640
     4  H    0.145872
     5  H    0.161029
     6  H    0.145994
     7  H    0.150704
     8  H    0.178681
     9  H    0.150636
    10  H    0.149915
    11  C   -0.298337
    12  C   -0.299680
    13  C   -0.475366
    14  H    0.145110
    15  H    0.152499
    16  H    0.149823
    17  H    0.155368
    18  H    0.155249
    19  H    0.152798
    20  H    0.158565
    21  C   -0.170451
    22  C   -0.218678
    23  C   -0.170368
    24  C    0.158577
    25  C   -0.170863
    26  C   -0.218537
    27  H    0.226044
    28  H    0.223944
    29  H    0.276332
    30  H    0.275638
    31  H    0.223845
    32  N    0.488791
    33  O   -0.460134
    34  O   -0.459095
 Sum of Mulliken charges =  -0.00000

 Dipole moment (field-independent basis, Debye):
    X=              4.2753    Y=             -0.3566    Z=             -3.0349  Tot=              5.2551
 Quadrupole moment (field-independent basis, Debye-Ang):
   XX=            -74.7009   YY=            -90.8102   ZZ=            -97.9664
   XY=             -1.5168   XZ=             -6.7884   YZ=              1.8550

 Normal termination of Gaussian 16 at Wed May  5 20:06:50 2021.
