 Gaussian 16, Revision A.03,
 Gaussian 16:  EM64L-G16RevA.03 25-Dec-2016

 -------------
 #p 6-31g* mp2
 -------------

 ------------------------------------------------------
 Input file generated by CHIRIPA (05-May-2021 14:57:23)
 ------------------------------------------------------
 Symbolic Z-matrix:
 Charge =  0 Multiplicity = 1

                         Standard orientation:
 ---------------------------------------------------------------------
 Center     Atomic      Atomic             Coordinates (Angstroms)
 Number     Number       Type             X           Y           Z
 ---------------------------------------------------------------------
      1          6           0        3.692572    2.663804   -0.364279
      2          6           0        2.637298    2.014579   -1.013452
      3          6           0        2.451171    0.637145   -0.863188
      4          6           0        3.343142   -0.063290   -0.052591
      5          6           0        4.404083    0.554979    0.607288
      6          6           0        4.571047    1.933219    0.442596
      7          1           0        3.829717    3.734141   -0.486611
      8          1           0        1.953515    2.579420   -1.640700
      9          1           0        1.642635    0.109328   -1.354204
     10          1           0        5.069412   -0.034849    1.226043
     11          1           0        5.391470    2.434773    0.947963
     12          7           0        3.156241   -1.521945    0.114124
     13          8           0        3.955830   -2.116431    0.833763
     14          8           0        2.213698   -2.043133   -0.478002
     15          6           0       -1.627367   -1.971689   -0.227975
     16          6           0       -1.759272   -1.327848    1.006769
     17          6           0       -2.723531   -0.332055    1.188838
     18          6           0       -3.542798   -0.003621    0.109847
     19          6           0       -3.435848   -0.626859   -1.132500
     20          6           0       -2.464600   -1.619760   -1.291793
     21          1           0       -0.875593   -2.744121   -0.360564
     22          1           0       -1.110444   -1.599107    1.834709
     23          1           0       -2.847238    0.182477    2.134023
     24          1           0       -4.097142   -0.334817   -1.939234
     25          1           0       -2.364424   -2.118088   -2.251833
     26          7           0       -4.567315    1.049050    0.290540
     27          8           0       -5.276842    1.320132   -0.675753
     28          8           0       -4.641406    1.583118    1.395040
 ---------------------------------------------------------------------

 SCF Done:  E(RHF) =  -868.340250432     A.U. after   16 cycles
 E2 =    -0.2598529849D+01 EUMP2 =    -0.87093878028099D+03

 The electronic state is 1-A.
 Alpha  occ. eigenvalues --  -20.61647 -20.61586 -20.60598 -20.60592 -15.86657
 Alpha  occ. eigenvalues --  -15.85648 -11.31738 -11.30863 -11.28271 -11.28268
 Alpha  occ. eigenvalues --  -11.27947 -11.27448 -11.27423 -11.27217 -11.27200
 Alpha  occ. eigenvalues --  -11.26928 -11.26346 -11.26295  -1.60688  -1.59680
 Alpha  occ. eigenvalues --   -1.40250  -1.39237  -1.19882  -1.19013  -1.09327
 Alpha  occ. eigenvalues --   -1.08386  -1.05239  -1.04400  -0.96210  -0.95248
 Alpha  occ. eigenvalues --   -0.86650  -0.85772  -0.83056  -0.82097  -0.78135
 Alpha  occ. eigenvalues --   -0.77209  -0.72899  -0.72001  -0.71863  -0.71008
 Alpha  occ. eigenvalues --   -0.70980  -0.69967  -0.65536  -0.65232  -0.64634
 Alpha  occ. eigenvalues --   -0.64365  -0.62589  -0.61753  -0.55740  -0.54712
 Alpha  occ. eigenvalues --   -0.53587  -0.53325  -0.52739  -0.52460  -0.49650
 Alpha  occ. eigenvalues --   -0.49607  -0.48631  -0.48607  -0.45717  -0.44677
 Alpha  occ. eigenvalues --   -0.37844  -0.36924  -0.36825  -0.36042
 Alpha virt. eigenvalues --    0.04354   0.05337   0.10822   0.11637   0.15901
 Alpha virt. eigenvalues --    0.16873   0.20992   0.22030   0.26926   0.27740
 Alpha virt. eigenvalues --    0.27767   0.29055   0.30610   0.31602   0.32153

 Mulliken charges:
               1
     1  C   -0.169739
     2  C   -0.218396
     3  C   -0.170502
     4  C    0.156734
     5  C   -0.170923
     6  C   -0.218596
     7  H    0.228461
     8  H    0.226677
     9  H    0.274358
    10  H    0.275955
    11  H    0.225342
    12  N    0.489819
    13  O   -0.456983
    14  O   -0.471473
    15  C   -0.172524
    16  C   -0.222364
    17  C   -0.172818
    18  C    0.156318
    19  C   -0.172924
    20  C   -0.223512
    21  H    0.246080
    22  H    0.226719
    23  H    0.273650
    24  H    0.273330
    25  H    0.223562
    26  N    0.488101
    27  O   -0.462326
    28  O   -0.462024
 Sum of Mulliken charges =  -0.00000

 Dipole moment (field-independent basis, Debye):
    X=              4.6043    Y=              1.4081    Z=             -1.2037  Tot=              4.9630
 Quadrupole moment (field-independent basis, Debye-Ang):
   XX=           -123.7778   YY=           -106.0597   ZZ=            -99.2460
   XY=             31.1912   XZ=              5.1145   YZ=             -0.2416

 Normal termination of Gaussian 16 at Fri May  7 01:48:39 2021.
