 Gaussian 16, Revision A.03,
 Gaussian 16:  EM64L-G16RevA.03 25-Dec-2016

 -------------
 #p 6-31g* mp2
 -------------

 ------------------------------------------------------
 Input file generated by CHIRIPA (05-May-2021 14:51:14)
 ------------------------------------------------------
 Symbolic Z-matrix:
 Charge =  0 Multiplicity = 1

                         Standard orientation:
 ---------------------------------------------------------------------
 Center     Atomic      Atomic             Coordinates (Angstroms)
 Number     Number       Type             X           Y           Z
 ---------------------------------------------------------------------
      1          6           0        3.229339   -0.814483   -0.206536
      2          6           0        1.729919   -0.680526    0.061383
      3          6           0        0.952338   -1.951714   -0.281025
      4          1           0        3.385191   -1.067674   -1.264151
      5          1           0        3.625413   -1.656365    0.378061
      6          1           0        1.337058    0.161720   -0.522481
      7          1           0        1.577627   -0.427436    1.118440
      8          1           0        1.316632   -2.797422    0.311147
      9          1           0        1.074697   -2.204919   -1.339098
     10          1           0       -0.117392   -1.833885   -0.081892
     11          6           0        4.020218    0.448210    0.130873
     12          6           0        5.519638    0.314254   -0.137046
     13          6           0        6.297219    1.585442    0.205363
     14          1           0        3.624143    1.290093   -0.453723
     15          1           0        3.864365    0.701402    1.188488
     16          1           0        5.671929    0.061164   -1.194102
     17          1           0        5.912498   -0.527992    0.446819
     18          1           0        6.174859    1.838647    1.263435
     19          1           0        5.932924    2.431150   -0.386810
     20          1           0        7.366948    1.467613    0.006229
     21          6           0       -3.814767    0.810504   -0.354273
     22          6           0       -3.795466    2.083686    0.492262
     23          6           0       -4.177754    3.330327   -0.306198
     24          1           0       -3.125744    0.930623   -1.201482
     25          1           0       -4.817767    0.678971   -0.783325
     26          1           0       -2.793183    2.212039    0.920713
     27          1           0       -4.484472    1.960449    1.337662
     28          1           0       -5.185753    3.228022   -0.721013
     29          1           0       -3.484855    3.481039   -1.140331
     30          1           0       -4.157471    4.228915    0.318292
     31          6           0       -3.434789   -0.444232    0.429935
     32          6           0       -3.454090   -1.717414   -0.416599
     33          6           0       -3.071802   -2.964054    0.381860
     34          1           0       -2.431790   -0.312698    0.858988
     35          1           0       -4.123811   -0.564351    1.277144
     36          1           0       -2.765084   -1.594177   -1.261999
     37          1           0       -4.456373   -1.845766   -0.845050
     38          1           0       -3.764701   -3.114768    1.215994
     39          1           0       -2.063803   -2.861749    0.796675
     40          1           0       -3.092086   -3.862644   -0.242629
 ---------------------------------------------------------------------

 SCF Done:  E(RHF) =  -470.733137458     A.U. after   11 cycles
 E2 =    -0.1582843070D+01 EUMP2 =    -0.47231598052724D+03

 The electronic state is 1-A.
 Alpha  occ. eigenvalues --  -11.21657 -11.21624 -11.21597 -11.21589 -11.21439
 Alpha  occ. eigenvalues --  -11.21408 -11.21379 -11.21348 -11.21105 -11.21089
 Alpha  occ. eigenvalues --  -11.21069 -11.21021  -1.08469  -1.08427  -1.03584
 Alpha  occ. eigenvalues --   -1.03508  -0.96039  -0.95949  -0.87054  -0.86968
 Alpha  occ. eigenvalues --   -0.79641  -0.79572  -0.78277  -0.78242  -0.65097
 Alpha  occ. eigenvalues --   -0.65085  -0.61025  -0.60962  -0.59392  -0.59285
 Alpha  occ. eigenvalues --   -0.57645  -0.57553  -0.55319  -0.55261  -0.52723
 Alpha  occ. eigenvalues --   -0.52660  -0.52450  -0.52344  -0.49986  -0.49876
 Alpha  occ. eigenvalues --   -0.47997  -0.47844  -0.46683  -0.46594  -0.45819
 Alpha  occ. eigenvalues --   -0.45779  -0.45744  -0.45705  -0.43805  -0.43760
 Alpha virt. eigenvalues --    0.20562   0.23060   0.23735   0.25067   0.26421
 Alpha virt. eigenvalues --    0.26597   0.27265   0.27437   0.27995   0.28862
 Alpha virt. eigenvalues --    0.30785   0.31383   0.31685   0.31819   0.31893

 Mulliken charges:
               1
     1  C   -0.298498
     2  C   -0.299286
     3  C   -0.484452
     4  H    0.149779
     5  H    0.149754
     6  H    0.151452
     7  H    0.151813
     8  H    0.155562
     9  H    0.155488
    10  H    0.168947
    11  C   -0.298268
    12  C   -0.299670
    13  C   -0.475727
    14  H    0.149466
    15  H    0.149699
    16  H    0.151985
    17  H    0.152016
    18  H    0.155222
    19  H    0.155193
    20  H    0.160344
    21  C   -0.298085
    22  C   -0.299768
    23  C   -0.475688
    24  H    0.149630
    25  H    0.149575
    26  H    0.152196
    27  H    0.151917
    28  H    0.155164
    29  H    0.155103
    30  H    0.160268
    31  C   -0.300139
    32  C   -0.301223
    33  C   -0.479194
    34  H    0.150162
    35  H    0.149905
    36  H    0.152812
    37  H    0.152412
    38  H    0.155044
    39  H    0.158491
    40  H    0.160601
 Sum of Mulliken charges =  -0.00000

 Dipole moment (field-independent basis, Debye):
    X=              0.0099    Y=             -0.0075    Z=             -0.0011  Tot=              0.0125
 Quadrupole moment (field-independent basis, Debye-Ang):
   XX=            -84.3394   YY=            -86.3362   ZZ=            -84.0349
   XY=             -0.2539   XZ=             -0.3550   YZ=             -0.0952

 Normal termination of Gaussian 16 at Wed May  5 21:39:04 2021.
