 Gaussian 16, Revision A.03,
 Gaussian 16:  EM64L-G16RevA.03 25-Dec-2016

 -------------
 #p 6-31g* mp2
 -------------

 ------------------------------------------------------
 Input file generated by CHIRIPA (05-May-2021 14:57:21)
 ------------------------------------------------------
 Symbolic Z-matrix:
 Charge =  0 Multiplicity = 1

                         Standard orientation:
 ---------------------------------------------------------------------
 Center     Atomic      Atomic             Coordinates (Angstroms)
 Number     Number       Type             X           Y           Z
 ---------------------------------------------------------------------
      1          6           0        2.608068    1.952142   -1.340787
      2          6           0        1.771878    0.880844   -1.009685
      3          6           0        2.281041   -0.237568   -0.343011
      4          6           0        3.637339   -0.251406   -0.021215
      5          6           0        4.495927    0.800296   -0.337506
      6          6           0        3.965032    1.908525   -1.004234
      7          1           0        2.204097    2.816996   -1.858696
      8          1           0        0.717642    0.911978   -1.269806
      9          1           0        1.656165   -1.080747   -0.074688
     10          1           0        5.542630    0.740395   -0.065029
     11          1           0        4.616784    2.739061   -1.260115
     12          7           0        4.187871   -1.430029    0.684592
     13          8           0        5.386328   -1.417849    0.956970
     14          8           0        3.410497   -2.343695    0.952060
     15          6           0       -2.528448    1.540502    1.906427
     16          6           0       -3.755498    0.911584    2.141648
     17          6           0       -4.329004    0.087529    1.168728
     18          6           0       -3.645036   -0.086250   -0.033469
     19          6           0       -2.421136    0.526597   -0.297618
     20          6           0       -1.866349    1.346343    0.689689
     21          1           0       -2.090205    2.178974    2.667802
     22          1           0       -4.271939    1.060551    3.085652
     23          1           0       -5.277745   -0.411499    1.324542
     24          1           0       -1.930006    0.358933   -1.248460
     25          1           0       -0.913280    1.833496    0.504257
     26          7           0       -4.242273   -0.956360   -1.071071
     27          8           0       -3.619701   -1.093279   -2.121925
     28          8           0       -5.321650   -1.484957   -0.813843
 ---------------------------------------------------------------------

 SCF Done:  E(RHF) =  -868.336684220     A.U. after   16 cycles
 E2 =    -0.2600381532D+01 EUMP2 =    -0.87093706575238D+03

 The electronic state is 1-A.
 Alpha  occ. eigenvalues --  -20.61229 -20.61215 -20.61147 -20.61141 -15.86283
 Alpha  occ. eigenvalues --  -15.86209 -11.31755 -11.31712 -11.28434 -11.28348
 Alpha  occ. eigenvalues --  -11.28309 -11.28264 -11.28136 -11.28031 -11.27468
 Alpha  occ. eigenvalues --  -11.27400 -11.27319 -11.27280  -1.60297  -1.60221
 Alpha  occ. eigenvalues --   -1.39849  -1.39770  -1.19935  -1.19915  -1.09304
 Alpha  occ. eigenvalues --   -1.09276  -1.05414  -1.05312  -0.96109  -0.96098
 Alpha  occ. eigenvalues --   -0.86782  -0.86715  -0.83021  -0.82877  -0.78087
 Alpha  occ. eigenvalues --   -0.77872  -0.72498  -0.72422  -0.71620  -0.71549
 Alpha  occ. eigenvalues --   -0.71036  -0.71010  -0.65640  -0.65583  -0.65474
 Alpha  occ. eigenvalues --   -0.65261  -0.62961  -0.62433  -0.55881  -0.55782
 Alpha  occ. eigenvalues --   -0.53738  -0.53646  -0.53491  -0.53353  -0.49264
 Alpha  occ. eigenvalues --   -0.49249  -0.49194  -0.49167  -0.45233  -0.45144
 Alpha  occ. eigenvalues --   -0.37926  -0.37864  -0.37051  -0.36872
 Alpha virt. eigenvalues --    0.04532   0.04624   0.10536   0.10720   0.15885
 Alpha virt. eigenvalues --    0.16114   0.18523   0.21973   0.24518   0.27256
 Alpha virt. eigenvalues --    0.27880   0.28865   0.30170   0.30920   0.31854

 Mulliken charges:
               1
     1  C   -0.172608
     2  C   -0.225049
     3  C   -0.170888
     4  C    0.158418
     5  C   -0.169320
     6  C   -0.218628
     7  H    0.226928
     8  H    0.219721
     9  H    0.279537
    10  H    0.277731
    11  H    0.225503
    12  N    0.487999
    13  O   -0.459221
    14  O   -0.458155
    15  C   -0.170212
    16  C   -0.217625
    17  C   -0.169706
    18  C    0.161116
    19  C   -0.177946
    20  C   -0.220102
    21  H    0.228319
    22  H    0.226380
    23  H    0.278008
    24  H    0.269656
    25  H    0.220541
    26  N    0.488578
    27  O   -0.461539
    28  O   -0.457438
 Sum of Mulliken charges =  -0.00000

 Dipole moment (field-independent basis, Debye):
    X=              0.1848    Y=              7.1438    Z=              1.3210  Tot=              7.2673
 Quadrupole moment (field-independent basis, Debye-Ang):
   XX=           -125.7885   YY=           -107.5855   ZZ=           -104.1525
   XY=              7.3857   XZ=            -25.7071   YZ=             -0.3980

 Normal termination of Gaussian 16 at Thu May  6 14:27:42 2021.
