 Gaussian 16, Revision A.03,
 Gaussian 16:  EM64L-G16RevA.03 25-Dec-2016

 -------------
 #p 6-31g* mp2
 -------------

 ------------------------------------------------------
 Input file generated by CHIRIPA (05-May-2021 14:51:12)
 ------------------------------------------------------
 Symbolic Z-matrix:
 Charge =  0 Multiplicity = 1

                         Standard orientation:
 ---------------------------------------------------------------------
 Center     Atomic      Atomic             Coordinates (Angstroms)
 Number     Number       Type             X           Y           Z
 ---------------------------------------------------------------------
      1          6           0        2.893230    0.666939    0.332624
      2          6           0        2.284011    2.068381    0.385509
      3          6           0        2.954944    2.965761    1.425870
      4          1           0        2.814771    0.202246    1.325020
      5          1           0        3.966097    0.749250    0.109965
      6          1           0        1.212332    1.983381    0.606635
      7          1           0        2.363756    2.529719   -0.607176
      8          1           0        4.021249    3.080212    1.205653
      9          1           0        2.863283    2.530769    2.426361
     10          1           0        2.503923    3.962758    1.446781
     11          6           0        2.233078   -0.241940   -0.702686
     12          6           0        2.842298   -1.643382   -0.755570
     13          6           0        2.171364   -2.540762   -1.795932
     14          1           0        1.160212   -0.324250   -0.480026
     15          1           0        2.311537    0.222754   -1.695081
     16          1           0        2.762552   -2.104720    0.237115
     17          1           0        3.913976   -1.558381   -0.976696
     18          1           0        2.263025   -2.105769   -2.796422
     19          1           0        1.105059   -2.655212   -1.575714
     20          1           0        2.622385   -3.537758   -1.816842
     21          6           0       -2.064630   -0.786506    0.258669
     22          6           0       -2.364445   -1.701388    1.446561
     23          6           0       -1.358409   -2.844935    1.580676
     24          1           0       -2.060567   -1.383264   -0.663725
     25          1           0       -1.052039   -0.374262    0.368705
     26          1           0       -3.376690   -2.110697    1.335023
     27          1           0       -2.367985   -1.102349    2.366211
     28          1           0       -0.345332   -2.452805    1.716734
     29          1           0       -1.359769   -3.466880    0.679686
     30          1           0       -1.591591   -3.486528    2.436155
     31          6           0       -3.061677    0.361507    0.111393
     32          6           0       -2.761864    1.276388   -1.076500
     33          6           0       -3.767900    2.419935   -1.210614
     34          1           0       -4.074269   -0.050737    0.001357
     35          1           0       -3.065742    0.958265    1.033785
     36          1           0       -2.758323    0.677350   -1.996151
     37          1           0       -1.749617    1.685696   -0.964962
     38          1           0       -3.766540    3.041881   -0.309625
     39          1           0       -4.780976    2.027805   -1.346672
     40          1           0       -3.534718    3.061528   -2.066093
 ---------------------------------------------------------------------

 SCF Done:  E(RHF) =  -470.733433581     A.U. after   11 cycles
 E2 =    -0.1583813466D+01 EUMP2 =    -0.47231724704743D+03

 The electronic state is 1-A.
 Alpha  occ. eigenvalues --  -11.21674 -11.21651 -11.21618 -11.21570 -11.21467
 Alpha  occ. eigenvalues --  -11.21402 -11.21401 -11.21310 -11.21155 -11.21106
 Alpha  occ. eigenvalues --  -11.21083 -11.21018  -1.08499  -1.08420  -1.03580
 Alpha  occ. eigenvalues --   -1.03523  -0.96035  -0.95968  -0.87050  -0.86985
 Alpha  occ. eigenvalues --   -0.79651  -0.79581  -0.78424  -0.78132  -0.65257
 Alpha  occ. eigenvalues --   -0.64939  -0.60999  -0.60902  -0.59404  -0.59330
 Alpha  occ. eigenvalues --   -0.57668  -0.57561  -0.55363  -0.55224  -0.52722
 Alpha  occ. eigenvalues --   -0.52669  -0.52494  -0.52359  -0.49996  -0.49903
 Alpha  occ. eigenvalues --   -0.48036  -0.47847  -0.46703  -0.46618  -0.46364
 Alpha  occ. eigenvalues --   -0.45796  -0.45753  -0.45095  -0.43835  -0.43777
 Alpha virt. eigenvalues --    0.19617   0.22325   0.23613   0.24702   0.25167
 Alpha virt. eigenvalues --    0.26184   0.26663   0.27880   0.28416   0.30662
 Alpha virt. eigenvalues --    0.31055   0.31082   0.31590   0.31735   0.32063

 Mulliken charges:
               1
     1  C   -0.297722
     2  C   -0.301032
     3  C   -0.475676
     4  H    0.148894
     5  H    0.149827
     6  H    0.151399
     7  H    0.152434
     8  H    0.155568
     9  H    0.155137
    10  H    0.160292
    11  C   -0.308214
    12  C   -0.299072
    13  C   -0.476788
    14  H    0.158967
    15  H    0.149638
    16  H    0.151813
    17  H    0.151718
    18  H    0.154816
    19  H    0.156800
    20  H    0.160020
    21  C   -0.307260
    22  C   -0.299144
    23  C   -0.477077
    24  H    0.149938
    25  H    0.157081
    26  H    0.152479
    27  H    0.151959
    28  H    0.155067
    29  H    0.155860
    30  H    0.160902
    31  C   -0.297547
    32  C   -0.301115
    33  C   -0.475697
    34  H    0.149841
    35  H    0.149490
    36  H    0.152247
    37  H    0.153312
    38  H    0.155148
    39  H    0.155199
    40  H    0.160496
 Sum of Mulliken charges =  -0.00000

 Dipole moment (field-independent basis, Debye):
    X=             -0.0311    Y=             -0.0032    Z=             -0.0034  Tot=              0.0314
 Quadrupole moment (field-independent basis, Debye-Ang):
   XX=            -84.5314   YY=            -85.6833   ZZ=            -84.4656
   XY=              0.8959   XZ=             -0.5378   YZ=             -0.2497

 Normal termination of Gaussian 16 at Wed May  5 15:19:22 2021.
