 Gaussian 16, Revision A.03,
 Gaussian 16:  EM64L-G16RevA.03 25-Dec-2016

 -------------
 #p 6-31g* mp2
 -------------

 ------------------------------------------------------
 Input file generated by CHIRIPA (05-May-2021 14:57:25)
 ------------------------------------------------------
 Symbolic Z-matrix:
 Charge =  0 Multiplicity = 1

                         Standard orientation:
 ---------------------------------------------------------------------
 Center     Atomic      Atomic             Coordinates (Angstroms)
 Number     Number       Type             X           Y           Z
 ---------------------------------------------------------------------
      1          6           0        3.671765    2.327417    0.434206
      2          6           0        2.942297    1.994366   -0.711863
      3          6           0        2.602445    0.664130   -0.975533
      4          6           0        3.010135   -0.312024   -0.067677
      5          6           0        3.737761   -0.011860    1.082867
      6          6           0        4.066473    1.325008    1.326340
      7          1           0        3.931444    3.363352    0.631187
      8          1           0        2.634427    2.770762   -1.406463
      9          1           0        2.038455    0.378355   -1.855115
     10          1           0        4.030596   -0.807807    1.756762
     11          1           0        4.633066    1.580732    2.217196
     12          7           0        2.656246   -1.723796   -0.336122
     13          8           0        3.027297   -2.565218    0.479333
     14          8           0        2.014517   -1.962188   -1.356902
     15          6           0       -2.993216   -2.430952    0.265646
     16          6           0       -4.099494   -1.715245    0.735154
     17          6           0       -4.151940   -0.324137    0.606267
     18          6           0       -3.075735    0.322033    0.000018
     19          6           0       -1.959627   -0.363020   -0.477785
     20          6           0       -1.928691   -1.753748   -0.338261
     21          1           0       -2.960830   -3.511450    0.369900
     22          1           0       -4.927660   -2.238530    1.204578
     23          1           0       -4.996121    0.254665    0.960904
     24          1           0       -1.149265    0.186435   -0.941283
     25          1           0       -1.068257   -2.306983   -0.703814
     26          7           0       -3.119872    1.794537   -0.142059
     27          8           0       -2.158905    2.340325   -0.679919
     28          8           0       -4.114598    2.375013    0.287130
 ---------------------------------------------------------------------

 SCF Done:  E(RHF) =  -868.340816311     A.U. after   16 cycles
 E2 =    -0.2598799296D+01 EUMP2 =    -0.87093961560623D+03

 The electronic state is 1-A.
 Alpha  occ. eigenvalues --  -20.61498 -20.61442 -20.60657 -20.60636 -15.86484
 Alpha  occ. eigenvalues --  -15.85691 -11.31501 -11.30822 -11.28012 -11.28002
 Alpha  occ. eigenvalues --  -11.27635 -11.27361 -11.27303 -11.26969 -11.26948
 Alpha  occ. eigenvalues --  -11.26890 -11.26344 -11.26103  -1.60534  -1.59725
 Alpha  occ. eigenvalues --   -1.40098  -1.39287  -1.19619  -1.18942  -1.09073
 Alpha  occ. eigenvalues --   -1.08372  -1.04961  -1.04289  -0.95971  -0.95259
 Alpha  occ. eigenvalues --   -0.86377  -0.85694  -0.82815  -0.82087  -0.77913
 Alpha  occ. eigenvalues --   -0.77172  -0.72709  -0.71921  -0.71837  -0.71040
 Alpha  occ. eigenvalues --   -0.70714  -0.70045  -0.65268  -0.64947  -0.64580
 Alpha  occ. eigenvalues --   -0.64242  -0.62320  -0.61623  -0.55456  -0.54783
 Alpha  occ. eigenvalues --   -0.53311  -0.53041  -0.52657  -0.52336  -0.49490
 Alpha  occ. eigenvalues --   -0.49433  -0.48687  -0.48645  -0.45569  -0.44745
 Alpha  occ. eigenvalues --   -0.37560  -0.36906  -0.36541  -0.35892
 Alpha virt. eigenvalues --    0.04537   0.05318   0.11053   0.11764   0.16128
 Alpha virt. eigenvalues --    0.16891   0.20934   0.22137   0.26181   0.27629
 Alpha virt. eigenvalues --    0.28528   0.29111   0.31097   0.31585   0.31993

 Mulliken charges:
               1
     1  C   -0.169314
     2  C   -0.214640
     3  C   -0.174552
     4  C    0.157838
     5  C   -0.171044
     6  C   -0.217911
     7  H    0.229063
     8  H    0.230226
     9  H    0.273312
    10  H    0.275076
    11  H    0.224853
    12  N    0.488281
    13  O   -0.457149
    14  O   -0.469749
    15  C   -0.171281
    16  C   -0.218443
    17  C   -0.172692
    18  C    0.158538
    19  C   -0.173552
    20  C   -0.226093
    21  H    0.227811
    22  H    0.221978
    23  H    0.273333
    24  H    0.270106
    25  H    0.244681
    26  N    0.488482
    27  O   -0.465970
    28  O   -0.461191
 Sum of Mulliken charges =  -0.00000

 Dipole moment (field-independent basis, Debye):
    X=              1.6944    Y=             -0.1964    Z=              1.5023  Tot=              2.2730
 Quadrupole moment (field-independent basis, Debye-Ang):
   XX=            -93.8385   YY=           -111.4782   ZZ=           -101.3784
   XY=             30.9809   XZ=              1.4462   YZ=             -1.8166

 Normal termination of Gaussian 16 at Fri May  7 05:02:18 2021.
