 Gaussian 16, Revision A.03,
 Gaussian 16:  EM64L-G16RevA.03 25-Dec-2016

 -------------
 #p 6-31g* mp2
 -------------

 ------------------------------------------------------
 Input file generated by CHIRIPA (05-May-2021 14:53:13)
 ------------------------------------------------------
 Symbolic Z-matrix:
 Charge =  0 Multiplicity = 1

                         Standard orientation:
 ---------------------------------------------------------------------
 Center     Atomic      Atomic             Coordinates (Angstroms)
 Number     Number       Type             X           Y           Z
 ---------------------------------------------------------------------
      1          6           0        2.779835   -0.526452   -0.802821
      2          6           0        1.588140   -1.291348   -0.225948
      3          6           0        0.498520   -1.558861   -1.264678
      4          1           0        2.428015    0.426582   -1.221025
      5          1           0        3.202871   -1.098154   -1.640431
      6          1           0        1.168331   -0.719035    0.611211
      7          1           0        1.942866   -2.242585    0.191103
      8          1           0        0.895734   -2.149998   -2.096170
      9          1           0        0.116799   -0.617791   -1.673675
     10          1           0       -0.343839   -2.106704   -0.830906
     11          6           0        3.877453   -0.251451    0.223501
     12          6           0        5.069148    0.513445   -0.353371
     13          6           0        6.158768    0.780958    0.685359
     14          1           0        3.454416    0.320251    1.061112
     15          1           0        4.229273   -1.204484    0.641706
     16          1           0        4.714422    1.464683   -0.770423
     17          1           0        5.488956   -0.058867   -1.190530
     18          1           0        6.540489   -0.160111    1.094356
     19          1           0        5.761553    1.372096    1.516850
     20          1           0        7.001127    1.328802    0.251586
     21          6           0       -2.931378   -2.166745    0.616826
     22          6           0       -1.992603   -1.457967    1.373698
     23          6           0       -1.800877   -0.088806    1.165885
     24          6           0       -2.568515    0.542718    0.188542
     25          6           0       -3.511618   -0.135937   -0.581702
     26          6           0       -3.686559   -1.504635   -0.356742
     27          1           0       -3.073796   -3.230164    0.784919
     28          1           0       -1.404712   -1.969567    2.130463
     29          1           0       -1.080971    0.484189    1.737576
     30          1           0       -4.082811    0.401489   -1.328917
     31          1           0       -4.416343   -2.052536   -0.946034
     32          7           0       -2.374428    1.991943   -0.040537
     33          8           0       -3.063253    2.525152   -0.907628
     34          8           0       -1.537155    2.567196    0.651340
 ---------------------------------------------------------------------

 SCF Done:  E(RHF) =  -669.533944722     A.U. after   15 cycles
 E2 =    -0.2094576468D+01 EUMP2 =    -0.67162852118943D+03

 The electronic state is 1-A.
 Alpha  occ. eigenvalues --  -20.60844 -20.60838 -15.85896 -11.31268 -11.27829
 Alpha  occ. eigenvalues --  -11.27802 -11.27552 -11.26854 -11.26808 -11.21757
 Alpha  occ. eigenvalues --  -11.21518 -11.21389 -11.21330 -11.20992 -11.20986
 Alpha  occ. eigenvalues --   -1.59920  -1.39472  -1.19445  -1.08843  -1.08428
 Alpha  occ. eigenvalues --   -1.04850  -1.03522  -0.95958  -0.95670  -0.86979
 Alpha  occ. eigenvalues --   -0.86240  -0.82500  -0.79614  -0.78255  -0.77537
 Alpha  occ. eigenvalues --   -0.72114  -0.71245  -0.70550  -0.65117  -0.65047
 Alpha  occ. eigenvalues --   -0.64833  -0.62195  -0.60944  -0.59427  -0.57651
 Alpha  occ. eigenvalues --   -0.55349  -0.55305  -0.53456  -0.52931  -0.52478
 Alpha  occ. eigenvalues --   -0.52064  -0.49877  -0.48874  -0.48869  -0.47928
 Alpha  occ. eigenvalues --   -0.46656  -0.45790  -0.45709  -0.44874  -0.43776
 Alpha  occ. eigenvalues --   -0.37370  -0.36363
 Alpha virt. eigenvalues --    0.04946   0.11147   0.16395   0.20889   0.22929
 Alpha virt. eigenvalues --    0.24319   0.25853   0.26930   0.27637   0.28222
 Alpha virt. eigenvalues --    0.28646   0.30689   0.31379   0.31860   0.32330

 Mulliken charges:
               1
     1  C   -0.298511
     2  C   -0.299730
     3  C   -0.479446
     4  H    0.155090
     5  H    0.149364
     6  H    0.145431
     7  H    0.147530
     8  H    0.152692
     9  H    0.156537
    10  H    0.162761
    11  C   -0.298343
    12  C   -0.300083
    13  C   -0.475870
    14  H    0.149844
    15  H    0.147292
    16  H    0.155076
    17  H    0.151359
    18  H    0.153774
    19  H    0.156011
    20  H    0.160774
    21  C   -0.173010
    22  C   -0.217649
    23  C   -0.166440
    24  C    0.159689
    25  C   -0.171202
    26  C   -0.216099
    27  H    0.226215
    28  H    0.224831
    29  H    0.275204
    30  H    0.275983
    31  H    0.224080
    32  N    0.487490
    33  O   -0.460021
    34  O   -0.460623
 Sum of Mulliken charges =  -0.00000

 Dipole moment (field-independent basis, Debye):
    X=             -0.7953    Y=             -5.0408    Z=              0.8011  Tot=              5.1656
 Quadrupole moment (field-independent basis, Debye-Ang):
   XX=            -89.5925   YY=           -100.3802   ZZ=            -92.7091
   XY=             12.7081   XZ=             -0.0478   YZ=             -0.5370

 Normal termination of Gaussian 16 at Thu May  6 12:03:34 2021.
