 Gaussian 16, Revision A.03,
 Gaussian 16:  EM64L-G16RevA.03 25-Dec-2016

 -------------
 #p 6-31g* mp2
 -------------

 ------------------------------------------------------
 Input file generated by CHIRIPA (05-May-2021 14:53:12)
 ------------------------------------------------------
 Symbolic Z-matrix:
 Charge =  0 Multiplicity = 1

                         Standard orientation:
 ---------------------------------------------------------------------
 Center     Atomic      Atomic             Coordinates (Angstroms)
 Number     Number       Type             X           Y           Z
 ---------------------------------------------------------------------
      1          6           0       -3.518563   -0.681198   -0.210663
      2          6           0       -2.601381   -1.622890   -0.991674
      3          6           0       -3.029311   -3.086980   -0.886254
      4          1           0       -3.532807   -0.985436    0.844885
      5          1           0       -4.547023   -0.791186   -0.581563
      6          1           0       -1.574724   -1.510151   -0.620351
      7          1           0       -2.589169   -1.316258   -2.045450
      8          1           0       -4.043925   -3.220741   -1.275185
      9          1           0       -3.023716   -3.415735    0.158011
     10          1           0       -2.359964   -3.742609   -1.451926
     11          6           0       -3.103692    0.785925   -0.306375
     12          6           0       -4.020874    1.727618    0.474636
     13          6           0       -3.592944    3.191707    0.369216
     14          1           0       -2.075232    0.895913    0.064526
     15          1           0       -3.089448    1.090163   -1.361922
     16          1           0       -4.033086    1.420986    1.528412
     17          1           0       -5.047531    1.614879    0.103313
     18          1           0       -3.598539    3.520463   -0.675049
     19          1           0       -2.578330    3.325468    0.758147
     20          1           0       -4.262291    3.847337    0.934888
     21          6           0        4.235598    1.505177   -0.919222
     22          6           0        2.977247    1.981784   -0.537230
     23          6           0        2.055746    1.134094    0.084708
     24          6           0        2.427420   -0.190379    0.310360
     25          6           0        3.673450   -0.694956   -0.058559
     26          6           0        4.579079    0.170681   -0.679091
     27          1           0        4.945277    2.170653   -1.401813
     28          1           0        2.707771    3.017697   -0.722462
     29          1           0        1.074781    1.476842    0.390730
     30          1           0        3.913369   -1.732594    0.139339
     31          1           0        5.555619   -0.202207   -0.974672
     32          7           0        1.460271   -1.097290    0.968034
     33          8           0        1.811953   -2.259941    1.155647
     34          8           0        0.368850   -0.628304    1.283452
 ---------------------------------------------------------------------

 SCF Done:  E(RHF) =  -669.536569190     A.U. after   15 cycles
 E2 =    -0.2091880510D+01 EUMP2 =    -0.67162844970037D+03

 The electronic state is 1-A.
 Alpha  occ. eigenvalues --  -20.61068 -20.61061 -15.86076 -11.31338 -11.27896
 Alpha  occ. eigenvalues --  -11.27892 -11.27623 -11.26890 -11.26880 -11.21042
 Alpha  occ. eigenvalues --  -11.20790 -11.20605 -11.20446 -11.20380 -11.20033
 Alpha  occ. eigenvalues --   -1.60115  -1.39674  -1.19502  -1.08918  -1.07583
 Alpha  occ. eigenvalues --   -1.04889  -1.02736  -0.95770  -0.95218  -0.86294
 Alpha  occ. eigenvalues --   -0.86242  -0.82607  -0.78828  -0.77686  -0.77361
 Alpha  occ. eigenvalues --   -0.72305  -0.71420  -0.70612  -0.65164  -0.64893
 Alpha  occ. eigenvalues --   -0.64174  -0.62239  -0.60114  -0.58621  -0.56825
 Alpha  occ. eigenvalues --   -0.55398  -0.54501  -0.53223  -0.52982  -0.51943
 Alpha  occ. eigenvalues --   -0.51659  -0.49223  -0.49058  -0.49014  -0.47158
 Alpha  occ. eigenvalues --   -0.45868  -0.45359  -0.44915  -0.44443  -0.42975
 Alpha  occ. eigenvalues --   -0.37476  -0.36486
 Alpha virt. eigenvalues --    0.04813   0.11163   0.16288   0.20797   0.23342
 Alpha virt. eigenvalues --    0.24941   0.25875   0.27484   0.27901   0.28604
 Alpha virt. eigenvalues --    0.29196   0.31213   0.31785   0.32327   0.32644

 Mulliken charges:
               1
     1  C   -0.295204
     2  C   -0.306559
     3  C   -0.474808
     4  H    0.155601
     5  H    0.144032
     6  H    0.168877
     7  H    0.143007
     8  H    0.149412
     9  H    0.159971
    10  H    0.157628
    11  C   -0.303522
    12  C   -0.299091
    13  C   -0.474416
    14  H    0.158894
    15  H    0.143250
    16  H    0.154801
    17  H    0.150254
    18  H    0.152387
    19  H    0.150135
    20  H    0.159172
    21  C   -0.170297
    22  C   -0.218910
    23  C   -0.170998
    24  C    0.158003
    25  C   -0.170585
    26  C   -0.218644
    27  H    0.226251
    28  H    0.224456
    29  H    0.277143
    30  H    0.275879
    31  H    0.223989
    32  N    0.488980
    33  O   -0.457585
    34  O   -0.461503
 Sum of Mulliken charges =  -0.00000

 Dipole moment (field-independent basis, Debye):
    X=              3.6974    Y=              3.1033    Z=             -2.1570  Tot=              5.2871
 Quadrupole moment (field-independent basis, Debye-Ang):
   XX=            -76.5941   YY=            -95.0207   ZZ=            -96.5756
   XY=              4.2725   XZ=             -5.0514   YZ=              1.2432

 Normal termination of Gaussian 16 at Thu May  6 04:07:59 2021.
