 Gaussian 16, Revision A.03,
 Gaussian 16:  EM64L-G16RevA.03 25-Dec-2016

 -------------
 #p 6-31g* mp2
 -------------

 ------------------------------------------------------
 Input file generated by CHIRIPA (05-May-2021 14:53:16)
 ------------------------------------------------------
 Symbolic Z-matrix:
 Charge =  0 Multiplicity = 1

                         Standard orientation:
 ---------------------------------------------------------------------
 Center     Atomic      Atomic             Coordinates (Angstroms)
 Number     Number       Type             X           Y           Z
 ---------------------------------------------------------------------
      1          6           0        3.420597   -0.882873    0.285421
      2          6           0        2.133645   -0.512443    1.023339
      3          6           0        1.176288   -1.695258    1.172376
      4          1           0        3.165695   -1.277508   -0.707672
      5          1           0        3.923419   -1.696956    0.825638
      6          1           0        1.634105    0.301638    0.482647
      7          1           0        2.391650   -0.118466    2.014718
      8          1           0        1.651924   -2.507820    1.731047
      9          1           0        0.890075   -2.085329    0.190272
     10          1           0        0.262954   -1.408153    1.702708
     11          6           0        4.387787    0.289162    0.128566
     12          6           0        5.674738   -0.081268   -0.609352
     13          6           0        6.632095    1.101546   -0.758389
     14          1           0        3.884965    1.103245   -0.411651
     15          1           0        4.642689    0.683796    1.121659
     16          1           0        5.416734   -0.475245   -1.600731
     17          1           0        6.174278   -0.895349   -0.068661
     18          1           0        6.918308    1.491617    0.223714
     19          1           0        6.156460    1.914109   -1.317061
     20          1           0        7.545429    0.814441   -1.288721
     21          6           0       -3.467085   -2.223780   -0.563751
     22          6           0       -4.544574   -1.353910   -0.366605
     23          6           0       -4.325379    0.008624   -0.142993
     24          6           0       -3.009842    0.469327   -0.122846
     25          6           0       -1.915408   -0.372240   -0.315901
     26          6           0       -2.158249   -1.731037   -0.537816
     27          1           0       -3.646545   -3.280778   -0.736799
     28          1           0       -5.562097   -1.733786   -0.386220
     29          1           0       -5.141088    0.704201    0.012601
     30          1           0       -0.912307    0.035900   -0.290799
     31          1           0       -1.319523   -2.404267   -0.690610
     32          7           0       -2.765274    1.909802    0.112983
     33          8           0       -1.596813    2.290809    0.126049
     34          8           0       -3.746673    2.630566    0.280295
 ---------------------------------------------------------------------

 SCF Done:  E(RHF) =  -669.534673434     A.U. after   15 cycles
 E2 =    -0.2092612427D+01 EUMP2 =    -0.67162728586103D+03

 The electronic state is 1-A.
 Alpha  occ. eigenvalues --  -20.60743 -20.60738 -15.85793 -11.31126 -11.27696
 Alpha  occ. eigenvalues --  -11.27651 -11.27424 -11.26713 -11.26650 -11.21983
 Alpha  occ. eigenvalues --  -11.21784 -11.21677 -11.21669 -11.21459 -11.21069
 Alpha  occ. eigenvalues --   -1.59817  -1.39372  -1.19298  -1.08701  -1.08663
 Alpha  occ. eigenvalues --   -1.04709  -1.03810  -0.96298  -0.95535  -0.87316
 Alpha  occ. eigenvalues --   -0.86095  -0.82374  -0.79874  -0.78431  -0.77426
 Alpha  occ. eigenvalues --   -0.72014  -0.71140  -0.70420  -0.65327  -0.64943
 Alpha  occ. eigenvalues --   -0.64714  -0.62240  -0.61067  -0.59635  -0.57872
 Alpha  occ. eigenvalues --   -0.55632  -0.55135  -0.53198  -0.52973  -0.52789
 Alpha  occ. eigenvalues --   -0.52542  -0.50215  -0.48774  -0.48766  -0.48176
 Alpha  occ. eigenvalues --   -0.46895  -0.45984  -0.45883  -0.44784  -0.44041
 Alpha  occ. eigenvalues --   -0.37285  -0.36261
 Alpha virt. eigenvalues --    0.05086   0.11330   0.16553   0.19932   0.22877
 Alpha virt. eigenvalues --    0.23944   0.25653   0.26141   0.27200   0.28251
 Alpha virt. eigenvalues --    0.29329   0.29474   0.31290   0.31557   0.32396

 Mulliken charges:
               1
     1  C   -0.298047
     2  C   -0.306488
     3  C   -0.484810
     4  H    0.146955
     5  H    0.149716
     6  H    0.159529
     7  H    0.158396
     8  H    0.159938
     9  H    0.143049
    10  H    0.166483
    11  C   -0.299394
    12  C   -0.299835
    13  C   -0.476015
    14  H    0.153637
    15  H    0.151561
    16  H    0.151195
    17  H    0.151301
    18  H    0.155976
    19  H    0.156907
    20  H    0.160145
    21  C   -0.171303
    22  C   -0.218837
    23  C   -0.170829
    24  C    0.157244
    25  C   -0.176088
    26  C   -0.221518
    27  H    0.225532
    28  H    0.223115
    29  H    0.275263
    30  H    0.283860
    31  H    0.227558
    32  N    0.487789
    33  O   -0.461558
    34  O   -0.460425
 Sum of Mulliken charges =  -0.00000

 Dipole moment (field-independent basis, Debye):
    X=             -0.7232    Y=             -5.0039    Z=             -0.7509  Tot=              5.1113
 Quadrupole moment (field-independent basis, Debye-Ang):
   XX=            -84.8148   YY=           -100.6883   ZZ=            -94.5073
   XY=             13.7339   XZ=              2.9531   YZ=              0.1934

 Normal termination of Gaussian 16 at Wed May  5 17:13:11 2021.
