 Gaussian 16, Revision A.03,
 Gaussian 16:  EM64L-G16RevA.03 25-Dec-2016

 -------------
 #p 6-31g* mp2
 -------------

 ------------------------------------------------------
 Input file generated by CHIRIPA (05-May-2021 14:55:22)
 ------------------------------------------------------
 Symbolic Z-matrix:
 Charge =  0 Multiplicity = 1

                         Standard orientation:
 ---------------------------------------------------------------------
 Center     Atomic      Atomic             Coordinates (Angstroms)
 Number     Number       Type             X           Y           Z
 ---------------------------------------------------------------------
      1          6           0        2.675257   -2.296210   -0.864023
      2          6           0        3.875398   -1.790094   -0.354092
      3          6           0        3.991349   -0.436899   -0.022478
      4          6           0        2.882244    0.385488   -0.214452
      5          6           0        1.673048   -0.088876   -0.720530
      6          6           0        1.579844   -1.445486   -1.045295
      7          1           0        2.594018   -3.348730   -1.118968
      8          1           0        4.727749   -2.448445   -0.212263
      9          1           0        4.908577   -0.018705    0.374039
     10          1           0        0.840650    0.591971   -0.850834
     11          1           0        0.646553   -1.835778   -1.441131
     12          7           0        2.992956    1.819862    0.132987
     13          8           0        2.001254    2.523643   -0.045496
     14          8           0        4.069338    2.213183    0.577214
     15          6           0       -2.913651   -0.322971    0.339549
     16          6           0       -2.390328   -0.930031    1.641699
     17          6           0       -0.883706   -1.188622    1.609805
     18          1           0       -2.673398   -0.996772   -0.494247
     19          1           0       -2.383090    0.618990    0.143057
     20          1           0       -2.922695   -1.869869    1.836392
     21          1           0       -2.632024   -0.254797    2.472518
     22          1           0       -0.336250   -0.255853    1.439998
     23          1           0       -0.628573   -1.880101    0.800259
     24          1           0       -0.530862   -1.622650    2.550540
     25          6           0       -4.418181   -0.058689    0.356040
     26          6           0       -4.941504    0.548371   -0.946109
     27          6           0       -6.448126    0.806962   -0.914215
     28          1           0       -4.948744   -1.000650    0.552532
     29          1           0       -4.658434    0.615112    1.189836
     30          1           0       -4.699809   -0.126863   -1.776928
     31          1           0       -4.409137    1.488209   -1.140803
     32          1           0       -6.703259    1.498441   -0.104670
     33          1           0       -6.995582   -0.125807   -0.744409
     34          1           0       -6.800970    1.240990   -1.854949
 ---------------------------------------------------------------------

 SCF Done:  E(RHF) =  -669.534022503     A.U. after   15 cycles
 E2 =    -0.2093054691D+01 EUMP2 =    -0.67162707719365D+03

 The electronic state is 1-A.
 Alpha  occ. eigenvalues --  -20.60761 -20.60754 -15.85812 -11.31142 -11.27699
 Alpha  occ. eigenvalues --  -11.27692 -11.27448 -11.26719 -11.26696 -11.21890
 Alpha  occ. eigenvalues --  -11.21809 -11.21790 -11.21629 -11.21363 -11.21215
 Alpha  occ. eigenvalues --   -1.59835  -1.39390  -1.19320  -1.08737  -1.08713
 Alpha  occ. eigenvalues --   -1.04732  -1.03786  -0.96256  -0.95558  -0.87275
 Alpha  occ. eigenvalues --   -0.86127  -0.82399  -0.79867  -0.78566  -0.77434
 Alpha  occ. eigenvalues --   -0.72031  -0.71158  -0.70434  -0.65373  -0.64973
 Alpha  occ. eigenvalues --   -0.64733  -0.62095  -0.61178  -0.59616  -0.57890
 Alpha  occ. eigenvalues --   -0.55555  -0.55226  -0.53370  -0.52903  -0.52826
 Alpha  occ. eigenvalues --   -0.52398  -0.50186  -0.48788  -0.48787  -0.48163
 Alpha  occ. eigenvalues --   -0.46886  -0.46098  -0.46007  -0.44799  -0.44057
 Alpha  occ. eigenvalues --   -0.37294  -0.36203
 Alpha virt. eigenvalues --    0.05094   0.11191   0.16557   0.20116   0.22849
 Alpha virt. eigenvalues --    0.23973   0.25256   0.26263   0.27682   0.28242
 Alpha virt. eigenvalues --    0.29529   0.29608   0.31579   0.31642   0.32141

 Mulliken charges:
               1
     1  C   -0.172193
     2  C   -0.218375
     3  C   -0.171171
     4  C    0.157594
     5  C   -0.168461
     6  C   -0.214552
     7  H    0.225207
     8  H    0.223131
     9  H    0.275270
    10  H    0.276192
    11  H    0.223189
    12  N    0.488359
    13  O   -0.461626
    14  O   -0.460239
    15  C   -0.300118
    16  C   -0.299805
    17  C   -0.477044
    18  H    0.141503
    19  H    0.152154
    20  H    0.151203
    21  H    0.155987
    22  H    0.159856
    23  H    0.146998
    24  H    0.162410
    25  C   -0.298109
    26  C   -0.300299
    27  C   -0.475949
    28  H    0.149498
    29  H    0.152757
    30  H    0.149706
    31  H    0.154329
    32  H    0.156707
    33  H    0.154805
    34  H    0.161087
 Sum of Mulliken charges =  -0.00000

 Dipole moment (field-independent basis, Debye):
    X=             -0.4435    Y=             -5.0031    Z=             -1.1584  Tot=              5.1546
 Quadrupole moment (field-independent basis, Debye-Ang):
   XX=            -93.4717   YY=            -98.4977   ZZ=            -94.4132
   XY=            -15.5115   XZ=             -2.1018   YZ=              0.8153

 Normal termination of Gaussian 16 at Thu May  6 01:28:08 2021.
