 Gaussian 16, Revision A.03,
 Gaussian 16:  EM64L-G16RevA.03 25-Dec-2016

 -------------
 #p 6-31g* mp2
 -------------

 ------------------------------------------------------
 Input file generated by CHIRIPA (05-May-2021 14:57:25)
 ------------------------------------------------------
 Symbolic Z-matrix:
 Charge =  0 Multiplicity = 1

                         Standard orientation:
 ---------------------------------------------------------------------
 Center     Atomic      Atomic             Coordinates (Angstroms)
 Number     Number       Type             X           Y           Z
 ---------------------------------------------------------------------
      1          6           0       -1.559606    0.935052    0.790192
      2          6           0       -2.738912    1.526344    1.255092
      3          6           0       -3.984999    1.044604    0.843096
      4          6           0       -4.014985   -0.034845   -0.038483
      5          6           0       -2.857657   -0.645294   -0.519352
      6          6           0       -1.622631   -0.146972   -0.093987
      7          1           0       -0.595911    1.315719    1.115433
      8          1           0       -2.693000    2.366787    1.941817
      9          1           0       -4.913546    1.483541    1.187409
     10          1           0       -2.935398   -1.481724   -1.203280
     11          1           0       -0.708398   -0.608150   -0.456669
     12          7           0       -5.328307   -0.553618   -0.481721
     13          8           0       -5.327730   -1.505766   -1.258928
     14          8           0       -6.333397    0.001738   -0.043532
     15          6           0        3.595532    2.383220   -0.667787
     16          6           0        2.520713    1.726045   -0.059999
     17          6           0        2.621984    0.377649    0.295139
     18          6           0        3.818159   -0.285954    0.026650
     19          6           0        4.906681    0.341139   -0.577639
     20          6           0        4.782992    1.689891   -0.924214
     21          1           0        3.508156    3.430824   -0.940340
     22          1           0        1.597306    2.261979    0.140349
     23          1           0        1.805472   -0.155527    0.766784
     24          1           0        5.814433   -0.219592   -0.764683
     25          1           0        5.619345    2.197704   -1.396113
     26          7           0        3.937236   -1.713628    0.398086
     27          8           0        5.001829   -2.275903    0.150846
     28          8           0        2.963722   -2.243333    0.929425
 ---------------------------------------------------------------------

 SCF Done:  E(RHF) =  -868.336414858     A.U. after   16 cycles
 E2 =    -0.2600585502D+01 EUMP2 =    -0.87093700036032D+03

 The electronic state is 1-A.
 Alpha  occ. eigenvalues --  -20.61557 -20.61536 -20.60989 -20.60982 -15.86608
 Alpha  occ. eigenvalues --  -15.86043 -11.32112 -11.31538 -11.28804 -11.28616
 Alpha  occ. eigenvalues --  -11.28403 -11.28104 -11.28073 -11.28035 -11.27827
 Alpha  occ. eigenvalues --  -11.27636 -11.27219 -11.27185  -1.60621  -1.60059
 Alpha  occ. eigenvalues --   -1.40173  -1.39609  -1.20286  -1.19728  -1.09639
 Alpha  occ. eigenvalues --   -1.09140  -1.05734  -1.05132  -0.96460  -0.95950
 Alpha  occ. eigenvalues --   -0.87109  -0.86551  -0.83316  -0.82756  -0.78358
 Alpha  occ. eigenvalues --   -0.77749  -0.72821  -0.72263  -0.71948  -0.71412
 Alpha  occ. eigenvalues --   -0.71381  -0.70925  -0.65945  -0.65748  -0.65397
 Alpha  occ. eigenvalues --   -0.65164  -0.63091  -0.62444  -0.56193  -0.55756
 Alpha  occ. eigenvalues --   -0.54017  -0.53838  -0.53456  -0.53223  -0.49590
 Alpha  occ. eigenvalues --   -0.49570  -0.49032  -0.49006  -0.45550  -0.44985
 Alpha  occ. eigenvalues --   -0.38228  -0.37774  -0.37329  -0.36711
 Alpha virt. eigenvalues --    0.04195   0.04745   0.10297   0.10900   0.15677
 Alpha virt. eigenvalues --    0.16127   0.17573   0.22166   0.24778   0.25676
 Alpha virt. eigenvalues --    0.27634   0.29046   0.30230   0.31257   0.32958

 Mulliken charges:
               1
     1  C   -0.175760
     2  C   -0.218007
     3  C   -0.170528
     4  C    0.159607
     5  C   -0.169738
     6  C   -0.219505
     7  H    0.217170
     8  H    0.223646
     9  H    0.276907
    10  H    0.279143
    11  H    0.226951
    12  N    0.487826
    13  O   -0.458149
    14  O   -0.459574
    15  C   -0.169900
    16  C   -0.219960
    17  C   -0.177974
    18  C    0.160602
    19  C   -0.169389
    20  C   -0.217681
    21  H    0.228884
    22  H    0.218533
    23  H    0.270537
    24  H    0.278804
    25  H    0.227288
    26  N    0.488158
    27  O   -0.456397
    28  O   -0.461490
 Sum of Mulliken charges =  -0.00000

 Dipole moment (field-independent basis, Debye):
    X=              4.3238    Y=              6.7827    Z=              0.1187  Tot=              8.0446
 Quadrupole moment (field-independent basis, Debye-Ang):
   XX=           -137.9657   YY=           -106.2460   ZZ=           -104.1104
   XY=             10.3417   XZ=            -15.2056   YZ=              2.5503

 Normal termination of Gaussian 16 at Thu May  6 01:55:38 2021.
