 Gaussian 16, Revision A.03,
 Gaussian 16:  EM64L-G16RevA.03 25-Dec-2016

 -------------
 #p 6-31g* mp2
 -------------

 ------------------------------------------------------
 Input file generated by CHIRIPA (05-May-2021 14:57:26)
 ------------------------------------------------------
 Symbolic Z-matrix:
 Charge =  0 Multiplicity = 1

                         Standard orientation:
 ---------------------------------------------------------------------
 Center     Atomic      Atomic             Coordinates (Angstroms)
 Number     Number       Type             X           Y           Z
 ---------------------------------------------------------------------
      1          6           0        3.211545    2.066869   -0.655805
      2          6           0        3.951451    1.214802    0.170658
      3          6           0        3.510180   -0.087156    0.425085
      4          6           0        2.319218   -0.506094   -0.166008
      5          6           0        1.559747    0.319140   -0.993946
      6          6           0        2.020155    1.617112   -1.234449
      7          1           0        3.561768    3.076713   -0.848043
      8          1           0        4.877066    1.561391    0.621388
      9          1           0        4.063327   -0.767712    1.060924
     10          1           0        0.640898   -0.054782   -1.429051
     11          1           0        1.443474    2.276647   -1.876709
     12          7           0        1.841935   -1.882309    0.095973
     13          8           0        0.789446   -2.227396   -0.436774
     14          8           0        2.529366   -2.589840    0.829099
     15          6           0       -1.806358    2.626114    0.922196
     16          6           0       -1.372839    1.533806    1.680777
     17          6           0       -1.694670    0.229087    1.295186
     18          6           0       -2.455067    0.052394    0.140254
     19          6           0       -2.901776    1.120239   -0.636565
     20          6           0       -2.568100    2.416214   -0.232020
     21          1           0       -1.551751    3.636255    1.229094
     22          1           0       -0.781126    1.693817    2.577615
     23          1           0       -1.372098   -0.634583    1.863902
     24          1           0       -3.490208    0.929122   -1.525744
     25          1           0       -2.906144    3.262624   -0.823088
     26          7           0       -2.802045   -1.324225   -0.277987
     27          8           0       -3.473151   -1.453204   -1.299563
     28          8           0       -2.396330   -2.248174    0.423691
 ---------------------------------------------------------------------

 SCF Done:  E(RHF) =  -868.336140848     A.U. after   16 cycles
 E2 =    -0.2603290138D+01 EUMP2 =    -0.87093943098675D+03

 The electronic state is 1-A.
 Alpha  occ. eigenvalues --  -20.60684 -20.60602 -20.60286 -20.60139 -15.85683
 Alpha  occ. eigenvalues --  -15.85271 -11.31261 -11.31101 -11.27870 -11.27845
 Alpha  occ. eigenvalues --  -11.27751 -11.27661 -11.27640 -11.27547 -11.26928
 Alpha  occ. eigenvalues --  -11.26910 -11.26865 -11.26783  -1.59717  -1.59269
 Alpha  occ. eigenvalues --   -1.39264  -1.38808  -1.19469  -1.19315  -1.08827
 Alpha  occ. eigenvalues --   -1.08622  -1.04892  -1.04769  -0.95620  -0.95376
 Alpha  occ. eigenvalues --   -0.86285  -0.86138  -0.82443  -0.82199  -0.77467
 Alpha  occ. eigenvalues --   -0.77160  -0.71925  -0.71488  -0.71094  -0.70577
 Alpha  occ. eigenvalues --   -0.70524  -0.70394  -0.65108  -0.64940  -0.64896
 Alpha  occ. eigenvalues --   -0.64761  -0.62237  -0.62090  -0.55406  -0.55259
 Alpha  occ. eigenvalues --   -0.53448  -0.53035  -0.52851  -0.52819  -0.48671
 Alpha  occ. eigenvalues --   -0.48650  -0.48293  -0.48219  -0.44744  -0.43942
 Alpha  occ. eigenvalues --   -0.37545  -0.37296  -0.36682  -0.36173
 Alpha virt. eigenvalues --    0.05039   0.05387   0.10981   0.11392   0.16512
 Alpha virt. eigenvalues --    0.16778   0.21195   0.21394   0.27033   0.27284
 Alpha virt. eigenvalues --    0.28004   0.28319   0.30499   0.31038   0.32142

 Mulliken charges:
               1
     1  C   -0.172860
     2  C   -0.219468
     3  C   -0.172389
     4  C    0.155691
     5  C   -0.167975
     6  C   -0.218724
     7  H    0.223828
     8  H    0.222786
     9  H    0.275859
    10  H    0.276467
    11  H    0.221747
    12  N    0.485983
    13  O   -0.451290
    14  O   -0.461491
    15  C   -0.173265
    16  C   -0.217042
    17  C   -0.172254
    18  C    0.158244
    19  C   -0.176662
    20  C   -0.221756
    21  H    0.222912
    22  H    0.223481
    23  H    0.282106
    24  H    0.275684
    25  H    0.221108
    26  N    0.489024
    27  O   -0.465830
    28  O   -0.443914
 Sum of Mulliken charges =  -0.00000

 Dipole moment (field-independent basis, Debye):
    X=              2.8412    Y=              9.3110    Z=              0.6312  Tot=              9.7553
 Quadrupole moment (field-independent basis, Debye-Ang):
   XX=           -100.1127   YY=           -109.5719   ZZ=           -100.1803
   XY=             -2.7796   XZ=             -1.2455   YZ=             -1.8411

 Normal termination of Gaussian 16 at Wed May  5 21:12:27 2021.
