 Gaussian 16, Revision A.03,
 Gaussian 16:  EM64L-G16RevA.03 25-Dec-2016

 -------------
 #p 6-31g* mp2
 -------------

 ------------------------------------------------------
 Input file generated by CHIRIPA (05-May-2021 14:55:21)
 ------------------------------------------------------
 Symbolic Z-matrix:
 Charge =  0 Multiplicity = 1

                         Standard orientation:
 ---------------------------------------------------------------------
 Center     Atomic      Atomic             Coordinates (Angstroms)
 Number     Number       Type             X           Y           Z
 ---------------------------------------------------------------------
      1          6           0       -3.842833    1.407542    0.993739
      2          6           0       -2.755255    1.760203    0.187932
      3          6           0       -1.980794    0.774304   -0.430745
      4          6           0       -2.323771   -0.560487   -0.221004
      5          6           0       -3.401299   -0.943625    0.576133
      6          6           0       -4.161821    0.059131    1.184931
      7          1           0       -4.439039    2.179959    1.470505
      8          1           0       -2.505197    2.806596    0.037669
      9          1           0       -1.133487    1.019287   -1.059611
     10          1           0       -3.626048   -1.995166    0.707160
     11          1           0       -5.005889   -0.217689    1.810203
     12          7           0       -1.511262   -1.613137   -0.870741
     13          8           0       -1.834126   -2.781960   -0.670118
     14          8           0       -0.566938   -1.249449   -1.568323
     15          6           0        3.259896   -0.244849   -0.004237
     16          6           0        4.102109   -0.955648    1.055682
     17          6           0        4.321582   -2.435815    0.741464
     18          1           0        2.288529   -0.750613   -0.091375
     19          1           0        3.752721   -0.344070   -0.981312
     20          1           0        3.608545   -0.853932    2.030702
     21          1           0        5.071512   -0.448018    1.140443
     22          1           0        4.835018   -2.553893   -0.218246
     23          1           0        3.363739   -2.962114    0.677072
     24          1           0        4.926049   -2.924464    1.511985
     25          6           0        3.031769    1.235563    0.295872
     26          6           0        2.189558    1.946363   -0.764046
     27          6           0        1.970083    3.426528   -0.449828
     28          1           0        2.538946    1.334783    1.272947
     29          1           0        4.003137    1.741326    0.383010
     30          1           0        1.220154    1.438732   -0.848807
     31          1           0        2.683121    1.844645   -1.739067
     32          1           0        2.927927    3.952827   -0.385437
     33          1           0        1.456649    3.544607    0.509882
     34          1           0        1.365617    3.915177   -1.220350
 ---------------------------------------------------------------------

 SCF Done:  E(RHF) =  -669.535944765     A.U. after   15 cycles
 E2 =    -0.2092033529D+01 EUMP2 =    -0.67162797829404D+03

 The electronic state is 1-A.
 Alpha  occ. eigenvalues --  -20.60928 -20.60922 -15.85953 -11.31274 -11.27837
 Alpha  occ. eigenvalues --  -11.27818 -11.27571 -11.26847 -11.26832 -11.21518
 Alpha  occ. eigenvalues --  -11.21257 -11.21103 -11.21061 -11.20698 -11.20428
 Alpha  occ. eigenvalues --   -1.59986  -1.39541  -1.19443  -1.08847  -1.08054
 Alpha  occ. eigenvalues --   -1.04839  -1.03232  -0.95690  -0.95673  -0.86690
 Alpha  occ. eigenvalues --   -0.86240  -0.82519  -0.79316  -0.77821  -0.77543
 Alpha  occ. eigenvalues --   -0.72171  -0.71298  -0.70559  -0.65096  -0.64900
 Alpha  occ. eigenvalues --   -0.64649  -0.62211  -0.60619  -0.59081  -0.57267
 Alpha  occ. eigenvalues --   -0.55347  -0.54959  -0.53170  -0.52942  -0.52412
 Alpha  occ. eigenvalues --   -0.52079  -0.49606  -0.48942  -0.48930  -0.47606
 Alpha  occ. eigenvalues --   -0.46344  -0.45425  -0.45306  -0.44774  -0.43446
 Alpha  occ. eigenvalues --   -0.37422  -0.36435
 Alpha virt. eigenvalues --    0.04904   0.11163   0.16412   0.20475   0.23238
 Alpha virt. eigenvalues --    0.24323   0.26055   0.27365   0.27491   0.28340
 Alpha virt. eigenvalues --    0.29362   0.30775   0.31517   0.31770   0.31959

 Mulliken charges:
               1
     1  C   -0.170562
     2  C   -0.220851
     3  C   -0.175802
     4  C    0.156744
     5  C   -0.170544
     6  C   -0.218581
     7  H    0.226026
     8  H    0.224831
     9  H    0.285175
    10  H    0.275728
    11  H    0.223767
    12  N    0.487597
    13  O   -0.459019
    14  O   -0.461482
    15  C   -0.303077
    16  C   -0.299493
    17  C   -0.476092
    18  H    0.164432
    19  H    0.150564
    20  H    0.148942
    21  H    0.148778
    22  H    0.155540
    23  H    0.161228
    24  H    0.157157
    25  C   -0.297583
    26  C   -0.305513
    27  C   -0.477002
    28  H    0.146203
    29  H    0.148195
    30  H    0.154131
    31  H    0.156195
    32  H    0.158012
    33  H    0.151109
    34  H    0.155248
 Sum of Mulliken charges =  -0.00000

 Dipole moment (field-independent basis, Debye):
    X=             -2.9385    Y=              3.5625    Z=              2.2224  Tot=              5.1250
 Quadrupole moment (field-independent basis, Debye-Ang):
   XX=            -79.6164   YY=            -98.1503   ZZ=            -95.4542
   XY=             -4.4769   XZ=             -7.0232   YZ=             -3.8966

 Normal termination of Gaussian 16 at Thu May  6 04:36:06 2021.
