 Gaussian 16, Revision A.03,
 Gaussian 16:  EM64L-G16RevA.03 25-Dec-2016

 -------------
 #p 6-31g* mp2
 -------------

 ------------------------------------------------------
 Input file generated by CHIRIPA (05-May-2021 14:57:21)
 ------------------------------------------------------
 Symbolic Z-matrix:
 Charge =  0 Multiplicity = 1

                         Standard orientation:
 ---------------------------------------------------------------------
 Center     Atomic      Atomic             Coordinates (Angstroms)
 Number     Number       Type             X           Y           Z
 ---------------------------------------------------------------------
      1          6           0        3.567737    2.039359   -0.437183
      2          6           0        3.552371    1.077071   -1.452213
      3          6           0        3.097803   -0.219641   -1.194425
      4          6           0        2.663847   -0.520996    0.095597
      5          6           0        2.666973    0.415724    1.127990
      6          6           0        3.125768    1.706202    0.847414
      7          1           0        3.922498    3.044255   -0.646290
      8          1           0        3.895019    1.332977   -2.450787
      9          1           0        3.075156   -0.984051   -1.961616
     10          1           0        2.319178    0.130825    2.113530
     11          1           0        3.136574    2.451490    1.637651
     12          7           0        2.180379   -1.890466    0.380568
     13          8           0        1.803319   -2.130802    1.525427
     14          8           0        2.187650   -2.697591   -0.546327
     15          6           0       -3.616857   -2.055762   -0.323906
     16          6           0       -2.239650   -1.825914   -0.240284
     17          6           0       -1.744505   -0.527418   -0.087688
     18          6           0       -2.659098    0.522582   -0.022018
     19          6           0       -4.036821    0.325807   -0.102328
     20          6           0       -4.509473   -0.981061   -0.254782
     21          1           0       -3.992760   -3.067717   -0.442390
     22          1           0       -1.544096   -2.658621   -0.293671
     23          1           0       -0.683239   -0.321041   -0.020302
     24          1           0       -4.705569    1.176113   -0.045991
     25          1           0       -5.579546   -1.156583   -0.319445
     26          7           0       -2.146817    1.901674    0.139454
     27          8           0       -2.973355    2.809650    0.194676
     28          8           0       -0.928453    2.048515    0.207737
 ---------------------------------------------------------------------

 SCF Done:  E(RHF) =  -868.340023326     A.U. after   16 cycles
 E2 =    -0.2599818282D+01 EUMP2 =    -0.87093984160767D+03

 The electronic state is 1-A.
 Alpha  occ. eigenvalues --  -20.61155 -20.61140 -20.60671 -20.60656 -15.86176
 Alpha  occ. eigenvalues --  -15.85705 -11.31093 -11.30835 -11.27632 -11.27573
 Alpha  occ. eigenvalues --  -11.27385 -11.27322 -11.27215 -11.27019 -11.26519
 Alpha  occ. eigenvalues --  -11.26426 -11.26370 -11.26178  -1.60253  -1.59745
 Alpha  occ. eigenvalues --   -1.39803  -1.39304  -1.19207  -1.18965  -1.08688
 Alpha  occ. eigenvalues --   -1.08403  -1.04523  -1.04316  -0.95595  -0.95286
 Alpha  occ. eigenvalues --   -0.85959  -0.85727  -0.82437  -0.82112  -0.77544
 Alpha  occ. eigenvalues --   -0.77197  -0.72386  -0.71947  -0.71606  -0.71060
 Alpha  occ. eigenvalues --   -0.70302  -0.70066  -0.64856  -0.64610  -0.64527
 Alpha  occ. eigenvalues --   -0.64292  -0.61894  -0.61659  -0.55041  -0.54830
 Alpha  occ. eigenvalues --   -0.52886  -0.52674  -0.52622  -0.52358  -0.49171
 Alpha  occ. eigenvalues --   -0.49117  -0.48698  -0.48670  -0.45292  -0.44764
 Alpha  occ. eigenvalues --   -0.37136  -0.36936  -0.36064  -0.35901
 Alpha virt. eigenvalues --    0.04907   0.05314   0.11535   0.11771   0.16528
 Alpha virt. eigenvalues --    0.16876   0.21652   0.21836   0.27179   0.27647
 Alpha virt. eigenvalues --    0.28523   0.28597   0.31330   0.31518   0.32390

 Mulliken charges:
               1
     1  C   -0.165700
     2  C   -0.217111
     3  C   -0.172654
     4  C    0.149384
     5  C   -0.166756
     6  C   -0.209141
     7  H    0.227893
     8  H    0.223189
     9  H    0.272868
    10  H    0.275324
    11  H    0.227263
    12  N    0.485635
    13  O   -0.461801
    14  O   -0.464757
    15  C   -0.171151
    16  C   -0.220075
    17  C   -0.170731
    18  C    0.156533
    19  C   -0.172102
    20  C   -0.218746
    21  H    0.226530
    22  H    0.238566
    23  H    0.271723
    24  H    0.273267
    25  H    0.221905
    26  N    0.487997
    27  O   -0.462099
    28  O   -0.465251
 Sum of Mulliken charges =  -0.00000

 Dipole moment (field-independent basis, Debye):
    X=              0.0819    Y=              0.0935    Z=             -1.5226  Tot=              1.5276
 Quadrupole moment (field-independent basis, Debye-Ang):
   XX=            -82.2396   YY=           -114.7659   ZZ=           -101.3671
   XY=             23.3887   XZ=             -1.7739   YZ=              2.2717

 Normal termination of Gaussian 16 at Thu May  6 16:07:45 2021.
