 Gaussian 16, Revision A.03,
 Gaussian 16:  EM64L-G16RevA.03 25-Dec-2016

 -------------
 #p 6-31g* mp2
 -------------

 ------------------------------------------------------
 Input file generated by CHIRIPA (05-May-2021 14:51:11)
 ------------------------------------------------------
 Symbolic Z-matrix:
 Charge =  0 Multiplicity = 1

                         Standard orientation:
 ---------------------------------------------------------------------
 Center     Atomic      Atomic             Coordinates (Angstroms)
 Number     Number       Type             X           Y           Z
 ---------------------------------------------------------------------
      1          6           0       -4.218708    0.552148   -0.351050
      2          6           0       -5.040272    1.583795    0.422722
      3          6           0       -5.637512    2.662497   -0.481434
      4          1           0       -3.412825    1.066099   -0.892671
      5          1           0       -4.856565    0.081970   -1.112277
      6          1           0       -4.401424    2.050902    1.183182
      7          1           0       -5.844176    1.067306    0.962716
      8          1           0       -6.297048    2.214505   -1.231713
      9          1           0       -4.846098    3.203689   -1.009994
     10          1           0       -6.220798    3.389476    0.092273
     11          6           0       -3.615114   -0.532740    0.539129
     12          6           0       -2.793550   -1.564386   -0.234644
     13          6           0       -2.196309   -2.643089    0.669513
     14          1           0       -2.977257   -0.062562    1.300355
     15          1           0       -4.420997   -1.046691    1.080749
     16          1           0       -1.989646   -1.047898   -0.774638
     17          1           0       -3.432398   -2.031494   -0.995104
     18          1           0       -2.987724   -3.184280    1.198072
     19          1           0       -1.536774   -2.195096    1.419791
     20          1           0       -1.613024   -3.370068    0.095806
     21          6           0        4.260177    0.560542    0.280687
     22          6           0        5.645857    0.900094   -0.269387
     23          6           0        6.319857    2.042842    0.490641
     24          1           0        3.625696    1.456347    0.236957
     25          1           0        4.350361    0.292922    1.342592
     26          1           0        5.553274    1.165654   -1.330293
     27          1           0        6.277055    0.003326   -0.224520
     28          1           0        6.441382    1.783776    1.547390
     29          1           0        5.713488    2.952708    0.435334
     30          1           0        7.309183    2.269037    0.080846
     31          6           0        3.573645   -0.579950   -0.468766
     32          6           0        2.187964   -0.919502    0.081309
     33          6           0        1.513964   -2.062250   -0.678720
     34          1           0        3.483462   -0.312331   -1.530671
     35          1           0        4.208125   -1.475755   -0.425036
     36          1           0        1.556767   -0.022734    0.036441
     37          1           0        2.280548   -1.185062    1.142215
     38          1           0        2.120334   -2.972117   -0.623412
     39          1           0        1.392441   -1.803185   -1.735469
     40          1           0        0.524640   -2.288446   -0.268924
 ---------------------------------------------------------------------

 SCF Done:  E(RHF) =  -470.732950007     A.U. after   11 cycles
 E2 =    -0.1582775656D+01 EUMP2 =    -0.47231572566347D+03

 The electronic state is 1-A.
 Alpha  occ. eigenvalues --  -11.21618 -11.21611 -11.21599 -11.21588 -11.21418
 Alpha  occ. eigenvalues --  -11.21396 -11.21358 -11.21336 -11.21103 -11.21080
 Alpha  occ. eigenvalues --  -11.21071 -11.20954  -1.08450  -1.08414  -1.03578
 Alpha  occ. eigenvalues --   -1.03487  -0.96061  -0.95906  -0.87082  -0.86918
 Alpha  occ. eigenvalues --   -0.79622  -0.79566  -0.78255  -0.78233  -0.65092
 Alpha  occ. eigenvalues --   -0.65043  -0.61031  -0.60898  -0.59614  -0.59123
 Alpha  occ. eigenvalues --   -0.57725  -0.57444  -0.55298  -0.55238  -0.52919
 Alpha  occ. eigenvalues --   -0.52522  -0.52418  -0.52231  -0.49940  -0.49890
 Alpha  occ. eigenvalues --   -0.47942  -0.47865  -0.46649  -0.46607  -0.45798
 Alpha  occ. eigenvalues --   -0.45772  -0.45721  -0.45702  -0.43896  -0.43646
 Alpha virt. eigenvalues --    0.21384   0.23111   0.23504   0.25244   0.26487
 Alpha virt. eigenvalues --    0.26712   0.27229   0.27402   0.27565   0.28904
 Alpha virt. eigenvalues --    0.30967   0.31323   0.31531   0.31769   0.32256

 Mulliken charges:
               1
     1  C   -0.298281
     2  C   -0.299684
     3  C   -0.475706
     4  H    0.149548
     5  H    0.149604
     6  H    0.151958
     7  H    0.151991
     8  H    0.155214
     9  H    0.155124
    10  H    0.160294
    11  C   -0.298310
    12  C   -0.301947
    13  C   -0.480755
    14  H    0.149718
    15  H    0.149743
    16  H    0.154249
    17  H    0.152318
    18  H    0.157039
    19  H    0.155649
    20  H    0.162025
    21  C   -0.298196
    22  C   -0.299625
    23  C   -0.475689
    24  H    0.149374
    25  H    0.149461
    26  H    0.151905
    27  H    0.151980
    28  H    0.155171
    29  H    0.155098
    30  H    0.160253
    31  C   -0.298286
    32  C   -0.299031
    33  C   -0.486787
    34  H    0.149444
    35  H    0.149750
    36  H    0.150839
    37  H    0.151592
    38  H    0.154531
    39  H    0.154209
    40  H    0.174218
 Sum of Mulliken charges =  -0.00000

 Dipole moment (field-independent basis, Debye):
    X=             -0.0381    Y=             -0.0195    Z=              0.0084  Tot=              0.0436
 Quadrupole moment (field-independent basis, Debye-Ang):
   XX=            -84.5724   YY=            -85.3304   ZZ=            -84.8599
   XY=              0.1641   XZ=             -0.1220   YZ=             -0.3172

 Normal termination of Gaussian 16 at Wed May  5 18:15:20 2021.
