 Gaussian 16, Revision A.03,
 Gaussian 16:  EM64L-G16RevA.03 25-Dec-2016

 -------------
 #p 6-31g* mp2
 -------------

 ------------------------------------------------------
 Input file generated by CHIRIPA (05-May-2021 14:55:19)
 ------------------------------------------------------
 Symbolic Z-matrix:
 Charge =  0 Multiplicity = 1

                         Standard orientation:
 ---------------------------------------------------------------------
 Center     Atomic      Atomic             Coordinates (Angstroms)
 Number     Number       Type             X           Y           Z
 ---------------------------------------------------------------------
      1          6           0       -1.692039    1.646797   -0.599104
      2          6           0       -3.006230    2.068684   -0.372314
      3          6           0       -4.018712    1.136538   -0.126282
      4          6           0       -3.680089   -0.215675   -0.114185
      5          6           0       -2.380132   -0.667277   -0.336575
      6          6           0       -1.383728    0.282568   -0.580544
      7          1           0       -0.911764    2.377785   -0.789427
      8          1           0       -3.248577    3.127514   -0.386137
      9          1           0       -5.044413    1.435560    0.052440
     10          1           0       -2.169194   -1.729597   -0.316562
     11          1           0       -0.363980   -0.047967   -0.756342
     12          7           0       -4.743448   -1.211865    0.145186
     13          8           0       -4.419248   -2.397403    0.150580
     14          8           0       -5.880974   -0.788277    0.338176
     15          6           0        3.999667    0.653162    0.157733
     16          6           0        2.678364    0.400587    0.884608
     17          6           0        1.715527    1.584502    0.789307
     18          1           0        4.476087    1.549769    0.577334
     19          1           0        3.792609    0.874479   -0.898459
     20          1           0        2.887947    0.178450    1.938813
     21          1           0        2.205126   -0.495634    0.463358
     22          1           0        1.477318    1.804112   -0.256461
     23          1           0        2.164018    2.482027    1.227377
     24          1           0        0.777480    1.382474    1.315721
     25          6           0        4.972710   -0.521347    0.244015
     26          6           0        6.294013   -0.268771   -0.482861
     27          6           0        7.256851   -1.452686   -0.387558
     28          1           0        5.179767   -0.742664    1.300207
     29          1           0        4.496290   -1.417953   -0.175586
     30          1           0        6.767251    0.627449   -0.061610
     31          1           0        6.084430   -0.046635   -1.537064
     32          1           0        6.808359   -2.350211   -0.825630
     33          1           0        7.495059   -1.672296    0.658208
     34          1           0        8.194897   -1.250658   -0.913974
 ---------------------------------------------------------------------

 SCF Done:  E(RHF) =  -669.534531142     A.U. after   15 cycles
 E2 =    -0.2092376694D+01 EUMP2 =    -0.67162690783538D+03

 The electronic state is 1-A.
 Alpha  occ. eigenvalues --  -20.60717 -20.60712 -15.85770 -11.31120 -11.27694
 Alpha  occ. eigenvalues --  -11.27682 -11.27377 -11.26691 -11.26651 -11.22616
 Alpha  occ. eigenvalues --  -11.22241 -11.22191 -11.22121 -11.21996 -11.21485
 Alpha  occ. eigenvalues --   -1.59793  -1.39347  -1.19293  -1.09192  -1.08685
 Alpha  occ. eigenvalues --   -1.04705  -1.04305  -0.96782  -0.95517  -0.87809
 Alpha  occ. eigenvalues --   -0.86079  -0.82359  -0.80393  -0.78954  -0.77412
 Alpha  occ. eigenvalues --   -0.71989  -0.71117  -0.70404  -0.65873  -0.64943
 Alpha  occ. eigenvalues --   -0.64714  -0.62164  -0.61582  -0.60131  -0.58356
 Alpha  occ. eigenvalues --   -0.56079  -0.55194  -0.53556  -0.53208  -0.52878
 Alpha  occ. eigenvalues --   -0.52751  -0.50709  -0.48747  -0.48743  -0.48689
 Alpha  occ. eigenvalues --   -0.47428  -0.46504  -0.46406  -0.44757  -0.44541
 Alpha  occ. eigenvalues --   -0.37227  -0.36293
 Alpha virt. eigenvalues --    0.05116   0.11274   0.16588   0.19690   0.22491
 Alpha virt. eigenvalues --    0.23770   0.25641   0.25666   0.26855   0.27867
 Alpha virt. eigenvalues --    0.28776   0.29808   0.30882   0.31413   0.31954

 Mulliken charges:
               1
     1  C   -0.171884
     2  C   -0.219357
     3  C   -0.171043
     4  C    0.158207
     5  C   -0.172437
     6  C   -0.221028
     7  H    0.229326
     8  H    0.223237
     9  H    0.275302
    10  H    0.275200
    11  H    0.228513
    12  N    0.488108
    13  O   -0.460692
    14  O   -0.460659
    15  C   -0.298569
    16  C   -0.301771
    17  C   -0.485145
    18  H    0.152024
    19  H    0.148126
    20  H    0.158207
    21  H    0.148044
    22  H    0.143346
    23  H    0.160842
    24  H    0.169150
    25  C   -0.298869
    26  C   -0.300157
    27  C   -0.476142
    28  H    0.151600
    29  H    0.149875
    30  H    0.152776
    31  H    0.151974
    32  H    0.155900
    33  H    0.156252
    34  H    0.161746
 Sum of Mulliken charges =  -0.00000

 Dipole moment (field-independent basis, Debye):
    X=              3.9633    Y=              3.5209    Z=             -0.8259  Tot=              5.3653
 Quadrupole moment (field-independent basis, Debye-Ang):
   XX=           -120.2580   YY=            -94.2786   ZZ=            -94.5308
   XY=            -16.0028   XZ=              3.1966   YZ=              0.5719

 Normal termination of Gaussian 16 at Thu May  6 07:41:14 2021.
