 Gaussian 16, Revision A.03,
 Gaussian 16:  EM64L-G16RevA.03 25-Dec-2016

 -------------
 #p 6-31g* mp2
 -------------

 ------------------------------------------------------
 Input file generated by CHIRIPA (05-May-2021 14:51:09)
 ------------------------------------------------------
 Symbolic Z-matrix:
 Charge =  0 Multiplicity = 1

                         Standard orientation:
 ---------------------------------------------------------------------
 Center     Atomic      Atomic             Coordinates (Angstroms)
 Number     Number       Type             X           Y           Z
 ---------------------------------------------------------------------
      1          6           0        3.156986   -0.229418   -0.248393
      2          6           0        4.330066   -1.184786   -0.026715
      3          6           0        3.995475   -2.628787   -0.401822
      4          1           0        2.296118   -0.572910    0.341407
      5          1           0        2.851173   -0.273864   -1.302858
      6          1           0        4.634471   -1.137521    1.026717
      7          1           0        5.188301   -0.838872   -0.616962
      8          1           0        3.712431   -2.696954   -1.457208
      9          1           0        3.155454   -2.997300    0.195810
     10          1           0        4.848041   -3.294625   -0.235533
     11          6           0        3.476034    1.217886    0.122077
     12          6           0        2.302954    2.173255   -0.099600
     13          6           0        2.637545    3.617255    0.275507
     14          1           0        3.781847    1.262332    1.176543
     15          1           0        4.336902    1.561378   -0.467722
     16          1           0        1.444719    1.827340    0.490646
     17          1           0        1.998549    2.125989   -1.153033
     18          1           0        3.477566    3.985768   -0.322125
     19          1           0        2.920589    3.685422    1.330893
     20          1           0        1.784979    4.283093    0.109218
     21          6           0       -3.745553    0.050822   -0.256637
     22          6           0       -5.204677    0.019572    0.199394
     23          6           0       -6.050306    1.116025   -0.449064
     24          1           0       -3.315732    1.034292   -0.022147
     25          1           0       -3.707994   -0.054116   -1.349785
     26          1           0       -5.239400    0.123148    1.291493
     27          1           0       -5.631018   -0.964003   -0.036037
     28          1           0       -6.045452    1.012404   -1.538945
     29          1           0       -5.651607    2.105733   -0.203872
     30          1           0       -7.089812    1.075256   -0.109025
     31          6           0       -2.887468   -1.039290    0.382952
     32          6           0       -1.428343   -1.008040   -0.073078
     33          6           0       -0.582713   -2.104494    0.575379
     34          1           0       -2.925027   -0.934352    1.476101
     35          1           0       -3.317288   -2.022760    0.148462
     36          1           0       -1.002001   -0.024465    0.162352
     37          1           0       -1.393621   -1.111616   -1.165178
     38          1           0       -0.981412   -3.094201    0.330187
     39          1           0       -0.587569   -2.000872    1.665260
     40          1           0        0.456792   -2.063725    0.235340
 ---------------------------------------------------------------------

 SCF Done:  E(RHF) =  -470.733193630     A.U. after   11 cycles
 E2 =    -0.1583220999D+01 EUMP2 =    -0.47231641462943D+03

 The electronic state is 1-A.
 Alpha  occ. eigenvalues --  -11.21619 -11.21605 -11.21595 -11.21583 -11.21404
 Alpha  occ. eigenvalues --  -11.21395 -11.21341 -11.21335 -11.21086 -11.21079
 Alpha  occ. eigenvalues --  -11.21066 -11.21030  -1.08450  -1.08410  -1.03547
 Alpha  occ. eigenvalues --   -1.03513  -0.95998  -0.95963  -0.87019  -0.86977
 Alpha  occ. eigenvalues --   -0.79642  -0.79541  -0.78277  -0.78216  -0.65114
 Alpha  occ. eigenvalues --   -0.65021  -0.60951  -0.60913  -0.59457  -0.59254
 Alpha  occ. eigenvalues --   -0.57648  -0.57538  -0.55303  -0.55231  -0.52737
 Alpha  occ. eigenvalues --   -0.52651  -0.52469  -0.52336  -0.49959  -0.49884
 Alpha  occ. eigenvalues --   -0.48044  -0.47786  -0.46683  -0.46560  -0.45824
 Alpha  occ. eigenvalues --   -0.45750  -0.45731  -0.45626  -0.43795  -0.43718
 Alpha virt. eigenvalues --    0.20996   0.23055   0.23372   0.24072   0.26005
 Alpha virt. eigenvalues --    0.26777   0.26936   0.27281   0.27846   0.29302
 Alpha virt. eigenvalues --    0.30002   0.31377   0.31648   0.31814   0.32491

 Mulliken charges:
               1
     1  C   -0.305347
     2  C   -0.299357
     3  C   -0.478456
     4  H    0.157307
     5  H    0.149261
     6  H    0.151868
     7  H    0.151973
     8  H    0.155142
     9  H    0.157587
    10  H    0.160573
    11  C   -0.297764
    12  C   -0.301317
    13  C   -0.475734
    14  H    0.149406
    15  H    0.149762
    16  H    0.153012
    17  H    0.152384
    18  H    0.155364
    19  H    0.155137
    20  H    0.160208
    21  C   -0.298211
    22  C   -0.299635
    23  C   -0.475695
    24  H    0.149635
    25  H    0.149557
    26  H    0.151858
    27  H    0.151941
    28  H    0.155181
    29  H    0.155163
    30  H    0.160222
    31  C   -0.298262
    32  C   -0.301182
    33  C   -0.483914
    34  H    0.149258
    35  H    0.149742
    36  H    0.153592
    37  H    0.152220
    38  H    0.155308
    39  H    0.153933
    40  H    0.168278
 Sum of Mulliken charges =  -0.00000

 Dipole moment (field-independent basis, Debye):
    X=              0.0196    Y=              0.0010    Z=             -0.0097  Tot=              0.0219
 Quadrupole moment (field-independent basis, Debye-Ang):
   XX=            -85.2110   YY=            -86.0938   ZZ=            -83.4666
   XY=              0.6233   XZ=             -0.4050   YZ=              0.3807

 Normal termination of Gaussian 16 at Wed May  5 22:59:34 2021.
