 Gaussian 16, Revision A.03,
 Gaussian 16:  EM64L-G16RevA.03 25-Dec-2016

 -------------
 #p 6-31g* mp2
 -------------

 ------------------------------------------------------
 Input file generated by CHIRIPA (05-May-2021 14:53:12)
 ------------------------------------------------------
 Symbolic Z-matrix:
 Charge =  0 Multiplicity = 1

                         Standard orientation:
 ---------------------------------------------------------------------
 Center     Atomic      Atomic             Coordinates (Angstroms)
 Number     Number       Type             X           Y           Z
 ---------------------------------------------------------------------
      1          6           0       -5.420964    0.369898   -0.075110
      2          6           0       -6.648568   -0.495859   -0.360488
      3          6           0       -7.861255    0.324734   -0.800727
      4          1           0       -5.670798    1.104029    0.703080
      5          1           0       -5.168302    0.944285   -0.977129
      6          1           0       -6.898007   -1.069480    0.541374
      7          1           0       -6.395725   -1.228139   -1.137954
      8          1           0       -7.636226    0.885184   -1.713886
      9          1           0       -8.141362    1.044745   -0.025017
     10          1           0       -8.727498   -0.314002   -0.999471
     11          6           0       -4.200529   -0.436097    0.366067
     12          6           0       -2.972926    0.429660    0.651444
     13          6           0       -1.760239   -0.390933    1.091683
     14          1           0       -4.453192   -1.010484    1.268085
     15          1           0       -3.950695   -1.170228   -0.412124
     16          1           0       -3.225768    1.161940    1.428910
     17          1           0       -2.723487    1.003281   -0.250417
     18          1           0       -1.480132   -1.110944    0.315973
     19          1           0       -1.985267   -0.951383    2.004842
     20          1           0       -0.893996    0.247803    1.290428
     21          6           0        6.278616   -0.044324   -0.211073
     22          6           0        5.615845    1.183449   -0.111919
     23          6           0        4.219791    1.234309   -0.057227
     24          6           0        3.514751    0.032644   -0.104236
     25          6           0        4.146194   -1.206239   -0.202907
     26          6           0        5.542972   -1.233153   -0.256171
     27          1           0        7.363385   -0.074532   -0.253003
     28          1           0        6.184575    2.108300   -0.076704
     29          1           0        3.681204    2.171024    0.019637
     30          1           0        3.552066   -2.111410   -0.235988
     31          1           0        6.055016   -2.188103   -0.333163
     32          7           0        2.036427    0.073812   -0.047093
     33          8           0        1.438242   -0.999012   -0.090218
     34          8           0        1.503894    1.178125    0.039739
 ---------------------------------------------------------------------

 SCF Done:  E(RHF) =  -669.535908128     A.U. after   15 cycles
 E2 =    -0.2091868764D+01 EUMP2 =    -0.67162777689207D+03

 The electronic state is 1-A.
 Alpha  occ. eigenvalues --  -20.61029 -20.61020 -15.86039 -11.31344 -11.27900
 Alpha  occ. eigenvalues --  -11.27896 -11.27633 -11.26900 -11.26891 -11.20807
 Alpha  occ. eigenvalues --  -11.20420 -11.20385 -11.20105 -11.19903 -11.18704
 Alpha  occ. eigenvalues --   -1.60073  -1.39630  -1.19506  -1.08915  -1.07256
 Alpha  occ. eigenvalues --   -1.04898  -1.02211  -0.95765  -0.94621  -0.86299
 Alpha  occ. eigenvalues --   -0.85643  -0.82593  -0.78348  -0.77652  -0.76991
 Alpha  occ. eigenvalues --   -0.72250  -0.71385  -0.70614  -0.65161  -0.64902
 Alpha  occ. eigenvalues --   -0.63906  -0.62244  -0.59625  -0.58128  -0.56221
 Alpha  occ. eigenvalues --   -0.55401  -0.53947  -0.53232  -0.52988  -0.51377
 Alpha  occ. eigenvalues --   -0.51071  -0.49126  -0.48978  -0.48370  -0.46610
 Alpha  occ. eigenvalues --   -0.45404  -0.45048  -0.44518  -0.44412  -0.42402
 Alpha  occ. eigenvalues --   -0.37482  -0.36497
 Alpha virt. eigenvalues --    0.04862   0.11159   0.16369   0.21298   0.23926
 Alpha virt. eigenvalues --    0.25743   0.27218   0.27747   0.28180   0.28581
 Alpha virt. eigenvalues --    0.29533   0.30875   0.32374   0.32666   0.32792

 Mulliken charges:
               1
     1  C   -0.297028
     2  C   -0.298637
     3  C   -0.474995
     4  H    0.147438
     5  H    0.148340
     6  H    0.150351
     7  H    0.150835
     8  H    0.154248
     9  H    0.153992
    10  H    0.157653
    11  C   -0.297031
    12  C   -0.299951
    13  C   -0.475730
    14  H    0.145778
    15  H    0.148230
    16  H    0.144563
    17  H    0.152724
    18  H    0.164234
    19  H    0.139502
    20  H    0.177321
    21  C   -0.170475
    22  C   -0.218597
    23  C   -0.170663
    24  C    0.159658
    25  C   -0.170811
    26  C   -0.218599
    27  H    0.226170
    28  H    0.223991
    29  H    0.275917
    30  H    0.275991
    31  H    0.224013
    32  N    0.487902
    33  O   -0.456573
    34  O   -0.459763
 Sum of Mulliken charges =  -0.00000

 Dipole moment (field-independent basis, Debye):
    X=              5.7414    Y=             -0.1482    Z=             -0.2832  Tot=              5.7503
 Quadrupole moment (field-independent basis, Debye-Ang):
   XX=            -61.3194   YY=            -90.0261   ZZ=            -95.0547
   XY=              0.1778   XZ=             -1.6691   YZ=              0.6859

 Normal termination of Gaussian 16 at Thu May  6 05:42:18 2021.
