 Gaussian 16, Revision A.03,
 Gaussian 16:  EM64L-G16RevA.03 25-Dec-2016

 -------------
 #p 6-31g* mp2
 -------------

 ------------------------------------------------------
 Input file generated by CHIRIPA (05-May-2021 14:55:24)
 ------------------------------------------------------
 Symbolic Z-matrix:
 Charge =  0 Multiplicity = 1

                         Standard orientation:
 ---------------------------------------------------------------------
 Center     Atomic      Atomic             Coordinates (Angstroms)
 Number     Number       Type             X           Y           Z
 ---------------------------------------------------------------------
      1          6           0       -1.051650   -0.091129    2.248736
      2          6           0       -0.487061   -0.388473    1.004008
      3          6           0       -1.290894   -0.482706   -0.135958
      4          6           0       -2.661702   -0.272711    0.005735
      5          6           0       -3.253960    0.025090    1.232045
      6          6           0       -2.430866    0.114341    2.358588
      7          1           0       -0.419733   -0.019861    3.129075
      8          1           0        0.583747   -0.548532    0.915713
      9          1           0       -0.880053   -0.711532   -1.111799
     10          1           0       -4.324648    0.179498    1.288637
     11          1           0       -2.872084    0.345405    3.323979
     12          7           0       -3.522879   -0.369835   -1.193990
     13          8           0       -4.727815   -0.180484   -1.042628
     14          8           0       -2.976626   -0.633472   -2.262981
     15          6           0        3.083567    1.013031    0.047575
     16          6           0        2.317242    1.950996   -0.885674
     17          6           0        2.041224    3.316368   -0.255304
     18          1           0        2.510662    0.880947    0.975626
     19          1           0        4.034007    1.485695    0.331561
     20          1           0        1.369152    1.476112   -1.168917
     21          1           0        2.891947    2.080711   -1.811688
     22          1           0        2.979090    3.814152    0.011568
     23          1           0        1.447642    3.206119    0.657990
     24          1           0        1.492490    3.970945   -0.939613
     25          6           0        3.367043   -0.355870   -0.568445
     26          6           0        4.133368   -1.293834    0.364805
     27          6           0        4.409386   -2.659207   -0.265565
     28          1           0        2.416603   -0.828534   -0.852430
     29          1           0        3.939948   -0.223786   -1.496495
     30          1           0        3.558663   -1.423548    1.290819
     31          1           0        5.081458   -0.818951    0.648048
     32          1           0        5.002967   -2.548957   -1.178860
     33          1           0        3.471521   -3.156990   -0.532436
     34          1           0        4.958120   -3.313784    0.418744
 ---------------------------------------------------------------------

 SCF Done:  E(RHF) =  -669.535119560     A.U. after   15 cycles
 E2 =    -0.2093077331D+01 EUMP2 =    -0.67162819689140D+03

 The electronic state is 1-A.
 Alpha  occ. eigenvalues --  -20.60779 -20.60773 -15.85832 -11.31213 -11.27782
 Alpha  occ. eigenvalues --  -11.27779 -11.27521 -11.26801 -11.26755 -11.22475
 Alpha  occ. eigenvalues --  -11.22346 -11.22283 -11.22218 -11.21732 -11.21558
 Alpha  occ. eigenvalues --   -1.59854  -1.39407  -1.19386  -1.09297  -1.08773
 Alpha  occ. eigenvalues --   -1.04792  -1.04238  -0.96695  -0.95610  -0.87699
 Alpha  occ. eigenvalues --   -0.86190  -0.82445  -0.80312  -0.79103  -0.77497
 Alpha  occ. eigenvalues --   -0.72050  -0.71177  -0.70496  -0.66207  -0.65036
 Alpha  occ. eigenvalues --   -0.64627  -0.62106  -0.61627  -0.60050  -0.58296
 Alpha  occ. eigenvalues --   -0.56020  -0.55267  -0.53331  -0.53128  -0.53104
 Alpha  occ. eigenvalues --   -0.52822  -0.50642  -0.48811  -0.48805  -0.48613
 Alpha  occ. eigenvalues --   -0.47365  -0.46609  -0.46592  -0.44809  -0.44540
 Alpha  occ. eigenvalues --   -0.37362  -0.36375
 Alpha virt. eigenvalues --    0.05018   0.11184   0.16411   0.18510   0.23150
 Alpha virt. eigenvalues --    0.23691   0.24368   0.25412   0.27018   0.28794
 Alpha virt. eigenvalues --    0.29832   0.30943   0.31180   0.31363   0.31773

 Mulliken charges:
               1
     1  C   -0.173468
     2  C   -0.223989
     3  C   -0.174570
     4  C    0.158847
     5  C   -0.170980
     6  C   -0.218192
     7  H    0.225818
     8  H    0.235785
     9  H    0.275774
    10  H    0.275779
    11  H    0.223609
    12  N    0.488103
    13  O   -0.460384
    14  O   -0.460257
    15  C   -0.301884
    16  C   -0.300509
    17  C   -0.476036
    18  H    0.140112
    19  H    0.155015
    20  H    0.151274
    21  H    0.156058
    22  H    0.155779
    23  H    0.154342
    24  H    0.164831
    25  C   -0.302549
    26  C   -0.300058
    27  C   -0.476034
    28  H    0.141975
    29  H    0.157538
    30  H    0.145570
    31  H    0.155962
    32  H    0.158515
    33  H    0.155596
    34  H    0.162629
 Sum of Mulliken charges =  -0.00000

 Dipole moment (field-independent basis, Debye):
    X=              3.1837    Y=              0.3987    Z=              4.1492  Tot=              5.2451
 Quadrupole moment (field-independent basis, Debye-Ang):
   XX=           -106.3062   YY=            -96.1249   ZZ=            -93.4720
   XY=             -2.1387   XZ=            -14.5010   YZ=             -1.0100

 Normal termination of Gaussian 16 at Wed May  5 23:58:40 2021.
