 Gaussian 16, Revision A.03,
 Gaussian 16:  EM64L-G16RevA.03 25-Dec-2016

 -------------
 #p 6-31g* mp2
 -------------

 ------------------------------------------------------
 Input file generated by CHIRIPA (05-May-2021 14:51:13)
 ------------------------------------------------------
 Symbolic Z-matrix:
 Charge =  0 Multiplicity = 1

                         Standard orientation:
 ---------------------------------------------------------------------
 Center     Atomic      Atomic             Coordinates (Angstroms)
 Number     Number       Type             X           Y           Z
 ---------------------------------------------------------------------
      1          6           0        4.821523   -0.154115    0.318029
      2          6           0        5.622877   -1.196643   -0.462325
      3          6           0        7.030117   -1.402219    0.099108
      4          1           0        5.365244    0.800450    0.307151
      5          1           0        4.755859   -0.464460    1.370060
      6          1           0        5.685830   -0.885119   -1.512852
      7          1           0        5.077092   -2.148786   -0.449751
      8          1           0        6.984321   -1.736569    1.140604
      9          1           0        7.596518   -0.465722    0.071463
     10          1           0        7.585360   -2.151553   -0.473661
     11          6           0        3.412581    0.062534   -0.231219
     12          6           0        2.611227    1.105062    0.549135
     13          6           0        1.203987    1.310638   -0.012298
     14          1           0        3.478245    0.372879   -1.283250
     15          1           0        2.868860   -0.892031   -0.220341
     16          1           0        3.157011    2.057206    0.536561
     17          1           0        2.548274    0.793538    1.599662
     18          1           0        0.637586    0.374141    0.015347
     19          1           0        1.249782    1.644989   -1.053794
     20          1           0        0.648744    2.059972    0.560471
     21          6           0       -3.930898    0.766607    0.127483
     22          6           0       -2.586251    1.200470   -0.457046
     23          6           0       -2.227715    2.644900   -0.106523
     24          1           0       -4.717391    1.440416   -0.239059
     25          1           0       -3.902956    0.883733    1.219681
     26          1           0       -2.616245    1.081252   -1.547689
     27          1           0       -1.802896    0.525432   -0.089223
     28          1           0       -2.170292    2.775006    0.979008
     29          1           0       -2.988263    3.333983   -0.487746
     30          1           0       -1.262780    2.934183   -0.534396
     31          6           0       -4.303206   -0.675026   -0.214293
     32          6           0       -5.647852   -1.108889    0.370236
     33          6           0       -6.006389   -2.553319    0.019713
     34          1           0       -4.331148   -0.792152   -1.306491
     35          1           0       -3.516712   -1.348835    0.152248
     36          1           0       -6.431208   -0.433852    0.002412
     37          1           0       -5.617859   -0.989671    1.460880
     38          1           0       -5.245840   -3.242403    0.400936
     39          1           0       -6.063811   -2.683424   -1.065818
     40          1           0       -6.971324   -2.842603    0.447586
 ---------------------------------------------------------------------

 SCF Done:  E(RHF) =  -470.731927063     A.U. after   11 cycles
 E2 =    -0.1583407017D+01 EUMP2 =    -0.47231533407989D+03

 The electronic state is 1-A.
 Alpha  occ. eigenvalues --  -11.21602 -11.21583 -11.21570 -11.21460 -11.21403
 Alpha  occ. eigenvalues --  -11.21349 -11.21344 -11.21280 -11.21073 -11.21050
 Alpha  occ. eigenvalues --  -11.21022 -11.20919  -1.08434  -1.08360  -1.03571
 Alpha  occ. eigenvalues --   -1.03421  -0.96072  -0.95832  -0.87078  -0.86866
 Alpha  occ. eigenvalues --   -0.79619  -0.79518  -0.78259  -0.78160  -0.65083
 Alpha  occ. eigenvalues --   -0.64984  -0.61022  -0.60806  -0.59633  -0.59060
 Alpha  occ. eigenvalues --   -0.57615  -0.57500  -0.55337  -0.55168  -0.52979
 Alpha  occ. eigenvalues --   -0.52446  -0.52415  -0.52102  -0.49998  -0.49816
 Alpha  occ. eigenvalues --   -0.48012  -0.47756  -0.46737  -0.46441  -0.45838
 Alpha  occ. eigenvalues --   -0.45726  -0.45686  -0.45525  -0.43883  -0.43558
 Alpha virt. eigenvalues --    0.22104   0.23036   0.23577   0.24970   0.25966
 Alpha virt. eigenvalues --    0.26709   0.27001   0.27371   0.27744   0.29169
 Alpha virt. eigenvalues --    0.30430   0.30815   0.31616   0.32048   0.32418

 Mulliken charges:
               1
     1  C   -0.298221
     2  C   -0.299597
     3  C   -0.475693
     4  H    0.149654
     5  H    0.149429
     6  H    0.151929
     7  H    0.151892
     8  H    0.155151
     9  H    0.155183
    10  H    0.160253
    11  C   -0.298618
    12  C   -0.300291
    13  C   -0.479433
    14  H    0.149497
    15  H    0.149480
    16  H    0.151728
    17  H    0.151553
    18  H    0.156844
    19  H    0.154479
    20  H    0.165890
    21  C   -0.297905
    22  C   -0.302797
    23  C   -0.478952
    24  H    0.149284
    25  H    0.149020
    26  H    0.151132
    27  H    0.157115
    28  H    0.153181
    29  H    0.154272
    30  H    0.165401
    31  C   -0.298097
    32  C   -0.299556
    33  C   -0.475656
    34  H    0.149450
    35  H    0.148992
    36  H    0.151944
    37  H    0.151793
    38  H    0.154990
    39  H    0.155142
    40  H    0.160139
 Sum of Mulliken charges =  -0.00000

 Dipole moment (field-independent basis, Debye):
    X=              0.0337    Y=              0.0098    Z=             -0.0049  Tot=              0.0354
 Quadrupole moment (field-independent basis, Debye-Ang):
   XX=            -86.0192   YY=            -85.2969   ZZ=            -83.8069
   XY=              0.0351   XZ=             -0.1785   YZ=             -0.8563

 Normal termination of Gaussian 16 at Thu May  6 03:58:16 2021.
