 Gaussian 16, Revision A.03,
 Gaussian 16:  EM64L-G16RevA.03 25-Dec-2016

 -------------
 #p 6-31g* mp2
 -------------

 ------------------------------------------------------
 Input file generated by CHIRIPA (05-May-2021 14:53:18)
 ------------------------------------------------------
 Symbolic Z-matrix:
 Charge =  0 Multiplicity = 1

                         Standard orientation:
 ---------------------------------------------------------------------
 Center     Atomic      Atomic             Coordinates (Angstroms)
 Number     Number       Type             X           Y           Z
 ---------------------------------------------------------------------
      1          6           0       -3.049516   -0.311973   -0.314522
      2          6           0       -2.634833   -1.496655    0.558721
      3          6           0       -3.670820   -2.621165    0.560232
      4          1           0       -4.014075    0.076643    0.039805
      5          1           0       -3.212665   -0.662858   -1.342946
      6          1           0       -2.471172   -1.143388    1.584895
      7          1           0       -1.671056   -1.882376    0.202394
      8          1           0       -3.828225   -3.001315   -0.454318
      9          1           0       -4.632888   -2.258129    0.936039
     10          1           0       -3.354200   -3.457881    1.190723
     11          6           0       -2.024025    0.820263   -0.326237
     12          6           0       -2.438708    2.004944   -1.199480
     13          6           0       -1.402721    3.129454   -1.200990
     14          1           0       -1.860876    1.171148    0.702188
     15          1           0       -1.059466    0.431646   -0.680564
     16          1           0       -3.402485    2.390665   -0.843152
     17          1           0       -2.602369    1.651678   -2.225654
     18          1           0       -0.440654    2.766419   -1.576798
     19          1           0       -1.245316    3.509605   -0.186441
     20          1           0       -1.719341    3.966170   -1.831481
     21          6           0        2.615113   -2.101933   -1.280076
     22          6           0        1.580202   -2.263677   -0.353082
     23          6           0        1.220807   -1.215876    0.499853
     24          6           0        1.920631   -0.014539    0.398247
     25          6           0        2.956276    0.177427   -0.514922
     26          6           0        3.298643   -0.884045   -1.357900
     27          1           0        2.887686   -2.921200   -1.938789
     28          1           0        1.047624   -3.208388   -0.290417
     29          1           0        0.423616   -1.313902    1.226693
     30          1           0        3.468846    1.130929   -0.553934
     31          1           0        4.102788   -0.755582   -2.076852
     32          7           0        1.549169    1.101957    1.295941
     33          8           0        2.181189    2.150403    1.186623
     34          8           0        0.633031    0.907480    2.091872
 ---------------------------------------------------------------------

 SCF Done:  E(RHF) =  -669.534882004     A.U. after   15 cycles
 E2 =    -0.2095324974D+01 EUMP2 =    -0.67163020697769D+03

 The electronic state is 1-A.
 Alpha  occ. eigenvalues --  -20.60852 -20.60842 -15.85869 -11.31202 -11.27805
 Alpha  occ. eigenvalues --  -11.27728 -11.27544 -11.26800 -11.26786 -11.21739
 Alpha  occ. eigenvalues --  -11.21245 -11.21225 -11.21128 -11.20799 -11.20464
 Alpha  occ. eigenvalues --   -1.59900  -1.39458  -1.19401  -1.08795  -1.08192
 Alpha  occ. eigenvalues --   -1.04801  -1.03327  -0.95742  -0.95631  -0.86763
 Alpha  occ. eigenvalues --   -0.86196  -0.82475  -0.79464  -0.78085  -0.77410
 Alpha  occ. eigenvalues --   -0.72105  -0.71196  -0.70508  -0.65073  -0.64859
 Alpha  occ. eigenvalues --   -0.64752  -0.62163  -0.60713  -0.59156  -0.57358
 Alpha  occ. eigenvalues --   -0.55305  -0.55019  -0.53160  -0.52914  -0.52455
 Alpha  occ. eigenvalues --   -0.52158  -0.49681  -0.48868  -0.48864  -0.47726
 Alpha  occ. eigenvalues --   -0.46488  -0.45715  -0.45426  -0.44512  -0.43537
 Alpha  occ. eigenvalues --   -0.37354  -0.36341
 Alpha virt. eigenvalues --    0.04950   0.11200   0.16339   0.20919   0.23235
 Alpha virt. eigenvalues --    0.24320   0.26168   0.26642   0.27898   0.28228
 Alpha virt. eigenvalues --    0.29078   0.30523   0.31571   0.31901   0.32097

 Mulliken charges:
               1
     1  C   -0.296294
     2  C   -0.306445
     3  C   -0.474940
     4  H    0.151101
     5  H    0.146385
     6  H    0.160322
     7  H    0.140932
     8  H    0.153938
     9  H    0.158539
    10  H    0.156934
    11  C   -0.310999
    12  C   -0.298989
    13  C   -0.477208
    14  H    0.172104
    15  H    0.144047
    16  H    0.151342
    17  H    0.147203
    18  H    0.151113
    19  H    0.166613
    20  H    0.157752
    21  C   -0.170413
    22  C   -0.221446
    23  C   -0.170551
    24  C    0.156980
    25  C   -0.171434
    26  C   -0.219018
    27  H    0.225841
    28  H    0.224249
    29  H    0.282372
    30  H    0.275830
    31  H    0.223598
    32  N    0.489988
    33  O   -0.459685
    34  O   -0.459763
 Sum of Mulliken charges =  -0.00000

 Dipole moment (field-independent basis, Debye):
    X=              1.3577    Y=             -3.7826    Z=             -2.9810  Tot=              5.0038
 Quadrupole moment (field-independent basis, Debye-Ang):
   XX=            -87.7078   YY=            -94.1443   ZZ=            -96.5500
   XY=             -6.3749   XZ=             -8.0795   YZ=             -2.1141

 Normal termination of Gaussian 16 at Thu May  6 19:02:24 2021.
