 Gaussian 16, Revision A.03,
 Gaussian 16:  EM64L-G16RevA.03 25-Dec-2016

 -------------
 #p 6-31g* mp2
 -------------

 ------------------------------------------------------
 Input file generated by CHIRIPA (05-May-2021 14:51:13)
 ------------------------------------------------------
 Symbolic Z-matrix:
 Charge =  0 Multiplicity = 1

                         Standard orientation:
 ---------------------------------------------------------------------
 Center     Atomic      Atomic             Coordinates (Angstroms)
 Number     Number       Type             X           Y           Z
 ---------------------------------------------------------------------
      1          6           0       -2.359082    1.096275    0.185120
      2          6           0       -1.593630    2.378367   -0.143978
      3          6           0       -1.701690    3.431160    0.959536
      4          1           0       -3.415959    1.341762    0.357433
      5          1           0       -1.976887    0.681095    1.127960
      6          1           0       -1.976214    2.790259   -1.086630
      7          1           0       -0.538489    2.129773   -0.315717
      8          1           0       -1.301748    3.043676    1.902141
      9          1           0       -2.747641    3.707914    1.126848
     10          1           0       -1.147208    4.339402    0.703591
     11          6           0       -2.260564    0.034225   -0.908532
     12          6           0       -3.026016   -1.247868   -0.579434
     13          6           0       -2.917957   -2.300660   -1.682948
     14          1           0       -2.642760    0.449405   -1.851372
     15          1           0       -1.203687   -0.211262   -1.080845
     16          1           0       -4.081157   -0.999273   -0.407695
     17          1           0       -2.643433   -1.659759    0.363218
     18          1           0       -1.872005   -2.577414   -1.850260
     19          1           0       -3.317898   -1.913176   -2.625553
     20          1           0       -3.472438   -3.208902   -1.427003
     21          6           0        2.822039   -0.582094   -0.204671
     22          6           0        3.535075    0.753702   -0.417303
     23          6           0        4.556737    0.704121   -1.553765
     24          1           0        3.568984   -1.359806    0.005526
     25          1           0        2.320329   -0.874536   -1.137494
     26          1           0        4.034140    1.044217    0.516053
     27          1           0        2.786331    1.528362   -0.626829
     28          1           0        4.070176    0.438603   -2.497884
     29          1           0        5.325075   -0.048294   -1.348508
     30          1           0        5.054613    1.669443   -1.688424
     31          6           0        1.797608   -0.548406    0.928083
     32          6           0        1.084571   -1.884202    1.140715
     33          6           0        0.062910   -1.834621    2.277176
     34          1           0        2.299318   -0.255963    1.860907
     35          1           0        1.050662    0.229306    0.717886
     36          1           0        1.833315   -2.658862    1.350242
     37          1           0        0.585506   -2.174716    0.207360
     38          1           0       -0.705428   -1.082206    2.071920
     39          1           0        0.549470   -1.569103    3.221295
     40          1           0       -0.434967   -2.799942    2.411835
 ---------------------------------------------------------------------

 SCF Done:  E(RHF) =  -470.732797215     A.U. after   11 cycles
 E2 =    -0.1585411852D+01 EUMP2 =    -0.47231820906779D+03

 The electronic state is 1-A.
 Alpha  occ. eigenvalues --  -11.21684 -11.21665 -11.21651 -11.21600 -11.21472
 Alpha  occ. eigenvalues --  -11.21458 -11.21412 -11.21399 -11.21132 -11.21103
 Alpha  occ. eigenvalues --  -11.21100 -11.21098  -1.08553  -1.08434  -1.03606
 Alpha  occ. eigenvalues --   -1.03555  -0.96050  -0.96015  -0.87064  -0.87033
 Alpha  occ. eigenvalues --   -0.79669  -0.79626  -0.78324  -0.78292  -0.65606
 Alpha  occ. eigenvalues --   -0.64716  -0.61118  -0.60820  -0.59411  -0.59381
 Alpha  occ. eigenvalues --   -0.57698  -0.57596  -0.55402  -0.55252  -0.52738
 Alpha  occ. eigenvalues --   -0.52709  -0.52496  -0.52412  -0.50038  -0.49972
 Alpha  occ. eigenvalues --   -0.47991  -0.47957  -0.46807  -0.46666  -0.46106
 Alpha  occ. eigenvalues --   -0.45790  -0.45603  -0.45455  -0.43847  -0.43824
 Alpha virt. eigenvalues --    0.18255   0.21927   0.23053   0.24761   0.25387
 Alpha virt. eigenvalues --    0.25974   0.26998   0.27674   0.29048   0.29885
 Alpha virt. eigenvalues --    0.30926   0.31596   0.31618   0.31764   0.32360

 Mulliken charges:
               1
     1  C   -0.304979
     2  C   -0.303091
     3  C   -0.475801
     4  H    0.150671
     5  H    0.154884
     6  H    0.152467
     7  H    0.153805
     8  H    0.155751
     9  H    0.155430
    10  H    0.160469
    11  C   -0.301050
    12  C   -0.303903
    13  C   -0.476356
    14  H    0.150042
    15  H    0.151307
    16  H    0.152024
    17  H    0.157346
    18  H    0.155084
    19  H    0.155205
    20  H    0.160556
    21  C   -0.298351
    22  C   -0.300398
    23  C   -0.475770
    24  H    0.150154
    25  H    0.149340
    26  H    0.152196
    27  H    0.152164
    28  H    0.155425
    29  H    0.155306
    30  H    0.160486
    31  C   -0.305284
    32  C   -0.301301
    33  C   -0.483626
    34  H    0.150040
    35  H    0.155534
    36  H    0.152738
    37  H    0.153167
    38  H    0.162074
    39  H    0.155593
    40  H    0.160651
 Sum of Mulliken charges =  -0.00000

 Dipole moment (field-independent basis, Debye):
    X=             -0.0008    Y=              0.0040    Z=              0.0170  Tot=              0.0175
 Quadrupole moment (field-independent basis, Debye-Ang):
   XX=            -84.0287   YY=            -85.2822   ZZ=            -85.2583
   XY=             -0.6475   XZ=              1.4373   YZ=             -0.8835

 Normal termination of Gaussian 16 at Wed May  5 18:24:07 2021.
