 Gaussian 16, Revision A.03,
 Gaussian 16:  EM64L-G16RevA.03 25-Dec-2016

 -------------
 #p 6-31g* mp2
 -------------

 ------------------------------------------------------
 Input file generated by CHIRIPA (05-May-2021 14:57:23)
 ------------------------------------------------------
 Symbolic Z-matrix:
 Charge =  0 Multiplicity = 1

                         Standard orientation:
 ---------------------------------------------------------------------
 Center     Atomic      Atomic             Coordinates (Angstroms)
 Number     Number       Type             X           Y           Z
 ---------------------------------------------------------------------
      1          6           0        1.952369   -1.286109    0.224606
      2          6           0        2.121027   -0.106481    0.957103
      3          6           0        3.319961    0.608965    0.884695
      4          6           0        4.333873    0.113752    0.066138
      5          6           0        4.196195   -1.058373   -0.675790
      6          6           0        2.988664   -1.757460   -0.588070
      7          1           0        1.017669   -1.835531    0.286802
      8          1           0        1.317945    0.261943    1.589058
      9          1           0        3.477319    1.524990    1.441072
     10          1           0        5.014849   -1.400692   -1.297112
     11          1           0        2.860489   -2.673282   -1.158058
     12          7           0        5.607682    0.862503   -0.018622
     13          8           0        6.485658    0.405160   -0.747067
     14          8           0        5.703997    1.892540    0.644992
     15          6           0       -6.261593    1.349897   -0.088899
     16          6           0       -6.241666    0.067560    0.469433
     17          6           0       -5.062900   -0.684073    0.479812
     18          6           0       -3.917274   -0.119919   -0.079258
     19          6           0       -3.905258    1.154974   -0.642991
     20          6           0       -5.095381    1.888562   -0.642353
     21          1           0       -7.181699    1.926775   -0.092683
     22          1           0       -7.145854   -0.353314    0.899961
     23          1           0       -5.019351   -1.679226    0.905479
     24          1           0       -2.988034    1.547752   -1.064706
     25          1           0       -5.107910    2.884189   -1.076651
     26          7           0       -2.663355   -0.906088   -0.074101
     27          8           0       -1.667467   -0.386465   -0.572939
     28          8           0       -2.700164   -2.027021    0.428679
 ---------------------------------------------------------------------

 SCF Done:  E(RHF) =  -868.340860332     A.U. after   16 cycles
 E2 =    -0.2598242702D+01 EUMP2 =    -0.87093910303412D+03

 The electronic state is 1-A.
 Alpha  occ. eigenvalues --  -20.61944 -20.61939 -20.59940 -20.59935 -15.86936
 Alpha  occ. eigenvalues --  -15.84989 -11.31973 -11.30079 -11.28499 -11.28492
 Alpha  occ. eigenvalues --  -11.28174 -11.27435 -11.27422 -11.26666 -11.26656
 Alpha  occ. eigenvalues --  -11.26072 -11.25515 -11.25481  -1.61005  -1.59024
 Alpha  occ. eigenvalues --   -1.40560  -1.38586  -1.20114  -1.18216  -1.09573
 Alpha  occ. eigenvalues --   -1.07600  -1.05462  -1.03602  -0.96462  -0.94488
 Alpha  occ. eigenvalues --   -0.86875  -0.84976  -0.83300  -0.81358  -0.78386
 Alpha  occ. eigenvalues --   -0.76492  -0.73168  -0.72298  -0.71212  -0.71210
 Alpha  occ. eigenvalues --   -0.70348  -0.69171  -0.65765  -0.65457  -0.63843
 Alpha  occ. eigenvalues --   -0.63581  -0.62809  -0.60978  -0.55975  -0.53903
 Alpha  occ. eigenvalues --   -0.53811  -0.53544  -0.51924  -0.51677  -0.49942
 Alpha  occ. eigenvalues --   -0.49907  -0.47982  -0.47940  -0.46033  -0.44055
 Alpha  occ. eigenvalues --   -0.38073  -0.37050  -0.36070  -0.35236
 Alpha virt. eigenvalues --    0.04113   0.06068   0.10610   0.12449   0.15682
 Alpha virt. eigenvalues --    0.17662   0.20802   0.22778   0.26738   0.27670
 Alpha virt. eigenvalues --    0.28422   0.29799   0.30451   0.31878   0.32539

 Mulliken charges:
               1
     1  C   -0.166847
     2  C   -0.218803
     3  C   -0.173245
     4  C    0.156294
     5  C   -0.172130
     6  C   -0.221568
     7  H    0.246118
     8  H    0.222614
     9  H    0.270643
    10  H    0.271543
    11  H    0.221606
    12  N    0.488412
    13  O   -0.463665
    14  O   -0.464251
    15  C   -0.169534
    16  C   -0.218596
    17  C   -0.170504
    18  C    0.157154
    19  C   -0.170939
    20  C   -0.218582
    21  H    0.228448
    22  H    0.225758
    23  H    0.276061
    24  H    0.276650
    25  H    0.226284
    26  N    0.488535
    27  O   -0.465427
    28  O   -0.462028
 Sum of Mulliken charges =  -0.00000

 Dipole moment (field-independent basis, Debye):
    X=             -9.6116    Y=              0.0732    Z=              0.2663  Tot=              9.6155
 Quadrupole moment (field-independent basis, Debye-Ang):
   XX=           -109.0214   YY=           -101.4827   ZZ=           -102.9889
   XY=            -22.4658   XZ=             -1.1725   YZ=             -0.0172

 Normal termination of Gaussian 16 at Fri May  7 01:51:38 2021.
