 Gaussian 16, Revision A.03,
 Gaussian 16:  EM64L-G16RevA.03 25-Dec-2016

 -------------
 #p 6-31g* mp2
 -------------

 ------------------------------------------------------
 Input file generated by CHIRIPA (05-May-2021 14:57:26)
 ------------------------------------------------------
 Symbolic Z-matrix:
 Charge =  0 Multiplicity = 1

                         Standard orientation:
 ---------------------------------------------------------------------
 Center     Atomic      Atomic             Coordinates (Angstroms)
 Number     Number       Type             X           Y           Z
 ---------------------------------------------------------------------
      1          6           0       -2.597363    2.435868   -0.900433
      2          6           0       -2.825171    1.288800   -1.667805
      3          6           0       -2.889190    0.030444   -1.062008
      4          6           0       -2.720215   -0.044551    0.319699
      5          6           0       -2.491833    1.079876    1.111403
      6          6           0       -2.431713    2.327935    0.484281
      7          1           0       -2.549146    3.409389   -1.379313
      8          1           0       -2.954181    1.369612   -2.743384
      9          1           0       -3.064308   -0.873835   -1.632123
     10          1           0       -2.367064    0.967605    2.181565
     11          1           0       -2.254663    3.217059    1.082743
     12          7           0       -2.785925   -1.371265    0.972317
     13          8           0       -2.633820   -1.410561    2.191315
     14          8           0       -2.988290   -2.346727    0.252483
     15          6           0        4.448927    1.262900    0.916986
     16          6           0        3.222204    1.817315    0.537118
     17          6           0        2.250977    1.030534   -0.089173
     18          6           0        2.541213   -0.313033   -0.321299
     19          6           0        3.753935   -0.894546    0.045355
     20          6           0        4.710416   -0.088877    0.670327
     21          1           0        5.197672    1.881428    1.402992
     22          1           0        3.016381    2.866823    0.727417
     23          1           0        1.292915    1.434032   -0.393680
     24          1           0        3.930158   -1.943910   -0.157625
     25          1           0        5.662226   -0.522137    0.964243
     26          7           0        1.520823   -1.155960   -0.983627
     27          8           0        1.800964   -2.336975   -1.176919
     28          8           0        0.460222   -0.619671   -1.296927
 ---------------------------------------------------------------------

 SCF Done:  E(RHF) =  -868.337682794     A.U. after   16 cycles
 E2 =    -0.2600928637D+01 EUMP2 =    -0.87093861143075D+03

 The electronic state is 1-A.
 Alpha  occ. eigenvalues --  -20.60831 -20.60785 -20.59928 -20.59866 -15.85854
 Alpha  occ. eigenvalues --  -15.84953 -11.31239 -11.30326 -11.27831 -11.27795
 Alpha  occ. eigenvalues --  -11.27577 -11.27068 -11.26870 -11.26869 -11.26851
 Alpha  occ. eigenvalues --  -11.26817 -11.26149 -11.25947  -1.59876  -1.58966
 Alpha  occ. eigenvalues --   -1.39433  -1.38522  -1.19419  -1.18559  -1.08813
 Alpha  occ. eigenvalues --   -1.07979  -1.04830  -1.03992  -0.95646  -0.94798
 Alpha  occ. eigenvalues --   -0.86227  -0.85405  -0.82483  -0.81642  -0.77522
 Alpha  occ. eigenvalues --   -0.76651  -0.72101  -0.71203  -0.71192  -0.70532
 Alpha  occ. eigenvalues --   -0.70253  -0.69747  -0.65079  -0.64841  -0.64251
 Alpha  occ. eigenvalues --   -0.64047  -0.62179  -0.61352  -0.55335  -0.54578
 Alpha  occ. eigenvalues --   -0.53154  -0.52933  -0.52278  -0.52122  -0.48849
 Alpha  occ. eigenvalues --   -0.48813  -0.47958  -0.47924  -0.44843  -0.43924
 Alpha  occ. eigenvalues --   -0.37406  -0.36560  -0.36436  -0.35537
 Alpha virt. eigenvalues --    0.05007   0.05913   0.11219   0.12085   0.16478
 Alpha virt. eigenvalues --    0.17370   0.21309   0.22016   0.27180   0.27931
 Alpha virt. eigenvalues --    0.28181   0.28941   0.30793   0.31497   0.32340

 Mulliken charges:
               1
     1  C   -0.174300
     2  C   -0.216358
     3  C   -0.149852
     4  C    0.163730
     5  C   -0.173782
     6  C   -0.224503
     7  H    0.220434
     8  H    0.222155
     9  H    0.279244
    10  H    0.271573
    11  H    0.216483
    12  N    0.488183
    13  O   -0.467311
    14  O   -0.455019
    15  C   -0.170501
    16  C   -0.218740
    17  C   -0.172183
    18  C    0.158656
    19  C   -0.169717
    20  C   -0.218467
    21  H    0.225375
    22  H    0.220653
    23  H    0.274663
    24  H    0.277166
    25  H    0.224190
    26  N    0.491176
    27  O   -0.455256
    28  O   -0.467693
 Sum of Mulliken charges =  -0.00000

 Dipole moment (field-independent basis, Debye):
    X=              3.9102    Y=              7.2553    Z=             -0.1853  Tot=              8.2440
 Quadrupole moment (field-independent basis, Debye-Ang):
   XX=            -86.8534   YY=           -104.3641   ZZ=           -104.9713
   XY=             -8.2321   XZ=             12.9423   YZ=              1.9897

 Normal termination of Gaussian 16 at Thu May  6 14:47:25 2021.
