 Gaussian 16, Revision A.03,
 Gaussian 16:  EM64L-G16RevA.03 25-Dec-2016

 -------------
 #p 6-31g* mp2
 -------------

 ------------------------------------------------------
 Input file generated by CHIRIPA (05-May-2021 14:55:22)
 ------------------------------------------------------
 Symbolic Z-matrix:
 Charge =  0 Multiplicity = 1

                         Standard orientation:
 ---------------------------------------------------------------------
 Center     Atomic      Atomic             Coordinates (Angstroms)
 Number     Number       Type             X           Y           Z
 ---------------------------------------------------------------------
      1          6           0       -2.954175   -2.232198    0.249103
      2          6           0       -2.023497   -1.466787    0.959387
      3          6           0       -2.042063   -0.071226    0.878057
      4          6           0       -3.009450    0.528660    0.073328
      5          6           0       -3.950109   -0.206484   -0.646404
      6          6           0       -3.912821   -1.600718   -0.550117
      7          1           0       -2.932481   -3.315788    0.318091
      8          1           0       -1.277866   -1.954495    1.580852
      9          1           0       -1.333387    0.545555    1.417295
     10          1           0       -4.681438    0.308217   -1.257680
     11          1           0       -4.636837   -2.192607   -1.102848
     12          7           0       -3.039015    2.005374   -0.020689
     13          8           0       -3.901376    2.509788   -0.736607
     14          8           0       -2.199268    2.630448    0.623318
     15          6           0        4.383902    0.056982   -0.453900
     16          6           0        5.020615    1.091243    0.475017
     17          6           0        6.095110    1.927987   -0.220048
     18          1           0        5.167704   -0.604291   -0.848003
     19          1           0        3.945501    0.572556   -1.319570
     20          1           0        5.456475    0.573996    1.339365
     21          1           0        4.235180    1.750011    0.867105
     22          1           0        5.670644    2.469735   -1.071481
     23          1           0        6.898878    1.287039   -0.596537
     24          1           0        6.537001    2.660870    0.462208
     25          6           0        3.307817   -0.787297    0.226512
     26          6           0        2.671103   -1.821558   -0.702405
     27          6           0        1.596609   -2.658301   -0.007341
     28          1           0        3.746218   -1.302871    1.092181
     29          1           0        2.524014   -0.126025    0.620616
     30          1           0        3.456538   -2.480325   -1.094493
     31          1           0        2.235244   -1.304311   -1.566753
     32          1           0        0.792841   -2.017354    0.369149
     33          1           0        2.021074   -3.200050    0.844093
     34          1           0        1.154717   -3.391185   -0.689596
 ---------------------------------------------------------------------

 SCF Done:  E(RHF) =  -669.535192590     A.U. after   15 cycles
 E2 =    -0.2091597409D+01 EUMP2 =    -0.67162678999845D+03

 The electronic state is 1-A.
 Alpha  occ. eigenvalues --  -20.60794 -20.60789 -15.85848 -11.31217 -11.27786
 Alpha  occ. eigenvalues --  -11.27782 -11.27512 -11.26798 -11.26765 -11.22001
 Alpha  occ. eigenvalues --  -11.21700 -11.21692 -11.21662 -11.21519 -11.21072
 Alpha  occ. eigenvalues --   -1.59869  -1.39423  -1.19390  -1.08781  -1.08673
 Alpha  occ. eigenvalues --   -1.04799  -1.03793  -0.96268  -0.95614  -0.87301
 Alpha  occ. eigenvalues --   -0.86183  -0.82452  -0.79875  -0.78468  -0.77497
 Alpha  occ. eigenvalues --   -0.72065  -0.71193  -0.70487  -0.65316  -0.65039
 Alpha  occ. eigenvalues --   -0.64803  -0.62180  -0.61164  -0.59644  -0.57865
 Alpha  occ. eigenvalues --   -0.55600  -0.55267  -0.53186  -0.52996  -0.52918
 Alpha  occ. eigenvalues --   -0.52562  -0.50184  -0.48825  -0.48820  -0.48179
 Alpha  occ. eigenvalues --   -0.46883  -0.46018  -0.45914  -0.44828  -0.44043
 Alpha  occ. eigenvalues --   -0.37353  -0.36365
 Alpha virt. eigenvalues --    0.05020   0.11209   0.16409   0.20870   0.22721
 Alpha virt. eigenvalues --    0.24122   0.25863   0.26640   0.27263   0.28422
 Alpha virt. eigenvalues --    0.28658   0.30479   0.31317   0.31601   0.32235

 Mulliken charges:
               1
     1  C   -0.171948
     2  C   -0.216434
     3  C   -0.172845
     4  C    0.158729
     5  C   -0.170779
     6  C   -0.218635
     7  H    0.226306
     8  H    0.226453
     9  H    0.275461
    10  H    0.275696
    11  H    0.223592
    12  N    0.488092
    13  O   -0.460301
    14  O   -0.460594
    15  C   -0.298724
    16  C   -0.300401
    17  C   -0.476010
    18  H    0.149618
    19  H    0.151908
    20  H    0.151053
    21  H    0.154386
    22  H    0.156790
    23  H    0.154555
    24  H    0.161234
    25  C   -0.298479
    26  C   -0.299039
    27  C   -0.480779
    28  H    0.148808
    29  H    0.148521
    30  H    0.153281
    31  H    0.155188
    32  H    0.151872
    33  H    0.153882
    34  H    0.159542
 Sum of Mulliken charges =  -0.00000

 Dipole moment (field-independent basis, Debye):
    X=              0.1368    Y=             -5.1704    Z=              0.2811  Tot=              5.1799
 Quadrupole moment (field-independent basis, Debye-Ang):
   XX=            -92.4023   YY=           -100.9704   ZZ=            -93.3608
   XY=             15.3657   XZ=              2.2180   YZ=              0.0905

 Normal termination of Gaussian 16 at Thu May  6 03:04:06 2021.
