 Gaussian 16, Revision A.03,
 Gaussian 16:  EM64L-G16RevA.03 25-Dec-2016

 -------------
 #p 6-31g* mp2
 -------------

 ------------------------------------------------------
 Input file generated by CHIRIPA (05-May-2021 14:57:21)
 ------------------------------------------------------
 Symbolic Z-matrix:
 Charge =  0 Multiplicity = 1

                         Standard orientation:
 ---------------------------------------------------------------------
 Center     Atomic      Atomic             Coordinates (Angstroms)
 Number     Number       Type             X           Y           Z
 ---------------------------------------------------------------------
      1          6           0       -4.476810    2.099077    0.620049
      2          6           0       -3.130396    1.943213    0.274512
      3          6           0       -2.627589    0.685927   -0.073292
      4          6           0       -3.503202   -0.398748   -0.064965
      5          6           0       -4.849610   -0.275585    0.274605
      6          6           0       -5.330615    0.991134    0.618994
      7          1           0       -4.858935    3.079431    0.888905
      8          1           0       -2.465013    2.801880    0.274463
      9          1           0       -1.589601    0.536913   -0.344940
     10          1           0       -5.488584   -1.150255    0.265514
     11          1           0       -6.376715    1.109209    0.886909
     12          7           0       -2.982443   -1.734774   -0.431362
     13          8           0       -3.774386   -2.674581   -0.416310
     14          8           0       -1.792191   -1.816845   -0.726658
     15          6           0        2.682942    2.451735   -0.609900
     16          6           0        1.828773    1.344746   -0.571295
     17          6           0        2.319868    0.080491   -0.232129
     18          6           0        3.676627   -0.041208    0.063984
     19          6           0        4.552884    1.042573    0.034236
     20          6           0        4.039879    2.297388   -0.307545
     21          1           0        2.292937    3.430172   -0.874387
     22          1           0        0.774512    1.461647   -0.805633
     23          1           0        1.680857   -0.793393   -0.194552
     24          1           0        5.599136    0.894773    0.272838
     25          1           0        4.705571    3.155319   -0.336719
     26          7           0        4.208124   -1.374621    0.424427
     27          8           0        5.407389   -1.455439    0.681081
     28          8           0        3.415385   -2.313683    0.443465
 ---------------------------------------------------------------------

 SCF Done:  E(RHF) =  -868.336666963     A.U. after   16 cycles
 E2 =    -0.2599953778D+01 EUMP2 =    -0.87093662074050D+03

 The electronic state is 1-A.
 Alpha  occ. eigenvalues --  -20.61268 -20.61245 -20.60510 -20.60477 -15.86314
 Alpha  occ. eigenvalues --  -15.85556 -11.31772 -11.31069 -11.28466 -11.28281
 Alpha  occ. eigenvalues --  -11.28063 -11.27712 -11.27627 -11.27565 -11.27432
 Alpha  occ. eigenvalues --  -11.27309 -11.26854 -11.26756  -1.60319  -1.59573
 Alpha  occ. eigenvalues --   -1.39877  -1.39118  -1.19941  -1.19299  -1.09306
 Alpha  occ. eigenvalues --   -1.08684  -1.05374  -1.04731  -0.96136  -0.95473
 Alpha  occ. eigenvalues --   -0.86763  -0.86134  -0.82979  -0.82309  -0.78033
 Alpha  occ. eigenvalues --   -0.77303  -0.72529  -0.71771  -0.71639  -0.71060
 Alpha  occ. eigenvalues --   -0.70902  -0.70415  -0.65601  -0.65400  -0.64959
 Alpha  occ. eigenvalues --   -0.64780  -0.62775  -0.62019  -0.55844  -0.55273
 Alpha  occ. eigenvalues --   -0.53668  -0.53495  -0.53052  -0.52819  -0.49293
 Alpha  occ. eigenvalues --   -0.49271  -0.48555  -0.48508  -0.45260  -0.44490
 Alpha  occ. eigenvalues --   -0.37895  -0.37322  -0.36970  -0.36334
 Alpha virt. eigenvalues --    0.04540   0.05238   0.10688   0.11304   0.16026
 Alpha virt. eigenvalues --    0.16636   0.18188   0.22063   0.24498   0.27046
 Alpha virt. eigenvalues --    0.28153   0.29137   0.30546   0.31039   0.32721

 Mulliken charges:
               1
     1  C   -0.170378
     2  C   -0.218734
     3  C   -0.176033
     4  C    0.161072
     5  C   -0.169185
     6  C   -0.218165
     7  H    0.227144
     8  H    0.219250
     9  H    0.272052
    10  H    0.278140
    11  H    0.225967
    12  N    0.488580
    13  O   -0.455485
    14  O   -0.463721
    15  C   -0.171124
    16  C   -0.221969
    17  C   -0.173137
    18  C    0.157903
    19  C   -0.169984
    20  C   -0.219057
    21  H    0.222367
    22  H    0.215384
    23  H    0.289606
    24  H    0.275974
    25  H    0.222726
    26  N    0.487526
    27  O   -0.462262
    28  O   -0.454458
 Sum of Mulliken charges =  -0.00000

 Dipole moment (field-independent basis, Debye):
    X=             -3.9007    Y=              9.1716    Z=              0.0817  Tot=              9.9669
 Quadrupole moment (field-independent basis, Debye-Ang):
   XX=            -96.1967   YY=           -108.4303   ZZ=           -106.7596
   XY=              5.5063   XZ=             -9.6211   YZ=             -0.4262

 Normal termination of Gaussian 16 at Thu May  6 19:27:48 2021.
