 Gaussian 16, Revision A.03,
 Gaussian 16:  EM64L-G16RevA.03 25-Dec-2016

 -------------
 #p 6-31g* mp2
 -------------

 ------------------------------------------------------
 Input file generated by CHIRIPA (05-May-2021 14:51:13)
 ------------------------------------------------------
 Symbolic Z-matrix:
 Charge =  0 Multiplicity = 1

                         Standard orientation:
 ---------------------------------------------------------------------
 Center     Atomic      Atomic             Coordinates (Angstroms)
 Number     Number       Type             X           Y           Z
 ---------------------------------------------------------------------
      1          6           0       -3.039070   -0.257618    0.630230
      2          6           0       -1.681356   -0.498065   -0.030666
      3          6           0       -0.536402   -0.570387    0.980099
      4          1           0       -2.998391    0.676054    1.207766
      5          1           0       -3.235743   -1.062952    1.351445
      6          1           0       -1.487925    0.306738   -0.751425
      7          1           0       -1.725330   -1.431174   -0.606851
      8          1           0       -0.702576   -1.384645    1.692819
      9          1           0       -0.463822    0.363141    1.547425
     10          1           0        0.424910   -0.742799    0.486122
     11          6           0       -4.193662   -0.182878   -0.367296
     12          6           0       -5.551376    0.057570    0.293599
     13          6           0       -6.696330    0.129891   -0.717165
     14          1           0       -3.996989    0.622457   -1.088511
     15          1           0       -4.234341   -1.116550   -0.944832
     16          1           0       -5.507402    0.990679    0.869785
     17          1           0       -5.744807   -0.747233    1.014358
     18          1           0       -6.768910   -0.803637   -1.284491
     19          1           0       -6.530156    0.944150   -1.429886
     20          1           0       -7.657642    0.302303   -0.223189
     21          6           0        4.119572   -0.353084   -0.092666
     22          6           0        3.483503   -1.731535   -0.275078
     23          6           0        4.502911   -2.868273   -0.194905
     24          1           0        4.892909   -0.208757   -0.859520
     25          1           0        4.632321   -0.319191    0.878589
     26          1           0        2.970933   -1.762356   -1.245097
     27          1           0        2.711459   -1.872520    0.492181
     28          1           0        5.006765   -2.866040    0.777066
     29          1           0        5.267714   -2.755250   -0.970084
     30          1           0        4.026717   -3.844695   -0.327945
     31          6           0        3.113159    0.793579   -0.170268
     32          6           0        3.749229    2.172031    0.012145
     33          6           0        2.729821    3.308769   -0.068029
     34          1           0        2.600411    0.759686   -1.141522
     35          1           0        2.339823    0.649253    0.596586
     36          1           0        4.521274    2.313016   -0.755115
     37          1           0        4.261799    2.202851    0.982164
     38          1           0        1.965018    3.195745    0.707151
     39          1           0        2.225967    3.306535   -1.039999
     40          1           0        3.206016    4.285191    0.065012
 ---------------------------------------------------------------------

 SCF Done:  E(RHF) =  -470.732672389     A.U. after   11 cycles
 E2 =    -0.1583336242D+01 EUMP2 =    -0.47231600863047D+03

 The electronic state is 1-A.
 Alpha  occ. eigenvalues --  -11.21608 -11.21588 -11.21581 -11.21568 -11.21383
 Alpha  occ. eigenvalues --  -11.21377 -11.21323 -11.21296 -11.21076 -11.21067
 Alpha  occ. eigenvalues --  -11.21060 -11.20986  -1.08436  -1.08394  -1.03525
 Alpha  occ. eigenvalues --   -1.03505  -0.96000  -0.95932  -0.87004  -0.86969
 Alpha  occ. eigenvalues --   -0.79596  -0.79586  -0.78262  -0.78197  -0.65076
 Alpha  occ. eigenvalues --   -0.65027  -0.60954  -0.60875  -0.59405  -0.59287
 Alpha  occ. eigenvalues --   -0.57670  -0.57487  -0.55304  -0.55204  -0.52824
 Alpha  occ. eigenvalues --   -0.52576  -0.52404  -0.52344  -0.49969  -0.49852
 Alpha  occ. eigenvalues --   -0.47949  -0.47869  -0.46680  -0.46554  -0.45767
 Alpha  occ. eigenvalues --   -0.45757  -0.45720  -0.45653  -0.43795  -0.43602
 Alpha virt. eigenvalues --    0.21964   0.23111   0.23993   0.24073   0.26105
 Alpha virt. eigenvalues --    0.26530   0.26684   0.27561   0.27835   0.29336
 Alpha virt. eigenvalues --    0.30518   0.31526   0.31666   0.31910   0.32030

 Mulliken charges:
               1
     1  C   -0.298580
     2  C   -0.298981
     3  C   -0.485346
     4  H    0.149562
     5  H    0.149369
     6  H    0.152175
     7  H    0.151762
     8  H    0.154045
     9  H    0.153708
    10  H    0.172357
    11  C   -0.298220
    12  C   -0.299603
    13  C   -0.475686
    14  H    0.149521
    15  H    0.149556
    16  H    0.151928
    17  H    0.151865
    18  H    0.155134
    19  H    0.155177
    20  H    0.160200
    21  C   -0.297703
    22  C   -0.304047
    23  C   -0.475413
    24  H    0.149468
    25  H    0.149381
    26  H    0.151588
    27  H    0.155724
    28  H    0.155313
    29  H    0.155243
    30  H    0.160271
    31  C   -0.304694
    32  C   -0.299184
    33  C   -0.475601
    34  H    0.148608
    35  H    0.157501
    36  H    0.151696
    37  H    0.151815
    38  H    0.154977
    39  H    0.154939
    40  H    0.160172
 Sum of Mulliken charges =  -0.00000

 Dipole moment (field-independent basis, Debye):
    X=              0.0178    Y=             -0.0093    Z=              0.0025  Tot=              0.0203
 Quadrupole moment (field-independent basis, Debye-Ang):
   XX=            -86.1097   YY=            -84.6488   ZZ=            -84.1536
   XY=              0.7457   XZ=             -0.6772   YZ=             -0.0672

 Normal termination of Gaussian 16 at Thu May  6 07:08:54 2021.
