 Gaussian 16, Revision A.03,
 Gaussian 16:  EM64L-G16RevA.03 25-Dec-2016

 -------------
 #p 6-31g* mp2
 -------------

 ------------------------------------------------------
 Input file generated by CHIRIPA (05-May-2021 14:55:24)
 ------------------------------------------------------
 Symbolic Z-matrix:
 Charge =  0 Multiplicity = 1

                         Standard orientation:
 ---------------------------------------------------------------------
 Center     Atomic      Atomic             Coordinates (Angstroms)
 Number     Number       Type             X           Y           Z
 ---------------------------------------------------------------------
      1          6           0       -1.891601   -2.545733    0.578171
      2          6           0       -3.157952   -2.025998    0.865836
      3          6           0       -3.478143   -0.707902    0.527239
      4          6           0       -2.503540    0.065881   -0.101011
      5          6           0       -1.233030   -0.423198   -0.400839
      6          6           0       -0.934869   -1.744088   -0.053135
      7          1           0       -1.651426   -3.570747    0.844738
      8          1           0       -3.902942   -2.646263    1.356049
      9          1           0       -4.450734   -0.280176    0.738275
     10          1           0       -0.511231    0.219395   -0.890224
     11          1           0        0.049412   -2.145062   -0.277763
     12          7           0       -2.830851    1.462769   -0.464289
     13          8           0       -1.954628    2.123973   -1.017173
     14          8           0       -3.957423    1.869997   -0.189264
     15          6           0        2.867550   -0.431900   -0.262222
     16          6           0        3.794610   -1.632922   -0.072245
     17          6           0        3.244909   -2.910354   -0.707690
     18          1           0        1.884212   -0.663943    0.169223
     19          1           0        2.706640   -0.268107   -1.336780
     20          1           0        3.954832   -1.793549    1.001600
     21          1           0        4.775915   -1.397921   -0.504023
     22          1           0        3.101721   -2.774179   -1.784516
     23          1           0        2.275973   -3.172057   -0.270338
     24          1           0        3.923410   -3.756330   -0.559968
     25          6           0        3.403413    0.852617    0.367537
     26          6           0        2.476354    2.053640    0.177561
     27          6           0        3.026055    3.331071    0.813005
     28          1           0        3.564323    0.688824    1.442095
     29          1           0        4.386752    1.084660   -0.063908
     30          1           0        1.495050    1.818637    0.609338
     31          1           0        2.316132    2.214267   -0.896285
     32          1           0        3.994991    3.592774    0.375654
     33          1           0        3.169243    3.194897    1.889832
     34          1           0        2.347554    4.177046    0.665283
 ---------------------------------------------------------------------

 SCF Done:  E(RHF) =  -669.535035323     A.U. after   15 cycles
 E2 =    -0.2093301170D+01 EUMP2 =    -0.67162833649367D+03

 The electronic state is 1-A.
 Alpha  occ. eigenvalues --  -20.60734 -20.60728 -15.85783 -11.31135 -11.27718
 Alpha  occ. eigenvalues --  -11.27664 -11.27444 -11.26731 -11.26649 -11.22342
 Alpha  occ. eigenvalues --  -11.22114 -11.22064 -11.21744 -11.21657 -11.20992
 Alpha  occ. eigenvalues --   -1.59808  -1.39361  -1.19310  -1.08957  -1.08706
 Alpha  occ. eigenvalues --   -1.04709  -1.03972  -0.96457  -0.95543  -0.87473
 Alpha  occ. eigenvalues --   -0.86109  -0.82391  -0.80089  -0.78766  -0.77387
 Alpha  occ. eigenvalues --   -0.72002  -0.71131  -0.70416  -0.65647  -0.64955
 Alpha  occ. eigenvalues --   -0.64705  -0.62077  -0.61330  -0.59851  -0.58038
 Alpha  occ. eigenvalues --   -0.55780  -0.55216  -0.53122  -0.53040  -0.52912
 Alpha  occ. eigenvalues --   -0.52778  -0.50419  -0.48772  -0.48756  -0.48347
 Alpha  occ. eigenvalues --   -0.47104  -0.46239  -0.46125  -0.44765  -0.44229
 Alpha  occ. eigenvalues --   -0.37295  -0.36287
 Alpha virt. eigenvalues --    0.05061   0.11284   0.16455   0.19864   0.22888
 Alpha virt. eigenvalues --    0.23231   0.25298   0.25833   0.26687   0.28629
 Alpha virt. eigenvalues --    0.29896   0.30228   0.31207   0.31698   0.32513

 Mulliken charges:
               1
     1  C   -0.173326
     2  C   -0.218662
     3  C   -0.171029
     4  C    0.157868
     5  C   -0.175836
     6  C   -0.227961
     7  H    0.225474
     8  H    0.223211
     9  H    0.275364
    10  H    0.280945
    11  H    0.236438
    12  N    0.488119
    13  O   -0.460520
    14  O   -0.460710
    15  C   -0.308018
    16  C   -0.299665
    17  C   -0.479651
    18  H    0.146237
    19  H    0.150152
    20  H    0.154243
    21  H    0.156739
    22  H    0.158106
    23  H    0.145493
    24  H    0.165596
    25  C   -0.297522
    26  C   -0.303009
    27  C   -0.476776
    28  H    0.150467
    29  H    0.151661
    30  H    0.155041
    31  H    0.155441
    32  H    0.154423
    33  H    0.154236
    34  H    0.167431
 Sum of Mulliken charges =  -0.00000

 Dipole moment (field-independent basis, Debye):
    X=              1.3150    Y=             -4.7935    Z=              1.2751  Tot=              5.1316
 Quadrupole moment (field-independent basis, Debye-Ang):
   XX=            -95.6391   YY=            -96.5603   ZZ=            -94.4292
   XY=             13.0297   XZ=             -5.9641   YZ=             -0.2861

 Normal termination of Gaussian 16 at Thu May  6 00:01:10 2021.
