 Gaussian 16, Revision A.03,
 Gaussian 16:  EM64L-G16RevA.03 25-Dec-2016

 -------------
 #p 6-31g* mp2
 -------------

 ------------------------------------------------------
 Input file generated by CHIRIPA (05-May-2021 14:55:24)
 ------------------------------------------------------
 Symbolic Z-matrix:
 Charge =  0 Multiplicity = 1

                         Standard orientation:
 ---------------------------------------------------------------------
 Center     Atomic      Atomic             Coordinates (Angstroms)
 Number     Number       Type             X           Y           Z
 ---------------------------------------------------------------------
      1          6           0        2.573863   -2.085477   -1.120963
      2          6           0        1.488463   -1.257351   -1.425323
      3          6           0        1.452715    0.063217   -0.967755
      4          6           0        2.524151    0.524977   -0.204804
      5          6           0        3.619625   -0.275565    0.115132
      6          6           0        3.634111   -1.592810   -0.353061
      7          1           0        2.593374   -3.110036   -1.480539
      8          1           0        0.663665   -1.637273   -2.021489
      9          1           0        0.624844    0.725979   -1.188649
     10          1           0        4.427124    0.131517    0.711495
     11          1           0        4.478347   -2.233673   -0.115147
     12          7           0        2.497562    1.921245    0.285226
     13          8           0        3.453909    2.304114    0.955634
     14          8           0        1.520877    2.606331   -0.010375
     15          6           0       -3.640813   -0.170202   -0.248513
     16          6           0       -4.835647    0.723550    0.085503
     17          6           0       -5.634609    1.129737   -1.153231
     18          1           0       -2.983499    0.355858   -0.954307
     19          1           0       -3.998847   -1.070657   -0.766572
     20          1           0       -4.475607    1.621403    0.604008
     21          1           0       -5.490094    0.195376    0.790733
     22          1           0       -6.021427    0.245080   -1.669325
     23          1           0       -5.001176    1.679208   -1.857112
     24          1           0       -6.484060    1.768316   -0.891490
     25          6           0       -2.832232   -0.584628    0.979566
     26          6           0       -1.637399   -1.478379    0.645549
     27          6           0       -0.838437   -1.884566    1.884284
     28          1           0       -2.474198    0.315828    1.497625
     29          1           0       -3.489546   -1.110688    1.685359
     30          1           0       -0.982951   -0.950206   -0.059680
     31          1           0       -1.997438   -2.376232    0.127045
     32          1           0       -1.471870   -2.434037    2.588164
     33          1           0       -0.451618   -0.999909    2.400378
     34          1           0        0.011015   -2.523146    1.622543
 ---------------------------------------------------------------------

 SCF Done:  E(RHF) =  -669.534351495     A.U. after   15 cycles
 E2 =    -0.2093613389D+01 EUMP2 =    -0.67162796488403D+03

 The electronic state is 1-A.
 Alpha  occ. eigenvalues --  -20.60829 -20.60822 -15.85882 -11.31252 -11.27813
 Alpha  occ. eigenvalues --  -11.27796 -11.27548 -11.26830 -11.26814 -11.21855
 Alpha  occ. eigenvalues --  -11.21672 -11.21591 -11.21499 -11.21248 -11.21125
 Alpha  occ. eigenvalues --   -1.59903  -1.39457  -1.19426  -1.08817  -1.08603
 Alpha  occ. eigenvalues --   -1.04846  -1.03677  -0.96120  -0.95653  -0.87138
 Alpha  occ. eigenvalues --   -0.86222  -0.82501  -0.79778  -0.78450  -0.77516
 Alpha  occ. eigenvalues --   -0.72101  -0.71227  -0.70535  -0.65287  -0.65047
 Alpha  occ. eigenvalues --   -0.64826  -0.62215  -0.61069  -0.59509  -0.57757
 Alpha  occ. eigenvalues --   -0.55420  -0.55322  -0.53162  -0.52917  -0.52768
 Alpha  occ. eigenvalues --   -0.52539  -0.50061  -0.48859  -0.48855  -0.48081
 Alpha  occ. eigenvalues --   -0.46811  -0.45982  -0.45882  -0.44859  -0.43940
 Alpha  occ. eigenvalues --   -0.37399  -0.36309
 Alpha virt. eigenvalues --    0.04973   0.11166   0.16385   0.20552   0.22833
 Alpha virt. eigenvalues --    0.24252   0.25364   0.26706   0.27585   0.28107
 Alpha virt. eigenvalues --    0.29530   0.30644   0.31334   0.31627   0.32315

 Mulliken charges:
               1
     1  C   -0.172773
     2  C   -0.214032
     3  C   -0.170635
     4  C    0.157585
     5  C   -0.171317
     6  C   -0.218182
     7  H    0.226034
     8  H    0.225729
     9  H    0.275562
    10  H    0.275784
    11  H    0.223781
    12  N    0.488010
    13  O   -0.459976
    14  O   -0.460841
    15  C   -0.297566
    16  C   -0.300208
    17  C   -0.476026
    18  H    0.145449
    19  H    0.147401
    20  H    0.156029
    21  H    0.152225
    22  H    0.153746
    23  H    0.155739
    24  H    0.161614
    25  C   -0.299028
    26  C   -0.303063
    27  C   -0.475392
    28  H    0.155528
    29  H    0.150251
    30  H    0.149074
    31  H    0.146889
    32  H    0.155520
    33  H    0.159102
    34  H    0.157986
 Sum of Mulliken charges =  -0.00000

 Dipole moment (field-independent basis, Debye):
    X=              0.1341    Y=             -4.8668    Z=             -1.6746  Tot=              5.1486
 Quadrupole moment (field-independent basis, Debye-Ang):
   XX=            -90.4250   YY=           -100.0481   ZZ=            -94.2769
   XY=            -12.8063   XZ=             -2.9433   YZ=              0.0889

 Normal termination of Gaussian 16 at Wed May  5 23:58:20 2021.
