 Gaussian 16, Revision A.03,
 Gaussian 16:  EM64L-G16RevA.03 25-Dec-2016

 -------------
 #p 6-31g* mp2
 -------------

 ------------------------------------------------------
 Input file generated by CHIRIPA (05-May-2021 14:53:12)
 ------------------------------------------------------
 Symbolic Z-matrix:
 Charge =  0 Multiplicity = 1

                         Standard orientation:
 ---------------------------------------------------------------------
 Center     Atomic      Atomic             Coordinates (Angstroms)
 Number     Number       Type             X           Y           Z
 ---------------------------------------------------------------------
      1          6           0       -3.503182   -0.435904   -0.459123
      2          6           0       -4.096110   -1.831419   -0.261738
      3          6           0       -3.309243   -2.917342   -0.996181
      4          1           0       -3.472796   -0.205892   -1.532955
      5          1           0       -2.461419   -0.434958   -0.109660
      6          1           0       -5.136875   -1.829368   -0.610190
      7          1           0       -4.125265   -2.058059    0.811761
      8          1           0       -2.273578   -2.948454   -0.642587
      9          1           0       -3.290936   -2.718464   -2.072617
     10          1           0       -3.750426   -3.906928   -0.841467
     11          6           0       -4.278825    0.660421    0.269009
     12          6           0       -3.685898    2.055936    0.071625
     13          6           0       -4.472764    3.141859    0.806068
     14          1           0       -5.320588    0.659474   -0.080453
     15          1           0       -4.309211    0.430409    1.342842
     16          1           0       -3.656742    2.282575   -1.001874
     17          1           0       -2.645132    2.053885    0.420077
     18          1           0       -4.491071    2.942980    1.882504
     19          1           0       -5.508430    3.172970    0.452473
     20          1           0       -4.031581    4.131445    0.651354
     21          6           0        1.104558   -1.527432    0.814370
     22          6           0        0.896941   -0.494691   -0.105882
     23          6           0        1.961878    0.309317   -0.523048
     24          6           0        3.226943    0.051486    0.002713
     25          6           0        3.465715   -0.969841    0.920954
     26          6           0        2.386023   -1.761298    1.323952
     27          1           0        0.271558   -2.147130    1.132931
     28          1           0       -0.097180   -0.310771   -0.503300
     29          1           0        1.829313    1.115553   -1.234264
     30          1           0        4.468098   -1.128988    1.299530
     31          1           0        2.550213   -2.562634    2.038759
     32          7           0        4.362155    0.896010   -0.431423
     33          8           0        5.467060    0.648435    0.046624
     34          8           0        4.125534    1.789532   -1.241525
 ---------------------------------------------------------------------

 SCF Done:  E(RHF) =  -669.535577953     A.U. after   15 cycles
 E2 =    -0.2091473033D+01 EUMP2 =    -0.67162705098532D+03

 The electronic state is 1-A.
 Alpha  occ. eigenvalues --  -20.60737 -20.60732 -15.85790 -11.31154 -11.27724
 Alpha  occ. eigenvalues --  -11.27710 -11.27470 -11.26744 -11.26695 -11.22573
 Alpha  occ. eigenvalues --  -11.22484 -11.22307 -11.22183 -11.22086 -11.21596
 Alpha  occ. eigenvalues --   -1.59812  -1.39366  -1.19325  -1.09336  -1.08723
 Alpha  occ. eigenvalues --   -1.04726  -1.04355  -0.96813  -0.95558  -0.87822
 Alpha  occ. eigenvalues --   -0.86129  -0.82388  -0.80431  -0.79165  -0.77432
 Alpha  occ. eigenvalues --   -0.72009  -0.71135  -0.70442  -0.66005  -0.64976
 Alpha  occ. eigenvalues --   -0.64714  -0.62088  -0.61737  -0.60181  -0.58418
 Alpha  occ. eigenvalues --   -0.56125  -0.55228  -0.53469  -0.53254  -0.53055
 Alpha  occ. eigenvalues --   -0.52810  -0.50751  -0.48790  -0.48764  -0.48717
 Alpha  occ. eigenvalues --   -0.47473  -0.46668  -0.46595  -0.44772  -0.44630
 Alpha  occ. eigenvalues --   -0.37310  -0.36327
 Alpha virt. eigenvalues --    0.05095   0.11288   0.16569   0.18550   0.22684
 Alpha virt. eigenvalues --    0.23509   0.24774   0.25942   0.26463   0.28114
 Alpha virt. eigenvalues --    0.29056   0.30513   0.31012   0.31449   0.31811

 Mulliken charges:
               1
     1  C   -0.304031
     2  C   -0.300346
     3  C   -0.475748
     4  H    0.152449
     5  H    0.141886
     6  H    0.156922
     7  H    0.152306
     8  H    0.146233
     9  H    0.158947
    10  H    0.164554
    11  C   -0.297926
    12  C   -0.300919
    13  C   -0.476195
    14  H    0.153161
    15  H    0.150909
    16  H    0.153124
    17  H    0.149842
    18  H    0.156213
    19  H    0.156693
    20  H    0.163253
    21  C   -0.174132
    22  C   -0.225959
    23  C   -0.172011
    24  C    0.158991
    25  C   -0.171260
    26  C   -0.218485
    27  H    0.225687
    28  H    0.233860
    29  H    0.276171
    30  H    0.275487
    31  H    0.223333
    32  N    0.487928
    33  O   -0.460552
    34  O   -0.460386
 Sum of Mulliken charges =  -0.00000

 Dipole moment (field-independent basis, Debye):
    X=             -4.2524    Y=             -2.9361    Z=              1.5080  Tot=              5.3831
 Quadrupole moment (field-independent basis, Debye-Ang):
   XX=           -117.8399   YY=            -94.7031   ZZ=            -93.0147
   XY=            -11.4177   XZ=              7.8789   YZ=             -2.2100

 Normal termination of Gaussian 16 at Thu May  6 10:26:00 2021.
