 Gaussian 16, Revision A.03,
 Gaussian 16:  EM64L-G16RevA.03 25-Dec-2016

 -------------
 #p 6-31g* mp2
 -------------

 ------------------------------------------------------
 Input file generated by CHIRIPA (05-May-2021 14:51:10)
 ------------------------------------------------------
 Symbolic Z-matrix:
 Charge =  0 Multiplicity = 1

                         Standard orientation:
 ---------------------------------------------------------------------
 Center     Atomic      Atomic             Coordinates (Angstroms)
 Number     Number       Type             X           Y           Z
 ---------------------------------------------------------------------
      1          6           0        3.275301    0.240114    0.204518
      2          6           0        3.246511    1.039352   -1.098699
      3          6           0        4.469397    1.941797   -1.265853
      4          1           0        3.338088    0.935744    1.052517
      5          1           0        4.188840   -0.369860    0.232309
      6          1           0        2.332616    1.646591   -1.124650
      7          1           0        3.183592    0.341746   -1.943685
      8          1           0        5.389211    1.348044   -1.265981
      9          1           0        4.533400    2.660303   -0.442291
     10          1           0        4.428305    2.503894   -2.204052
     11          6           0        2.059417   -0.666759    0.386002
     12          6           0        2.088206   -1.465997    1.689219
     13          6           0        0.865321   -2.368441    1.856372
     14          1           0        1.145878   -0.056784    0.358211
     15          1           0        1.996630   -1.362389   -0.461997
     16          1           0        2.151126   -0.768390    2.534205
     17          1           0        3.002101   -2.073235    1.715170
     18          1           0        0.801317   -3.086947    1.032811
     19          1           0       -0.054493   -1.774688    1.856500
     20          1           0        0.906413   -2.930538    2.794572
     21          6           0       -2.634230   -0.213950   -0.927536
     22          6           0       -2.328883   -1.686121   -0.649215
     23          6           0       -2.265854   -2.528036   -1.923969
     24          1           0       -3.589247   -0.139477   -1.465441
     25          1           0       -1.864934    0.192339   -1.598734
     26          1           0       -3.097756   -2.089142    0.022367
     27          1           0       -1.374576   -1.757085   -0.111742
     28          1           0       -1.486441   -2.153046   -2.595161
     29          1           0       -3.219413   -2.486990   -2.460291
     30          1           0       -2.046427   -3.577022   -1.701845
     31          6           0       -2.700487    0.640595    0.337016
     32          6           0       -3.005835    2.112765    0.058695
     33          6           0       -3.068864    2.954681    1.333450
     34          1           0       -3.469782    0.234305    1.008215
     35          1           0       -1.745470    0.566121    0.874921
     36          1           0       -3.960142    2.183730   -0.478779
     37          1           0       -2.236961    2.515787   -0.612886
     38          1           0       -2.115305    2.913635    1.869772
     39          1           0       -3.848276    2.579690    2.004642
     40          1           0       -3.288290    4.003667    1.111325
 ---------------------------------------------------------------------

 SCF Done:  E(RHF) =  -470.732935418     A.U. after   11 cycles
 E2 =    -0.1583873419D+01 EUMP2 =    -0.47231680883657D+03

 The electronic state is 1-A.
 Alpha  occ. eigenvalues --  -11.21666 -11.21664 -11.21622 -11.21490 -11.21448
 Alpha  occ. eigenvalues --  -11.21425 -11.21410 -11.21314 -11.21117 -11.21102
 Alpha  occ. eigenvalues --  -11.21097 -11.21002  -1.08511  -1.08401  -1.03603
 Alpha  occ. eigenvalues --   -1.03487  -0.96047  -0.95954  -0.87069  -0.86965
 Alpha  occ. eigenvalues --   -0.79721  -0.79514  -0.78379  -0.78160  -0.65206
 Alpha  occ. eigenvalues --   -0.64977  -0.61005  -0.60898  -0.59436  -0.59301
 Alpha  occ. eigenvalues --   -0.57694  -0.57530  -0.55338  -0.55242  -0.52728
 Alpha  occ. eigenvalues --   -0.52662  -0.52502  -0.52356  -0.50005  -0.49888
 Alpha  occ. eigenvalues --   -0.48185  -0.47756  -0.46747  -0.46563  -0.46115
 Alpha  occ. eigenvalues --   -0.45796  -0.45716  -0.45248  -0.43849  -0.43753
 Alpha virt. eigenvalues --    0.19886   0.23306   0.23652   0.24273   0.25504
 Alpha virt. eigenvalues --    0.26672   0.26788   0.27708   0.28480   0.29685
 Alpha virt. eigenvalues --    0.31096   0.31499   0.31696   0.31716   0.31967

 Mulliken charges:
               1
     1  C   -0.298226
     2  C   -0.299666
     3  C   -0.475759
     4  H    0.149841
     5  H    0.150035
     6  H    0.151511
     7  H    0.152047
     8  H    0.155373
     9  H    0.155321
    10  H    0.160452
    11  C   -0.301894
    12  C   -0.299458
    13  C   -0.481097
    14  H    0.151160
    15  H    0.150086
    16  H    0.151980
    17  H    0.152275
    18  H    0.155917
    19  H    0.160307
    20  H    0.160985
    21  C   -0.297605
    22  C   -0.309132
    23  C   -0.475408
    24  H    0.149358
    25  H    0.149529
    26  H    0.150835
    27  H    0.164044
    28  H    0.154795
    29  H    0.154712
    30  H    0.159730
    31  C   -0.301891
    32  C   -0.299516
    33  C   -0.475650
    34  H    0.149832
    35  H    0.150674
    36  H    0.152407
    37  H    0.151728
    38  H    0.154629
    39  H    0.155362
    40  H    0.160375
 Sum of Mulliken charges =  -0.00000

 Dipole moment (field-independent basis, Debye):
    X=              0.0417    Y=             -0.0135    Z=              0.0236  Tot=              0.0498
 Quadrupole moment (field-independent basis, Debye-Ang):
   XX=            -84.2002   YY=            -85.2007   ZZ=            -85.3317
   XY=             -0.7537   XZ=             -0.0819   YZ=             -0.1460

 Normal termination of Gaussian 16 at Thu May  6 02:11:17 2021.
