 Gaussian 16, Revision A.03,
 Gaussian 16:  EM64L-G16RevA.03 25-Dec-2016

 -------------
 #p 6-31g* mp2
 -------------

 ------------------------------------------------------
 Input file generated by CHIRIPA (05-May-2021 14:53:18)
 ------------------------------------------------------
 Symbolic Z-matrix:
 Charge =  0 Multiplicity = 1

                         Standard orientation:
 ---------------------------------------------------------------------
 Center     Atomic      Atomic             Coordinates (Angstroms)
 Number     Number       Type             X           Y           Z
 ---------------------------------------------------------------------
      1          6           0        3.616577    0.728408    0.390790
      2          6           0        3.751347    2.194275   -0.022797
      3          6           0        2.764975    3.107255    0.706128
      4          1           0        2.589398    0.391661    0.194701
      5          1           0        3.771156    0.645008    1.475476
      6          1           0        3.597929    2.274699   -1.106592
      7          1           0        4.778377    2.527516    0.174121
      8          1           0        2.920909    3.056645    1.788590
      9          1           0        1.733754    2.802392    0.500601
     10          1           0        2.878663    4.150510    0.395399
     11          6           0        4.595997   -0.196740   -0.329326
     12          6           0        4.461226   -1.662608    0.084262
     13          6           0        5.447598   -2.575587   -0.644664
     14          1           0        4.441417   -0.113340   -1.414012
     15          1           0        5.623175    0.140007   -0.133237
     16          1           0        3.434196   -1.995849   -0.112657
     17          1           0        4.614645   -1.743031    1.168056
     18          1           0        6.478819   -2.270724   -0.439137
     19          1           0        5.291664   -2.524978   -1.727126
     20          1           0        5.333910   -3.618843   -0.333934
     21          6           0       -0.701533   -0.439250    0.148447
     22          6           0       -1.258545    0.550485   -0.668060
     23          6           0       -2.645991    0.687963   -0.771233
     24          6           0       -3.450356   -0.185296   -0.040682
     25          6           0       -2.925511   -1.181355    0.781324
     26          6           0       -1.535324   -1.300492    0.869263
     27          1           0        0.377332   -0.538922    0.222677
     28          1           0       -0.613450    1.220741   -1.229001
     29          1           0       -3.103788    1.445391   -1.395847
     30          1           0       -3.594264   -1.834705    1.328427
     31          1           0       -1.105526   -2.070054    1.504160
     32          7           0       -4.920634   -0.049463   -0.141842
     33          8           0       -5.607591   -0.831295    0.511964
     34          8           0       -5.358239    0.836265   -0.873024
 ---------------------------------------------------------------------

 SCF Done:  E(RHF) =  -669.535540168     A.U. after   15 cycles
 E2 =    -0.2091438064D+01 EUMP2 =    -0.67162697823192D+03

 The electronic state is 1-A.
 Alpha  occ. eigenvalues --  -20.60744 -20.60739 -15.85798 -11.31164 -11.27739
 Alpha  occ. eigenvalues --  -11.27733 -11.27457 -11.26755 -11.26737 -11.22591
 Alpha  occ. eigenvalues --  -11.22548 -11.22530 -11.22325 -11.21966 -11.21814
 Alpha  occ. eigenvalues --   -1.59819  -1.39373  -1.19338  -1.09436  -1.08731
 Alpha  occ. eigenvalues --   -1.04743  -1.04446  -0.96890  -0.95567  -0.87898
 Alpha  occ. eigenvalues --   -0.86139  -0.82403  -0.80513  -0.79274  -0.77447
 Alpha  occ. eigenvalues --   -0.72016  -0.71143  -0.70466  -0.66076  -0.64989
 Alpha  occ. eigenvalues --   -0.64744  -0.62097  -0.61835  -0.60254  -0.58507
 Alpha  occ. eigenvalues --   -0.56218  -0.55241  -0.53543  -0.53297  -0.53069
 Alpha  occ. eigenvalues --   -0.52834  -0.50827  -0.48822  -0.48775  -0.48770
 Alpha  occ. eigenvalues --   -0.47559  -0.46796  -0.46709  -0.44778  -0.44726
 Alpha  occ. eigenvalues --   -0.37312  -0.36348
 Alpha virt. eigenvalues --    0.05088   0.11264   0.16570   0.18450   0.22701
 Alpha virt. eigenvalues --    0.23116   0.24604   0.25979   0.26437   0.27761
 Alpha virt. eigenvalues --    0.29483   0.30821   0.30921   0.31243   0.31564

 Mulliken charges:
               1
     1  C   -0.303260
     2  C   -0.300542
     3  C   -0.476120
     4  H    0.140507
     5  H    0.153232
     6  H    0.151872
     7  H    0.156588
     8  H    0.158437
     9  H    0.149898
    10  H    0.164360
    11  C   -0.298409
    12  C   -0.299894
    13  C   -0.476139
    14  H    0.150747
    15  H    0.154018
    16  H    0.145452
    17  H    0.153509
    18  H    0.157727
    19  H    0.156709
    20  H    0.162190
    21  C   -0.177509
    22  C   -0.222750
    23  C   -0.170639
    24  C    0.158267
    25  C   -0.170549
    26  C   -0.220426
    27  H    0.236894
    28  H    0.223369
    29  H    0.275648
    30  H    0.275524
    31  H    0.224231
    32  N    0.488007
    33  O   -0.460451
    34  O   -0.460498
 Sum of Mulliken charges =  -0.00000

 Dipole moment (field-independent basis, Debye):
    X=              5.4411    Y=             -0.4385    Z=              0.3820  Tot=              5.4721
 Quadrupole moment (field-independent basis, Debye-Ang):
   XX=           -129.7799   YY=            -92.2220   ZZ=            -92.8764
   XY=              1.9506   XZ=             -1.0165   YZ=             -3.0636

 Normal termination of Gaussian 16 at Wed May  5 22:05:17 2021.
