 Gaussian 16, Revision A.03,
 Gaussian 16:  EM64L-G16RevA.03 25-Dec-2016

 -------------
 #p 6-31g* mp2
 -------------

 ------------------------------------------------------
 Input file generated by CHIRIPA (05-May-2021 14:55:21)
 ------------------------------------------------------
 Symbolic Z-matrix:
 Charge =  0 Multiplicity = 1

                         Standard orientation:
 ---------------------------------------------------------------------
 Center     Atomic      Atomic             Coordinates (Angstroms)
 Number     Number       Type             X           Y           Z
 ---------------------------------------------------------------------
      1          6           0       -0.982622    0.469468    0.477013
      2          6           0       -1.395838    0.090389   -0.804422
      3          6           0       -2.733525   -0.231107   -1.052976
      4          6           0       -3.635306   -0.162558    0.007864
      5          6           0       -3.254365    0.211612    1.295564
      6          6           0       -1.911567    0.528764    1.521075
      7          1           0        0.058511    0.717527    0.661145
      8          1           0       -0.676603    0.043463   -1.617161
      9          1           0       -3.080561   -0.527679   -2.035335
     10          1           0       -3.994480    0.249160    2.085652
     11          1           0       -1.593503    0.822837    2.517269
     12          7           0       -5.054161   -0.500613   -0.243072
     13          8           0       -5.829090   -0.432428    0.708492
     14          8           0       -5.364465   -0.827364   -1.386567
     15          6           0        4.222459    0.776337   -0.459364
     16          6           0        3.339455    1.779491    0.283582
     17          6           0        3.085575    3.053862   -0.522221
     18          1           0        5.181040    1.253241   -0.705598
     19          1           0        3.747118    0.517935   -1.415751
     20          1           0        3.815646    2.034868    1.238904
     21          1           0        2.382938    1.300084    0.528244
     22          1           0        2.588760    2.818442   -1.468981
     23          1           0        4.029608    3.557401   -0.754282
     24          1           0        2.452227    3.757020    0.027595
     25          6           0        4.485283   -0.502821    0.333358
     26          6           0        5.368287   -1.505975   -0.409589
     27          6           0        5.622167   -2.780346    0.396214
     28          1           0        4.960624   -0.244419    1.289744
     29          1           0        3.526702   -0.979724    0.579591
     30          1           0        6.324804   -1.026566   -0.654251
     31          1           0        4.892096   -1.761352   -1.364911
     32          1           0        4.678134   -3.283885    0.628275
     33          1           0        6.118982   -2.544925    1.342973
     34          1           0        6.255515   -3.483504   -0.153602
 ---------------------------------------------------------------------

 SCF Done:  E(RHF) =  -669.535472906     A.U. after   15 cycles
 E2 =    -0.2091054764D+01 EUMP2 =    -0.67162652767069D+03

 The electronic state is 1-A.
 Alpha  occ. eigenvalues --  -20.60748 -20.60743 -15.85802 -11.31167 -11.27740
 Alpha  occ. eigenvalues --  -11.27736 -11.27462 -11.26755 -11.26743 -11.22797
 Alpha  occ. eigenvalues --  -11.22340 -11.22281 -11.22199 -11.22064 -11.21630
 Alpha  occ. eigenvalues --   -1.59824  -1.39377  -1.19341  -1.09336  -1.08734
 Alpha  occ. eigenvalues --   -1.04746  -1.04398  -0.96813  -0.95571  -0.87828
 Alpha  occ. eigenvalues --   -0.86142  -0.82407  -0.80485  -0.79130  -0.77451
 Alpha  occ. eigenvalues --   -0.72020  -0.71147  -0.70471  -0.65978  -0.64992
 Alpha  occ. eigenvalues --   -0.64750  -0.62095  -0.61806  -0.60201  -0.58428
 Alpha  occ. eigenvalues --   -0.56105  -0.55255  -0.53504  -0.53225  -0.53074
 Alpha  occ. eigenvalues --   -0.52838  -0.50757  -0.48807  -0.48775  -0.48752
 Alpha  occ. eigenvalues --   -0.47533  -0.46665  -0.46581  -0.44783  -0.44645
 Alpha  occ. eigenvalues --   -0.37318  -0.36352
 Alpha virt. eigenvalues --    0.05086   0.11303   0.16576   0.18919   0.22626
 Alpha virt. eigenvalues --    0.23697   0.24949   0.26111   0.27229   0.27421
 Alpha virt. eigenvalues --    0.28913   0.30299   0.30905   0.31137   0.32039

 Mulliken charges:
               1
     1  C   -0.178511
     2  C   -0.222405
     3  C   -0.170676
     4  C    0.158229
     5  C   -0.170550
     6  C   -0.221731
     7  H    0.239449
     8  H    0.223017
     9  H    0.275527
    10  H    0.275535
    11  H    0.224219
    12  N    0.487960
    13  O   -0.460450
    14  O   -0.460517
    15  C   -0.297951
    16  C   -0.306070
    17  C   -0.475976
    18  H    0.154075
    19  H    0.148189
    20  H    0.156641
    21  H    0.142605
    22  H    0.154295
    23  H    0.160334
    24  H    0.161669
    25  C   -0.298454
    26  C   -0.300146
    27  C   -0.476248
    28  H    0.151511
    29  H    0.146159
    30  H    0.153836
    31  H    0.152155
    32  H    0.155535
    33  H    0.156149
    34  H    0.162595
 Sum of Mulliken charges =  -0.00000

 Dipole moment (field-independent basis, Debye):
    X=              5.2445    Y=              1.2202    Z=              0.8745  Tot=              5.4552
 Quadrupole moment (field-independent basis, Debye-Ang):
   XX=           -129.8120   YY=            -96.2501   ZZ=            -90.1953
   XY=             -4.6240   XZ=             -4.2145   YZ=              1.4976

 Normal termination of Gaussian 16 at Thu May  6 10:51:49 2021.
