 Gaussian 16, Revision A.03,
 Gaussian 16:  EM64L-G16RevA.03 25-Dec-2016

 -------------
 #p 6-31g* mp2
 -------------

 ------------------------------------------------------
 Input file generated by CHIRIPA (05-May-2021 14:51:11)
 ------------------------------------------------------
 Symbolic Z-matrix:
 Charge =  0 Multiplicity = 1

                         Standard orientation:
 ---------------------------------------------------------------------
 Center     Atomic      Atomic             Coordinates (Angstroms)
 Number     Number       Type             X           Y           Z
 ---------------------------------------------------------------------
      1          6           0        2.905141   -1.077994   -0.224433
      2          6           0        1.393627   -0.895787   -0.082622
      3          6           0        0.611505   -2.168068   -0.410312
      4          1           0        3.134910   -1.397411   -1.250163
      5          1           0        3.233019   -1.891719    0.437189
      6          1           0        1.068906   -0.081725   -0.743285
      7          1           0        1.167446   -0.576581    0.942837
      8          1           0        0.907026   -2.984468    0.256591
      9          1           0        0.807927   -2.486801   -1.439111
     10          1           0       -0.466882   -2.015382   -0.302477
     11          6           0        3.700677    0.185223    0.099813
     12          6           0        5.212191    0.003016   -0.041998
     13          6           0        5.994312    1.275297    0.285692
     14          1           0        3.372799    0.998947   -0.561808
     15          1           0        3.470907    0.504640    1.125544
     16          1           0        5.438372   -0.316190   -1.067457
     17          1           0        5.536912   -0.811046    0.618665
     18          1           0        5.797891    1.594030    1.314492
     19          1           0        5.698791    2.091697   -0.381210
     20          1           0        7.072700    1.122611    0.177858
     21          6           0       -3.198753   -0.229872    0.401809
     22          6           0       -3.978531   -1.366826   -0.259453
     23          6           0       -3.759909   -2.713383    0.431042
     24          1           0       -2.128217   -0.476590    0.396799
     25          1           0       -3.497289   -0.154836    1.456627
     26          1           0       -3.679624   -1.438797   -1.313061
     27          1           0       -5.047317   -1.117286   -0.253039
     28          1           0       -4.075866   -2.665162    1.478155
     29          1           0       -2.700403   -2.988500    0.412110
     30          1           0       -4.326568   -3.511951   -0.057881
     31          6           0       -3.407064    1.122643   -0.277190
     32          6           0       -2.627287    2.259597    0.384072
     33          6           0       -2.845910    3.606154   -0.306422
     34          1           0       -3.108529    1.047606   -1.332007
     35          1           0       -4.477602    1.369361   -0.272178
     36          1           0       -1.558501    2.010057    0.377659
     37          1           0       -2.926193    2.331568    1.437681
     38          1           0       -3.905415    3.881271   -0.287491
     39          1           0       -2.529951    3.557934   -1.353536
     40          1           0       -2.279249    4.404722    0.182500
 ---------------------------------------------------------------------

 SCF Done:  E(RHF) =  -470.733044650     A.U. after   11 cycles
 E2 =    -0.1583361727D+01 EUMP2 =    -0.47231640637715D+03

 The electronic state is 1-A.
 Alpha  occ. eigenvalues --  -11.21684 -11.21629 -11.21591 -11.21579 -11.21454
 Alpha  occ. eigenvalues --  -11.21391 -11.21386 -11.21326 -11.21131 -11.21091
 Alpha  occ. eigenvalues --  -11.21059 -11.21041  -1.08485  -1.08415  -1.03591
 Alpha  occ. eigenvalues --   -1.03511  -0.96034  -0.95964  -0.87052  -0.86981
 Alpha  occ. eigenvalues --   -0.79661  -0.79561  -0.78300  -0.78228  -0.65109
 Alpha  occ. eigenvalues --   -0.65088  -0.60991  -0.60957  -0.59464  -0.59252
 Alpha  occ. eigenvalues --   -0.57645  -0.57571  -0.55317  -0.55254  -0.52759
 Alpha  occ. eigenvalues --   -0.52650  -0.52481  -0.52373  -0.49979  -0.49898
 Alpha  occ. eigenvalues --   -0.48040  -0.47829  -0.46676  -0.46593  -0.45845
 Alpha  occ. eigenvalues --   -0.45756  -0.45750  -0.45666  -0.43796  -0.43764
 Alpha virt. eigenvalues --    0.20482   0.23063   0.23577   0.24523   0.26188
 Alpha virt. eigenvalues --    0.26608   0.26971   0.27418   0.27977   0.29369
 Alpha virt. eigenvalues --    0.30210   0.31371   0.31714   0.31926   0.32269

 Mulliken charges:
               1
     1  C   -0.298567
     2  C   -0.300058
     3  C   -0.486129
     4  H    0.149873
     5  H    0.149927
     6  H    0.151629
     7  H    0.152754
     8  H    0.155920
     9  H    0.155690
    10  H    0.168993
    11  C   -0.298352
    12  C   -0.299699
    13  C   -0.475747
    14  H    0.149516
    15  H    0.149866
    16  H    0.151988
    17  H    0.152038
    18  H    0.155271
    19  H    0.155230
    20  H    0.160363
    21  C   -0.306041
    22  C   -0.299512
    23  C   -0.480098
    24  H    0.156423
    25  H    0.149631
    26  H    0.151893
    27  H    0.152167
    28  H    0.155152
    29  H    0.159014
    30  H    0.160448
    31  C   -0.297549
    32  C   -0.300600
    33  C   -0.475662
    34  H    0.149282
    35  H    0.149626
    36  H    0.153146
    37  H    0.151817
    38  H    0.155126
    39  H    0.154985
    40  H    0.160246
 Sum of Mulliken charges =  -0.00000

 Dipole moment (field-independent basis, Debye):
    X=              0.0289    Y=             -0.0067    Z=              0.0062  Tot=              0.0303
 Quadrupole moment (field-independent basis, Debye-Ang):
   XX=            -84.6584   YY=            -86.4763   ZZ=            -83.6165
   XY=             -0.6999   XZ=             -0.6017   YZ=              0.0648

 Normal termination of Gaussian 16 at Wed May  5 16:45:30 2021.
