 Gaussian 16, Revision A.03,
 Gaussian 16:  EM64L-G16RevA.03 25-Dec-2016

 -------------
 #p 6-31g* mp2
 -------------

 ------------------------------------------------------
 Input file generated by CHIRIPA (05-May-2021 14:51:10)
 ------------------------------------------------------
 Symbolic Z-matrix:
 Charge =  0 Multiplicity = 1

                         Standard orientation:
 ---------------------------------------------------------------------
 Center     Atomic      Atomic             Coordinates (Angstroms)
 Number     Number       Type             X           Y           Z
 ---------------------------------------------------------------------
      1          6           0       -2.427592   -0.882969    0.357763
      2          6           0       -1.731715   -2.125829   -0.198150
      3          6           0       -0.365378   -2.374220    0.441553
      4          1           0       -1.782572   -0.007811    0.199673
      5          1           0       -2.545069   -0.992399    1.444786
      6          1           0       -1.616828   -2.014694   -1.283998
      7          1           0       -2.378550   -2.998100   -0.038891
      8          1           0       -0.465553   -2.511093    1.523141
      9          1           0        0.300497   -1.522100    0.270959
     10          1           0        0.114386   -3.267491    0.029540
     11          6           0       -3.794620   -0.621396   -0.271953
     12          6           0       -4.490497    0.621464    0.283960
     13          6           0       -5.856834    0.869855   -0.355743
     14          1           0       -3.677143   -0.511966   -1.358976
     15          1           0       -4.439641   -1.496554   -0.113863
     16          1           0       -3.843662    1.493735    0.124701
     17          1           0       -4.605384    0.510329    1.369808
     18          1           0       -6.522709    0.017735   -0.185149
     19          1           0       -5.756659    1.006728   -1.437331
     20          1           0       -6.336598    1.763126    0.056269
     21          6           0        2.824553    1.434957    0.144548
     22          6           0        1.342466    1.585850   -0.199883
     23          6           0        0.783648    2.957108    0.181127
     24          1           0        2.963114    1.602641    1.221408
     25          1           0        3.395233    2.220381   -0.370066
     26          1           0        0.774922    0.799529    0.314129
     27          1           0        1.207391    1.417598   -1.276016
     28          1           0        1.324197    3.752373   -0.342284
     29          1           0        0.889271    3.130792    1.256896
     30          1           0       -0.277200    3.043291   -0.073892
     31          6           0        3.397659    0.069409   -0.230357
     32          6           0        4.879747   -0.081485    0.114073
     33          6           0        5.438565   -1.452743   -0.266937
     34          1           0        2.826979   -0.716016    0.284257
     35          1           0        3.259098   -0.098276   -1.307218
     36          1           0        5.014821    0.086767    1.190206
     37          1           0        5.447290    0.704836   -0.399939
     38          1           0        5.332940   -1.626427   -1.342705
     39          1           0        4.898014   -2.248008    0.256474
     40          1           0        6.499412   -1.538925   -0.011918
 ---------------------------------------------------------------------

 SCF Done:  E(RHF) =  -470.732940338     A.U. after   11 cycles
 E2 =    -0.1583763713D+01 EUMP2 =    -0.47231670405064D+03

 The electronic state is 1-A.
 Alpha  occ. eigenvalues --  -11.21642 -11.21602 -11.21600 -11.21586 -11.21421
 Alpha  occ. eigenvalues --  -11.21394 -11.21356 -11.21334 -11.21123 -11.21069
 Alpha  occ. eigenvalues --  -11.21058 -11.21029  -1.08467  -1.08411  -1.03566
 Alpha  occ. eigenvalues --   -1.03511  -0.96006  -0.95966  -0.87016  -0.86991
 Alpha  occ. eigenvalues --   -0.79672  -0.79555  -0.78352  -0.78154  -0.65191
 Alpha  occ. eigenvalues --   -0.64965  -0.61043  -0.60840  -0.59409  -0.59296
 Alpha  occ. eigenvalues --   -0.57646  -0.57559  -0.55329  -0.55223  -0.52707
 Alpha  occ. eigenvalues --   -0.52665  -0.52424  -0.52397  -0.49942  -0.49939
 Alpha  occ. eigenvalues --   -0.48093  -0.47838  -0.46864  -0.46558  -0.46005
 Alpha  occ. eigenvalues --   -0.45774  -0.45728  -0.45178  -0.43803  -0.43774
 Alpha virt. eigenvalues --    0.20958   0.22821   0.23708   0.24104   0.25555
 Alpha virt. eigenvalues --    0.26171   0.26902   0.27175   0.28823   0.29296
 Alpha virt. eigenvalues --    0.30565   0.31555   0.31726   0.31866   0.32092

 Mulliken charges:
               1
     1  C   -0.303393
     2  C   -0.298827
     3  C   -0.485818
     4  H    0.154713
     5  H    0.149098
     6  H    0.152023
     7  H    0.151830
     8  H    0.154291
     9  H    0.165020
    10  H    0.160384
    11  C   -0.298108
    12  C   -0.299577
    13  C   -0.475713
    14  H    0.149546
    15  H    0.149720
    16  H    0.151608
    17  H    0.151964
    18  H    0.155206
    19  H    0.155179
    20  H    0.160278
    21  C   -0.297802
    22  C   -0.309126
    23  C   -0.475572
    24  H    0.149695
    25  H    0.149649
    26  H    0.160695
    27  H    0.151359
    28  H    0.155551
    29  H    0.155720
    30  H    0.159827
    31  C   -0.302871
    32  C   -0.299483
    33  C   -0.475795
    34  H    0.154504
    35  H    0.149357
    36  H    0.152001
    37  H    0.151900
    38  H    0.155100
    39  H    0.155679
    40  H    0.160187
 Sum of Mulliken charges =  -0.00000

 Dipole moment (field-independent basis, Debye):
    X=              0.0204    Y=              0.0080    Z=              0.0039  Tot=              0.0223
 Quadrupole moment (field-independent basis, Debye-Ang):
   XX=            -85.8457   YY=            -85.3785   ZZ=            -83.5755
   XY=              1.1571   XZ=             -0.7749   YZ=             -0.8149

 Normal termination of Gaussian 16 at Thu May  6 00:37:24 2021.
