 Gaussian 16, Revision A.03,
 Gaussian 16:  EM64L-G16RevA.03 25-Dec-2016

 -------------
 #p 6-31g* mp2
 -------------

 ------------------------------------------------------
 Input file generated by CHIRIPA (05-May-2021 14:51:10)
 ------------------------------------------------------
 Symbolic Z-matrix:
 Charge =  0 Multiplicity = 1

                         Standard orientation:
 ---------------------------------------------------------------------
 Center     Atomic      Atomic             Coordinates (Angstroms)
 Number     Number       Type             X           Y           Z
 ---------------------------------------------------------------------
      1          6           0        2.849613   -0.327084    0.289120
      2          6           0        4.229574   -0.028804   -0.298008
      3          6           0        4.852767    1.244771    0.274209
      4          1           0        2.184552    0.526182    0.097874
      5          1           0        2.935187   -0.418144    1.380807
      6          1           0        4.141661    0.060296   -1.388397
      7          1           0        4.891373   -0.882960   -0.105510
      8          1           0        4.969426    1.162483    1.359668
      9          1           0        4.215453    2.111098    0.069491
     10          1           0        5.838807    1.438994   -0.159222
     11          6           0        2.213678   -1.597206   -0.273112
     12          6           0        0.833716   -1.895486    0.314016
     13          6           0        0.210523   -3.169061   -0.258201
     14          1           0        2.128104   -1.506146   -1.364799
     15          1           0        2.878739   -2.450473   -0.081866
     16          1           0        0.171917   -1.041330    0.121518
     17          1           0        0.921629   -1.984586    1.404405
     18          1           0        0.847837   -4.035388   -0.053483
     19          1           0        0.093865   -3.086773   -1.343660
     20          1           0       -0.775517   -3.363285    0.175230
     21          6           0       -3.252209    0.711344   -0.044323
     22          6           0       -3.380592   -0.797355    0.168589
     23          6           0       -4.828106   -1.283963    0.093049
     24          1           0       -3.856184    1.234345    0.709752
     25          1           0       -3.677743    0.974053   -1.022739
     26          1           0       -2.953690   -1.057328    1.145719
     27          1           0       -2.776088   -1.316821   -0.585962
     28          1           0       -5.261541   -1.053185   -0.885458
     29          1           0       -5.440151   -0.792218    0.856062
     30          1           0       -4.896769   -2.365224    0.248034
     31          6           0       -1.811081    1.212946    0.028314
     32          6           0       -1.682699    2.721645   -0.184596
     33          6           0       -0.235184    3.208253   -0.109057
     34          1           0       -1.385547    0.950237    1.006732
     35          1           0       -1.207107    0.689945   -0.725761
     36          1           0       -2.287201    3.241111    0.569954
     37          1           0       -2.109600    2.981618   -1.161728
     38          1           0        0.376862    2.716509   -0.872071
     39          1           0        0.198251    2.977475    0.869450
     40          1           0       -0.166521    4.289514   -0.264042
 ---------------------------------------------------------------------

 SCF Done:  E(RHF) =  -470.732811034     A.U. after   11 cycles
 E2 =    -0.1584532559D+01 EUMP2 =    -0.47231734359278D+03

 The electronic state is 1-A.
 Alpha  occ. eigenvalues --  -11.21678 -11.21630 -11.21540 -11.21472 -11.21411
 Alpha  occ. eigenvalues --  -11.21402 -11.21311 -11.21252 -11.21163 -11.21099
 Alpha  occ. eigenvalues --  -11.21012 -11.20976  -1.08515  -1.08328  -1.03593
 Alpha  occ. eigenvalues --   -1.03437  -0.96048  -0.95895  -0.87071  -0.86902
 Alpha  occ. eigenvalues --   -0.79670  -0.79513  -0.78460  -0.78014  -0.65177
 Alpha  occ. eigenvalues --   -0.64933  -0.60990  -0.60851  -0.59445  -0.59238
 Alpha  occ. eigenvalues --   -0.57672  -0.57494  -0.55336  -0.55187  -0.52740
 Alpha  occ. eigenvalues --   -0.52583  -0.52541  -0.52265  -0.50010  -0.49813
 Alpha  occ. eigenvalues --   -0.48050  -0.47794  -0.46761  -0.46647  -0.46150
 Alpha  occ. eigenvalues --   -0.45799  -0.45643  -0.45021  -0.43843  -0.43687
 Alpha virt. eigenvalues --    0.20858   0.22267   0.23577   0.24447   0.25862
 Alpha virt. eigenvalues --    0.26246   0.27258   0.27375   0.27819   0.30217
 Alpha virt. eigenvalues --    0.30879   0.31239   0.31641   0.31799   0.32139

 Mulliken charges:
               1
     1  C   -0.302018
     2  C   -0.299319
     3  C   -0.475902
     4  H    0.153379
     5  H    0.148981
     6  H    0.151402
     7  H    0.151757
     8  H    0.154907
     9  H    0.155820
    10  H    0.159916
    11  C   -0.297361
    12  C   -0.310635
    13  C   -0.476401
    14  H    0.148128
    15  H    0.149127
    16  H    0.165220
    17  H    0.150314
    18  H    0.154488
    19  H    0.153412
    20  H    0.161846
    21  C   -0.297884
    22  C   -0.303109
    23  C   -0.475739
    24  H    0.149859
    25  H    0.149435
    26  H    0.152713
    27  H    0.155450
    28  H    0.155233
    29  H    0.155231
    30  H    0.160424
    31  C   -0.303244
    32  C   -0.298799
    33  C   -0.478012
    34  H    0.152149
    35  H    0.151750
    36  H    0.152399
    37  H    0.151997
    38  H    0.155399
    39  H    0.156811
    40  H    0.160875
 Sum of Mulliken charges =  -0.00000

 Dipole moment (field-independent basis, Debye):
    X=             -0.0808    Y=              0.0633    Z=              0.0136  Tot=              0.1035
 Quadrupole moment (field-independent basis, Debye-Ang):
   XX=            -86.0007   YY=            -85.6005   ZZ=            -83.3078
   XY=             -1.2271   XZ=              0.0159   YZ=             -0.5544

 Normal termination of Gaussian 16 at Thu May  6 03:48:54 2021.
