 Gaussian 16, Revision A.03,
 Gaussian 16:  EM64L-G16RevA.03 25-Dec-2016

 -------------
 #p 6-31g* mp2
 -------------

 ------------------------------------------------------
 Input file generated by CHIRIPA (05-May-2021 14:57:26)
 ------------------------------------------------------
 Symbolic Z-matrix:
 Charge =  0 Multiplicity = 1

                         Standard orientation:
 ---------------------------------------------------------------------
 Center     Atomic      Atomic             Coordinates (Angstroms)
 Number     Number       Type             X           Y           Z
 ---------------------------------------------------------------------
      1          6           0       -2.241229    2.287923   -0.290952
      2          6           0       -3.627337    2.433781   -0.172843
      3          6           0       -4.455763    1.310050   -0.098771
      4          6           0       -3.861751    0.049806   -0.145942
      5          6           0       -2.484125   -0.128182   -0.263234
      6          6           0       -1.675044    1.009661   -0.335691
      7          1           0       -1.605202    3.166346   -0.347866
      8          1           0       -4.069809    3.425264   -0.137857
      9          1           0       -5.531832    1.394144   -0.006996
     10          1           0       -2.072195   -1.129524   -0.295579
     11          1           0       -0.598888    0.893365   -0.427381
     12          7           0       -4.728528   -1.147308   -0.068380
     13          8           0       -4.180593   -2.246624   -0.112073
     14          8           0       -5.939430   -0.963622    0.034638
     15          6           0        5.911898    0.349167   -0.937230
     16          6           0        5.596116    0.865997    0.323598
     17          6           0        4.383905    0.542372    0.940332
     18          6           0        3.506884   -0.304751    0.264678
     19          6           0        3.792822   -0.835667   -0.992166
     20          6           0        5.010832   -0.498520   -1.589938
     21          1           0        6.855826    0.605818   -1.408959
     22          1           0        6.293978    1.524557    0.832844
     23          1           0        4.114127    0.928378    1.915851
     24          1           0        3.076953   -1.489667   -1.475106
     25          1           0        5.253421   -0.901375   -2.569175
     26          7           0        2.220501   -0.654514    0.907550
     27          8           0        1.464903   -1.402928    0.291444
     28          8           0        1.992189   -0.173623    2.015365
 ---------------------------------------------------------------------

 SCF Done:  E(RHF) =  -868.339295792     A.U. after   16 cycles
 E2 =    -0.2598793190D+01 EUMP2 =    -0.87093808898168D+03

 The electronic state is 1-A.
 Alpha  occ. eigenvalues --  -20.61716 -20.61692 -20.59931 -20.59911 -15.86729
 Alpha  occ. eigenvalues --  -15.84971 -11.31894 -11.30222 -11.28433 -11.28429
 Alpha  occ. eigenvalues --  -11.28126 -11.27393 -11.27382 -11.26857 -11.26652
 Alpha  occ. eigenvalues --  -11.26577 -11.25887 -11.25691  -1.60778  -1.59001
 Alpha  occ. eigenvalues --   -1.40331  -1.38556  -1.20047  -1.18398  -1.09477
 Alpha  occ. eigenvalues --   -1.07836  -1.05411  -1.03760  -0.96341  -0.94679
 Alpha  occ. eigenvalues --   -0.86818  -0.85188  -0.83173  -0.81495  -0.78250
 Alpha  occ. eigenvalues --   -0.76543  -0.72935  -0.72106  -0.71195  -0.71138
 Alpha  occ. eigenvalues --   -0.70322  -0.69534  -0.65693  -0.65401  -0.64050
 Alpha  occ. eigenvalues --   -0.63772  -0.62755  -0.61091  -0.55909  -0.54341
 Alpha  occ. eigenvalues --   -0.53760  -0.53492  -0.52131  -0.51851  -0.49712
 Alpha  occ. eigenvalues --   -0.49678  -0.47956  -0.47940  -0.45766  -0.43985
 Alpha  occ. eigenvalues --   -0.38017  -0.37008  -0.36422  -0.35355
 Alpha virt. eigenvalues --    0.04234   0.05962   0.10648   0.12278   0.15762
 Alpha virt. eigenvalues --    0.17461   0.20833   0.22328   0.26776   0.27565
 Alpha virt. eigenvalues --    0.28242   0.29219   0.30453   0.31704   0.32003

 Mulliken charges:
               1
     1  C   -0.171381
     2  C   -0.219114
     3  C   -0.172324
     4  C    0.157465
     5  C   -0.170417
     6  C   -0.216421
     7  H    0.220907
     8  H    0.219205
     9  H    0.272387
    10  H    0.285486
    11  H    0.226441
    12  N    0.487998
    13  O   -0.459030
    14  O   -0.464408
    15  C   -0.170010
    16  C   -0.218636
    17  C   -0.171301
    18  C    0.155828
    19  C   -0.171765
    20  C   -0.218518
    21  H    0.228044
    22  H    0.225479
    23  H    0.276451
    24  H    0.276523
    25  H    0.225990
    26  N    0.485990
    27  O   -0.464841
    28  O   -0.456028
 Sum of Mulliken charges =  -0.00000

 Dipole moment (field-independent basis, Debye):
    X=              8.0725    Y=              5.3144    Z=             -2.5037  Tot=              9.9839
 Quadrupole moment (field-independent basis, Debye-Ang):
   XX=            -93.9269   YY=           -103.1406   ZZ=           -103.7775
   XY=            -14.6247   XZ=             -5.6996   YZ=              3.3141

 Normal termination of Gaussian 16 at Fri May  7 09:42:08 2021.
