 Gaussian 16, Revision A.03,
 Gaussian 16:  EM64L-G16RevA.03 25-Dec-2016

 -------------
 #p 6-31g* mp2
 -------------

 ------------------------------------------------------
 Input file generated by CHIRIPA (05-May-2021 14:55:24)
 ------------------------------------------------------
 Symbolic Z-matrix:
 Charge =  0 Multiplicity = 1

                         Standard orientation:
 ---------------------------------------------------------------------
 Center     Atomic      Atomic             Coordinates (Angstroms)
 Number     Number       Type             X           Y           Z
 ---------------------------------------------------------------------
      1          6           0        1.895174    1.940229    1.314457
      2          6           0        1.267266    0.771729    1.758149
      3          6           0        1.563437   -0.461048    1.169004
      4          6           0        2.496671   -0.488887    0.133828
      5          6           0        3.139047    0.657887   -0.330447
      6          6           0        2.827416    1.879685    0.273410
      7          1           0        1.659096    2.893615    1.777834
      8          1           0        0.542865    0.815744    2.566451
      9          1           0        1.092135   -1.381041    1.492894
     10          1           0        3.856861    0.582355   -1.138195
     11          1           0        3.316609    2.785545   -0.073221
     12          7           0        2.818397   -1.788161   -0.497662
     13          8           0        3.644211   -1.785963   -1.407971
     14          8           0        2.238659   -2.784129   -0.070357
     15          6           0       -3.385708   -0.154385    0.206214
     16          6           0       -4.524595   -1.025441   -0.324994
     17          6           0       -5.029708   -2.032877    0.708315
     18          1           0       -2.556822   -0.800631    0.525993
     19          1           0       -3.729471    0.379734    1.102840
     20          1           0       -4.179221   -1.556698   -1.221151
     21          1           0       -5.350790   -0.377036   -0.643723
     22          1           0       -5.400346   -1.517084    1.600048
     23          1           0       -4.222121   -2.703449    1.019339
     24          1           0       -5.843643   -2.645086    0.307605
     25          6           0       -2.870028    0.857748   -0.815250
     26          6           0       -1.731140    1.728804   -0.284043
     27          6           0       -1.226027    2.736240   -1.317352
     28          1           0       -2.526263    0.323629   -1.711876
     29          1           0       -3.698913    1.503995   -1.135030
     30          1           0       -0.904944    1.080399    0.034687
     31          1           0       -2.076514    2.260061    0.612114
     32          1           0       -2.033614    3.406813   -1.628375
     33          1           0       -0.855389    2.220447   -2.209085
     34          1           0       -0.412091    3.348450   -0.916642
 ---------------------------------------------------------------------

 SCF Done:  E(RHF) =  -669.534804707     A.U. after   15 cycles
 E2 =    -0.2093431951D+01 EUMP2 =    -0.67162823665842D+03

 The electronic state is 1-A.
 Alpha  occ. eigenvalues --  -20.60848 -20.60843 -15.85901 -11.31295 -11.27834
 Alpha  occ. eigenvalues --  -11.27830 -11.27571 -11.26876 -11.26844 -11.21780
 Alpha  occ. eigenvalues --  -11.21732 -11.21634 -11.21551 -11.21391 -11.21173
 Alpha  occ. eigenvalues --   -1.59923  -1.39475  -1.19464  -1.08858  -1.08631
 Alpha  occ. eigenvalues --   -1.04870  -1.03726  -0.96189  -0.95677  -0.87206
 Alpha  occ. eigenvalues --   -0.86255  -0.82510  -0.79806  -0.78474  -0.77551
 Alpha  occ. eigenvalues --   -0.72117  -0.71247  -0.70550  -0.65275  -0.65106
 Alpha  occ. eigenvalues --   -0.64855  -0.62202  -0.61140  -0.59592  -0.57827
 Alpha  occ. eigenvalues --   -0.55482  -0.55349  -0.53253  -0.52947  -0.52824
 Alpha  occ. eigenvalues --   -0.52617  -0.50119  -0.48879  -0.48872  -0.48120
 Alpha  occ. eigenvalues --   -0.46818  -0.46009  -0.45923  -0.44874  -0.43995
 Alpha  occ. eigenvalues --   -0.37399  -0.36366
 Alpha virt. eigenvalues --    0.04938   0.11148   0.16385   0.20927   0.22824
 Alpha virt. eigenvalues --    0.24075   0.26122   0.26506   0.27366   0.28164
 Alpha virt. eigenvalues --    0.28713   0.30760   0.31278   0.31759   0.31848

 Mulliken charges:
               1
     1  C   -0.168065
     2  C   -0.219009
     3  C   -0.173185
     4  C    0.159836
     5  C   -0.171192
     6  C   -0.217703
     7  H    0.226461
     8  H    0.225775
     9  H    0.275930
    10  H    0.275992
    11  H    0.224177
    12  N    0.488001
    13  O   -0.459962
    14  O   -0.460356
    15  C   -0.297924
    16  C   -0.299875
    17  C   -0.476166
    18  H    0.147147
    19  H    0.146608
    20  H    0.154949
    21  H    0.152054
    22  H    0.153605
    23  H    0.156282
    24  H    0.161713
    25  C   -0.297757
    26  C   -0.308217
    27  C   -0.473647
    28  H    0.152576
    29  H    0.149343
    30  H    0.162925
    31  H    0.143955
    32  H    0.154987
    33  H    0.157959
    34  H    0.152784
 Sum of Mulliken charges =  -0.00000

 Dipole moment (field-independent basis, Debye):
    X=             -1.0524    Y=              4.5114    Z=              2.2086  Tot=              5.1321
 Quadrupole moment (field-independent basis, Debye-Ang):
   XX=            -98.5516   YY=            -99.0898   ZZ=            -92.9614
   XY=             13.2996   XZ=              3.4123   YZ=             -1.2403

 Normal termination of Gaussian 16 at Wed May  5 17:36:27 2021.
