 Gaussian 16, Revision A.03,
 Gaussian 16:  EM64L-G16RevA.03 25-Dec-2016

 -------------
 #p 6-31g* mp2
 -------------

 ------------------------------------------------------
 Input file generated by CHIRIPA (05-May-2021 14:57:23)
 ------------------------------------------------------
 Symbolic Z-matrix:
 Charge =  0 Multiplicity = 1

                         Standard orientation:
 ---------------------------------------------------------------------
 Center     Atomic      Atomic             Coordinates (Angstroms)
 Number     Number       Type             X           Y           Z
 ---------------------------------------------------------------------
      1          6           0       -6.009044    0.654494   -0.219681
      2          6           0       -5.679941   -0.593500   -0.758868
      3          6           0       -4.388390   -1.109725   -0.617605
      4          6           0       -3.446474   -0.347743    0.071938
      5          6           0       -3.743705    0.898876    0.620467
      6          6           0       -5.041582    1.395393    0.467055
      7          1           0       -7.014809    1.047855   -0.334136
      8          1           0       -6.429251   -1.171093   -1.292690
      9          1           0       -4.106553   -2.073045   -1.025035
     10          1           0       -2.975323    1.451449    1.147411
     11          1           0       -5.294332    2.364898    0.886843
     12          7           0       -2.075818   -0.883816    0.227918
     13          8           0       -1.264084   -0.192922    0.839792
     14          8           0       -1.839187   -1.984732   -0.264653
     15          6           0        5.151353   -1.779447    0.101021
     16          6           0        5.695614   -0.545081   -0.268631
     17          6           0        4.885593    0.591236   -0.353480
     18          6           0        3.529392    0.456500   -0.060466
     19          6           0        2.957501   -0.759442    0.310635
     20          6           0        3.786440   -1.882506    0.388968
     21          1           0        5.787945   -2.657017    0.164403
     22          1           0        6.755281   -0.462079   -0.492820
     23          1           0        5.280795    1.559094   -0.637176
     24          1           0        1.897570   -0.810942    0.528148
     25          1           0        3.361020   -2.839845    0.676304
     26          7           0        2.661846    1.652452   -0.146843
     27          8           0        1.470072    1.507375    0.116342
     28          8           0        3.190063    2.712272   -0.476094
 ---------------------------------------------------------------------

 SCF Done:  E(RHF) =  -868.338966063     A.U. after   16 cycles
 E2 =    -0.2599714811D+01 EUMP2 =    -0.87093868087429D+03

 The electronic state is 1-A.
 Alpha  occ. eigenvalues --  -20.60639 -20.60486 -20.59678 -20.59605 -15.85552
 Alpha  occ. eigenvalues --  -15.84688 -11.30872 -11.30072 -11.27476 -11.27382
 Alpha  occ. eigenvalues --  -11.27202 -11.26763 -11.26508 -11.26479 -11.26474
 Alpha  occ. eigenvalues --  -11.26421 -11.25792 -11.25639  -1.59614  -1.58738
 Alpha  occ. eigenvalues --   -1.39160  -1.38275  -1.19046  -1.18280  -1.08461
 Alpha  occ. eigenvalues --   -1.07696  -1.04439  -1.03672  -0.95301  -0.94506
 Alpha  occ. eigenvalues --   -0.85841  -0.85075  -0.82131  -0.81316  -0.77177
 Alpha  occ. eigenvalues --   -0.76336  -0.71801  -0.70983  -0.70793  -0.70159
 Alpha  occ. eigenvalues --   -0.70071  -0.69389  -0.64700  -0.64451  -0.63926
 Alpha  occ. eigenvalues --   -0.63683  -0.61780  -0.60979  -0.54965  -0.54226
 Alpha  occ. eigenvalues --   -0.52775  -0.52533  -0.52036  -0.51755  -0.48592
 Alpha  occ. eigenvalues --   -0.48555  -0.47713  -0.47613  -0.44550  -0.43679
 Alpha  occ. eigenvalues --   -0.37035  -0.36317  -0.36039  -0.35285
 Alpha virt. eigenvalues --    0.05352   0.06158   0.11616   0.12360   0.16839
 Alpha virt. eigenvalues --    0.17616   0.21727   0.22495   0.27655   0.28399
 Alpha virt. eigenvalues --    0.28635   0.29480   0.31277   0.31977   0.32911

 Mulliken charges:
               1
     1  C   -0.170647
     2  C   -0.218916
     3  C   -0.171126
     4  C    0.157812
     5  C   -0.169503
     6  C   -0.218968
     7  H    0.224770
     8  H    0.221977
     9  H    0.273655
    10  H    0.281828
    11  H    0.224163
    12  N    0.488947
    13  O   -0.451019
    14  O   -0.469103
    15  C   -0.171289
    16  C   -0.219891
    17  C   -0.172066
    18  C    0.154712
    19  C   -0.176776
    20  C   -0.220966
    21  H    0.221759
    22  H    0.219001
    23  H    0.271850
    24  H    0.298506
    25  H    0.224779
    26  N    0.486801
    27  O   -0.450910
    28  O   -0.469380
 Sum of Mulliken charges =  -0.00000

 Dipole moment (field-independent basis, Debye):
    X=             -2.1411    Y=             -2.2739    Z=             -0.1091  Tot=              3.1252
 Quadrupole moment (field-independent basis, Debye-Ang):
   XX=            -49.6749   YY=           -106.3110   ZZ=           -104.7971
   XY=            -15.5372   XZ=              2.1055   YZ=              2.3732

 Normal termination of Gaussian 16 at Wed May  5 19:24:21 2021.
