 Gaussian 16, Revision A.03,
 Gaussian 16:  EM64L-G16RevA.03 25-Dec-2016

 -------------
 #p 6-31g* mp2
 -------------

 ------------------------------------------------------
 Input file generated by CHIRIPA (05-May-2021 14:51:08)
 ------------------------------------------------------
 Symbolic Z-matrix:
 Charge =  0 Multiplicity = 1

                         Standard orientation:
 ---------------------------------------------------------------------
 Center     Atomic      Atomic             Coordinates (Angstroms)
 Number     Number       Type             X           Y           Z
 ---------------------------------------------------------------------
      1          6           0        3.781809   -0.011556   -0.274562
      2          6           0        5.114734   -0.031003    0.474381
      3          6           0        6.100723    1.015156   -0.046360
      4          1           0        3.966996   -0.180542   -1.344186
      5          1           0        3.335588    0.988911   -0.188839
      6          1           0        5.557646   -1.031532    0.388436
      7          1           0        4.926334    0.137858    1.542373
      8          1           0        5.682987    2.022096    0.054488
      9          1           0        6.317886    0.846061   -1.106005
     10          1           0        7.046777    0.983744    0.503053
     11          6           0        2.785605   -1.051786    0.234582
     12          6           0        1.452679   -1.032338   -0.514362
     13          6           0        0.466690   -2.078497    0.006379
     14          1           0        3.231825   -2.052252    0.148858
     15          1           0        2.600418   -0.882799    1.304205
     16          1           0        1.641079   -1.201199   -1.582354
     17          1           0        1.009768   -0.031809   -0.428417
     18          1           0        0.249528   -1.909402    1.066025
     19          1           0        0.884427   -3.085437   -0.094469
     20          1           0       -0.479364   -2.047085   -0.543034
     21          6           0       -3.329080   -0.159131   -0.302759
     22          6           0       -4.126629   -1.165217    0.527719
     23          6           0       -4.208495   -2.542560   -0.131082
     24          1           0       -3.790150   -0.065487   -1.295527
     25          1           0       -2.314987   -0.550004   -0.464710
     26          1           0       -5.138488   -0.771933    0.689227
     27          1           0       -3.663719   -1.256333    1.518692
     28          1           0       -3.206915   -2.959655   -0.277610
     29          1           0       -4.690064   -2.472502   -1.111788
     30          1           0       -4.782998   -3.246125    0.479494
     31          6           0       -3.238333    1.222473    0.342739
     32          6           0       -2.440784    2.228558   -0.487738
     33          6           0       -2.358918    3.605900    0.171063
     34          1           0       -4.252426    1.613346    0.504690
     35          1           0       -2.777263    1.128828    1.335509
     36          1           0       -2.903694    2.319675   -1.478711
     37          1           0       -1.428926    1.835274   -0.649246
     38          1           0       -1.877350    3.535843    1.151769
     39          1           0       -3.360498    4.022995    0.317591
     40          1           0       -1.784416    4.309465   -0.439513
 ---------------------------------------------------------------------

 SCF Done:  E(RHF) =  -470.733212892     A.U. after   11 cycles
 E2 =    -0.1583247548D+01 EUMP2 =    -0.47231646044006D+03

 The electronic state is 1-A.
 Alpha  occ. eigenvalues --  -11.21692 -11.21633 -11.21606 -11.21564 -11.21459
 Alpha  occ. eigenvalues --  -11.21396 -11.21375 -11.21300 -11.21157 -11.21094
 Alpha  occ. eigenvalues --  -11.21080 -11.21037  -1.08489  -1.08406  -1.03592
 Alpha  occ. eigenvalues --   -1.03511  -0.96044  -0.95958  -0.87065  -0.86972
 Alpha  occ. eigenvalues --   -0.79670  -0.79557  -0.78296  -0.78227  -0.65166
 Alpha  occ. eigenvalues --   -0.65013  -0.60982  -0.60929  -0.59454  -0.59287
 Alpha  occ. eigenvalues --   -0.57672  -0.57557  -0.55349  -0.55221  -0.52774
 Alpha  occ. eigenvalues --   -0.52651  -0.52495  -0.52358  -0.50008  -0.49873
 Alpha  occ. eigenvalues --   -0.48038  -0.47841  -0.46725  -0.46556  -0.45840
 Alpha  occ. eigenvalues --   -0.45796  -0.45743  -0.45632  -0.43796  -0.43759
 Alpha virt. eigenvalues --    0.20188   0.22989   0.23401   0.24363   0.25905
 Alpha virt. eigenvalues --    0.26707   0.26894   0.27446   0.27823   0.29301
 Alpha virt. eigenvalues --    0.29817   0.31322   0.31646   0.31879   0.32353

 Mulliken charges:
               1
     1  C   -0.298354
     2  C   -0.299703
     3  C   -0.475755
     4  H    0.149852
     5  H    0.149606
     6  H    0.152015
     7  H    0.151978
     8  H    0.155282
     9  H    0.155257
    10  H    0.160367
    11  C   -0.298336
    12  C   -0.302394
    13  C   -0.482125
    14  H    0.149956
    15  H    0.149688
    16  H    0.152694
    17  H    0.153407
    18  H    0.155040
    19  H    0.156105
    20  H    0.165790
    21  C   -0.306522
    22  C   -0.298870
    23  C   -0.478259
    24  H    0.149162
    25  H    0.158123
    26  H    0.151743
    27  H    0.151950
    28  H    0.157400
    29  H    0.154893
    30  H    0.160308
    31  C   -0.297451
    32  C   -0.301904
    33  C   -0.475640
    34  H    0.149499
    35  H    0.149272
    36  H    0.152164
    37  H    0.153316
    38  H    0.154880
    39  H    0.155362
    40  H    0.160206
 Sum of Mulliken charges =  -0.00000

 Dipole moment (field-independent basis, Debye):
    X=              0.0338    Y=             -0.0155    Z=             -0.0064  Tot=              0.0378
 Quadrupole moment (field-independent basis, Debye-Ang):
   XX=            -84.6332   YY=            -85.8374   ZZ=            -84.2875
   XY=             -1.2418   XZ=              0.3209   YZ=              0.1552

 Normal termination of Gaussian 16 at Thu May  6 00:30:15 2021.
