 Gaussian 16, Revision A.03,
 Gaussian 16:  EM64L-G16RevA.03 25-Dec-2016

 -------------
 #p 6-31g* mp2
 -------------

 ------------------------------------------------------
 Input file generated by CHIRIPA (05-May-2021 14:51:07)
 ------------------------------------------------------
 Symbolic Z-matrix:
 Charge =  0 Multiplicity = 1

                         Standard orientation:
 ---------------------------------------------------------------------
 Center     Atomic      Atomic             Coordinates (Angstroms)
 Number     Number       Type             X           Y           Z
 ---------------------------------------------------------------------
      1          6           0       -2.461869   -0.789027   -0.041296
      2          6           0       -1.961036   -1.765811    1.023149
      3          6           0       -0.553273   -2.286626    0.732032
      4          1           0       -2.448489   -1.285818   -1.021073
      5          1           0       -1.763928    0.056862   -0.110190
      6          1           0       -2.660449   -2.608922    1.090987
      7          1           0       -1.975792   -1.266698    2.000536
      8          1           0        0.161623   -1.458803    0.684774
      9          1           0       -0.526925   -2.808654   -0.229942
     10          1           0       -0.215027   -2.983256    1.505438
     11          6           0       -3.867817   -0.259627    0.235786
     12          6           0       -4.368649    0.717158   -0.828659
     13          6           0       -5.776412    1.237973   -0.537542
     14          1           0       -4.565758   -1.105515    0.304680
     15          1           0       -3.881197    0.237165    1.215563
     16          1           0       -4.353894    0.218044   -1.806046
     17          1           0       -3.669236    1.560268   -0.896497
     18          1           0       -5.802761    1.760000    0.424432
     19          1           0       -6.491309    0.410150   -0.490284
     20          1           0       -6.114659    1.934603   -1.310948
     21          6           0        2.700840    1.047909    0.209342
     22          6           0        3.176439    2.484036   -0.012759
     23          6           0        2.237756    3.520051    0.606385
     24          1           0        1.693933    0.932164   -0.214552
     25          1           0        2.608930    0.862237    1.288449
     26          1           0        3.268753    2.666509   -1.091090
     27          1           0        4.182409    2.596323    0.411542
     28          1           0        2.153423    3.366349    1.687064
     29          1           0        1.234576    3.436934    0.175892
     30          1           0        2.596743    4.539790    0.435739
     31          6           0        3.628845    0.000744   -0.403831
     32          6           0        3.153247   -1.435383   -0.181730
     33          6           0        4.091930   -2.471398   -0.800876
     34          1           0        3.720757    0.186417   -1.482939
     35          1           0        4.635753    0.116489    0.020062
     36          1           0        2.147276   -1.547669   -0.606032
     37          1           0        3.060933   -1.617856    0.896601
     38          1           0        5.095110   -2.388281   -0.370383
     39          1           0        4.176262   -2.317695   -1.881554
     40          1           0        3.732943   -3.491136   -0.630229
 ---------------------------------------------------------------------

 SCF Done:  E(RHF) =  -470.732799566     A.U. after   11 cycles
 E2 =    -0.1583207888D+01 EUMP2 =    -0.47231600745386D+03

 The electronic state is 1-A.
 Alpha  occ. eigenvalues --  -11.21631 -11.21604 -11.21559 -11.21488 -11.21427
 Alpha  occ. eigenvalues --  -11.21402 -11.21343 -11.21339 -11.21107 -11.21071
 Alpha  occ. eigenvalues --  -11.21010 -11.20968  -1.08442  -1.08406  -1.03542
 Alpha  occ. eigenvalues --   -1.03480  -0.95979  -0.95952  -0.87029  -0.86941
 Alpha  occ. eigenvalues --   -0.79708  -0.79470  -0.78321  -0.78150  -0.65091
 Alpha  occ. eigenvalues --   -0.65020  -0.60939  -0.60887  -0.59350  -0.59326
 Alpha  occ. eigenvalues --   -0.57613  -0.57540  -0.55262  -0.55252  -0.52707
 Alpha  occ. eigenvalues --   -0.52636  -0.52462  -0.52319  -0.49943  -0.49895
 Alpha  occ. eigenvalues --   -0.48123  -0.47717  -0.46671  -0.46584  -0.45970
 Alpha  occ. eigenvalues --   -0.45738  -0.45706  -0.45335  -0.43783  -0.43752
 Alpha virt. eigenvalues --    0.21486   0.23160   0.23893   0.24176   0.25589
 Alpha virt. eigenvalues --    0.26590   0.26848   0.27658   0.27828   0.29435
 Alpha virt. eigenvalues --    0.31051   0.31392   0.31638   0.31890   0.32068

 Mulliken charges:
               1
     1  C   -0.298569
     2  C   -0.299805
     3  C   -0.480640
     4  H    0.149285
     5  H    0.149042
     6  H    0.151465
     7  H    0.151823
     8  H    0.163356
     9  H    0.153746
    10  H    0.159738
    11  C   -0.298214
    12  C   -0.299617
    13  C   -0.475704
    14  H    0.149620
    15  H    0.149818
    16  H    0.151815
    17  H    0.151736
    18  H    0.155272
    19  H    0.155196
    20  H    0.160220
    21  C   -0.300461
    22  C   -0.299556
    23  C   -0.475700
    24  H    0.150012
    25  H    0.149527
    26  H    0.152187
    27  H    0.152305
    28  H    0.155137
    29  H    0.154741
    30  H    0.160488
    31  C   -0.297969
    32  C   -0.304438
    33  C   -0.475467
    34  H    0.149263
    35  H    0.149404
    36  H    0.159223
    37  H    0.151993
    38  H    0.154598
    39  H    0.154662
    40  H    0.160469
 Sum of Mulliken charges =  -0.00000

 Dipole moment (field-independent basis, Debye):
    X=              0.0163    Y=             -0.0012    Z=              0.0027  Tot=              0.0165
 Quadrupole moment (field-independent basis, Debye-Ang):
   XX=            -85.8066   YY=            -85.1722   ZZ=            -83.8984
   XY=              1.2577   XZ=              0.9998   YZ=              0.0144

 Normal termination of Gaussian 16 at Thu May  6 09:59:02 2021.
