 Gaussian 16, Revision A.03,
 Gaussian 16:  EM64L-G16RevA.03 25-Dec-2016

 -------------
 #p 6-31g* mp2
 -------------

 ------------------------------------------------------
 Input file generated by CHIRIPA (05-May-2021 14:55:23)
 ------------------------------------------------------
 Symbolic Z-matrix:
 Charge =  0 Multiplicity = 1

                         Standard orientation:
 ---------------------------------------------------------------------
 Center     Atomic      Atomic             Coordinates (Angstroms)
 Number     Number       Type             X           Y           Z
 ---------------------------------------------------------------------
      1          6           0        0.570137    2.224413    0.045086
      2          6           0        1.050400    1.682309    1.241745
      3          6           0        2.104560    0.764043    1.232605
      4          6           0        2.657527    0.408554    0.003319
      5          6           0        2.201124    0.931134   -1.205770
      6          6           0        1.146016    1.847760   -1.172705
      7          1           0       -0.249128    2.937107    0.061480
      8          1           0        0.605087    1.972993    2.188975
      9          1           0        2.495859    0.328895    2.144168
     10          1           0        2.665300    0.622089   -2.134452
     11          1           0        0.775081    2.267143   -2.103602
     12          7           0        3.774021   -0.562705   -0.019022
     13          8           0        4.244075   -0.859617   -1.115165
     14          8           0        4.157933   -1.008673    1.060033
     15          6           0       -2.513682   -0.909300    0.344391
     16          6           0       -1.573459   -1.754987   -0.515132
     17          6           0       -0.272530   -2.109940    0.205552
     18          1           0       -1.996208    0.012011    0.644977
     19          1           0       -2.743341   -1.455028    1.270043
     20          1           0       -1.346745   -1.208415   -1.439511
     21          1           0       -2.093298   -2.674303   -0.813865
     22          1           0       -0.480354   -2.676898    1.118770
     23          1           0        0.270441   -1.202681    0.489570
     24          1           0        0.384748   -2.714666   -0.427025
     25          6           0       -3.818518   -0.546390   -0.362313
     26          6           0       -4.758740    0.299297    0.497211
     27          6           0       -6.059670    0.654250   -0.223473
     28          1           0       -3.588859   -0.000661   -1.287964
     29          1           0       -4.335992   -1.467701   -0.662898
     30          1           0       -4.238902    1.218613    0.795943
     31          1           0       -4.985454   -0.247274    1.421590
     32          1           0       -6.602641   -0.253008   -0.507491
     33          1           0       -5.851846    1.221208   -1.136692
     34          1           0       -6.716948    1.258976    0.409103
 ---------------------------------------------------------------------

 SCF Done:  E(RHF) =  -669.534708728     A.U. after   15 cycles
 E2 =    -0.2094269654D+01 EUMP2 =    -0.67162897838273D+03

 The electronic state is 1-A.
 Alpha  occ. eigenvalues --  -20.60821 -20.60814 -15.85874 -11.31282 -11.27888
 Alpha  occ. eigenvalues --  -11.27847 -11.27670 -11.26935 -11.26920 -11.22046
 Alpha  occ. eigenvalues --  -11.21742 -11.21697 -11.21615 -11.21476 -11.20878
 Alpha  occ. eigenvalues --   -1.59893  -1.39445  -1.19512  -1.08881  -1.08711
 Alpha  occ. eigenvalues --   -1.04915  -1.03752  -0.96198  -0.95698  -0.87213
 Alpha  occ. eigenvalues --   -0.86296  -0.82527  -0.79841  -0.78531  -0.77561
 Alpha  occ. eigenvalues --   -0.72095  -0.71220  -0.70598  -0.65366  -0.65147
 Alpha  occ. eigenvalues --   -0.64898  -0.62244  -0.61199  -0.59574  -0.57821
 Alpha  occ. eigenvalues --   -0.55634  -0.55403  -0.53349  -0.52989  -0.52862
 Alpha  occ. eigenvalues --   -0.52485  -0.50082  -0.48858  -0.48845  -0.48116
 Alpha  occ. eigenvalues --   -0.46865  -0.46044  -0.45979  -0.44836  -0.44019
 Alpha  occ. eigenvalues --   -0.37448  -0.36470
 Alpha virt. eigenvalues --    0.04951   0.11061   0.16414   0.21054   0.22635
 Alpha virt. eigenvalues --    0.24080   0.26168   0.26817   0.27410   0.27745
 Alpha virt. eigenvalues --    0.28604   0.30841   0.31212   0.31625   0.31947

 Mulliken charges:
               1
     1  C   -0.171039
     2  C   -0.215195
     3  C   -0.179321
     4  C    0.164774
     5  C   -0.171158
     6  C   -0.217679
     7  H    0.226575
     8  H    0.225047
     9  H    0.276665
    10  H    0.276346
    11  H    0.224292
    12  N    0.488480
    13  O   -0.460515
    14  O   -0.459831
    15  C   -0.299369
    16  C   -0.297154
    17  C   -0.485272
    18  H    0.145010
    19  H    0.149794
    20  H    0.148759
    21  H    0.152269
    22  H    0.154168
    23  H    0.163911
    24  H    0.163101
    25  C   -0.297941
    26  C   -0.298554
    27  C   -0.475577
    28  H    0.146634
    29  H    0.151803
    30  H    0.146086
    31  H    0.153356
    32  H    0.157134
    33  H    0.153958
    34  H    0.160440
 Sum of Mulliken charges =  -0.00000

 Dipole moment (field-independent basis, Debye):
    X=             -3.8114    Y=              3.4406    Z=              0.0808  Tot=              5.1353
 Quadrupole moment (field-independent basis, Debye-Ang):
   XX=           -117.2200   YY=            -92.0012   ZZ=            -89.7723
   XY=              8.3383   XZ=             -0.5491   YZ=             -0.5398

 Normal termination of Gaussian 16 at Thu May  6 19:17:33 2021.
