 Gaussian 16, Revision A.03,
 Gaussian 16:  EM64L-G16RevA.03 25-Dec-2016

 -------------
 #p 6-31g* mp2
 -------------

 ------------------------------------------------------
 Input file generated by CHIRIPA (05-May-2021 14:51:08)
 ------------------------------------------------------
 Symbolic Z-matrix:
 Charge =  0 Multiplicity = 1

                         Standard orientation:
 ---------------------------------------------------------------------
 Center     Atomic      Atomic             Coordinates (Angstroms)
 Number     Number       Type             X           Y           Z
 ---------------------------------------------------------------------
      1          6           0       -3.120710    0.861878   -0.330376
      2          6           0       -3.263927    2.209067    0.378536
      3          6           0       -2.218912    3.229294   -0.074096
      4          1           0       -2.113537    0.463348   -0.146745
      5          1           0       -3.202980    1.015729   -1.415252
      6          1           0       -3.182794    2.052531    1.461832
      7          1           0       -4.270941    2.604345    0.193354
      8          1           0       -2.302256    3.414733   -1.149860
      9          1           0       -1.207926    2.859783    0.125825
     10          1           0       -2.339672    4.185078    0.445282
     11          6           0       -4.158354   -0.168544    0.111498
     12          6           0       -4.015138   -1.515733   -0.597414
     13          6           0       -5.060152   -2.535960   -0.144781
     14          1           0       -4.076085   -0.322395    1.196375
     15          1           0       -5.165528    0.229985   -0.072133
     16          1           0       -3.008123   -1.911012   -0.412232
     17          1           0       -4.096271   -1.359197   -1.680709
     18          1           0       -6.071139   -2.166449   -0.344703
     19          1           0       -4.976809   -2.721399    0.930982
     20          1           0       -4.939393   -3.491744   -0.664160
     21          6           0        4.371163   -0.541852    0.209695
     22          6           0        5.349362    0.373003   -0.527970
     23          6           0        6.809139   -0.030265   -0.317684
     24          1           0        4.605556   -0.529337    1.282938
     25          1           0        4.519496   -1.576064   -0.130596
     26          1           0        5.198281    1.405378   -0.187397
     27          1           0        5.112492    0.358457   -1.599557
     28          1           0        6.982185   -1.050651   -0.674712
     29          1           0        7.068462    0.002219    0.745472
     30          1           0        7.491199    0.636992   -0.853800
     31          6           0        2.907902   -0.151482    0.009182
     32          6           0        1.929702   -1.066337    0.746848
     33          6           0        0.469926   -0.663068    0.536561
     34          1           0        2.759568    0.882730    0.349474
     35          1           0        2.673509   -0.163997   -1.064060
     36          1           0        2.166573   -1.051790    1.818434
     37          1           0        2.080783   -2.098712    0.406275
     38          1           0        0.210603   -0.695553   -0.526593
     39          1           0        0.296880    0.357317    0.893590
     40          1           0       -0.212135   -1.330326    1.072677
 ---------------------------------------------------------------------

 SCF Done:  E(RHF) =  -470.733134089     A.U. after   11 cycles
 E2 =    -0.1583163014D+01 EUMP2 =    -0.47231629710302D+03

 The electronic state is 1-A.
 Alpha  occ. eigenvalues --  -11.21679 -11.21627 -11.21527 -11.21509 -11.21453
 Alpha  occ. eigenvalues --  -11.21391 -11.21284 -11.21210 -11.21167 -11.21091
 Alpha  occ. eigenvalues --  -11.21022 -11.21018  -1.08485  -1.08324  -1.03597
 Alpha  occ. eigenvalues --   -1.03451  -0.96061  -0.95892  -0.87089  -0.86908
 Alpha  occ. eigenvalues --   -0.79695  -0.79501  -0.78315  -0.78098  -0.65112
 Alpha  occ. eigenvalues --   -0.64963  -0.61011  -0.60839  -0.59421  -0.59265
 Alpha  occ. eigenvalues --   -0.57662  -0.57506  -0.55343  -0.55189  -0.52784
 Alpha  occ. eigenvalues --   -0.52600  -0.52518  -0.52287  -0.49994  -0.49841
 Alpha  occ. eigenvalues --   -0.48073  -0.47784  -0.46705  -0.46516  -0.45966
 Alpha  occ. eigenvalues --   -0.45756  -0.45650  -0.45411  -0.43816  -0.43687
 Alpha virt. eigenvalues --    0.21102   0.22943   0.23665   0.24435   0.25603
 Alpha virt. eigenvalues --    0.26397   0.27205   0.27332   0.27902   0.29561
 Alpha virt. eigenvalues --    0.29989   0.31234   0.31775   0.31904   0.32311

 Mulliken charges:
               1
     1  C   -0.311075
     2  C   -0.298769
     3  C   -0.477019
     4  H    0.167253
     5  H    0.148046
     6  H    0.151210
     7  H    0.151418
     8  H    0.155150
     9  H    0.155644
    10  H    0.159788
    11  C   -0.297184
    12  C   -0.301147
    13  C   -0.475566
    14  H    0.148784
    15  H    0.149009
    16  H    0.153141
    17  H    0.151536
    18  H    0.155098
    19  H    0.154889
    20  H    0.159873
    21  C   -0.298367
    22  C   -0.299693
    23  C   -0.475746
    24  H    0.149724
    25  H    0.149646
    26  H    0.152074
    27  H    0.152082
    28  H    0.155216
    29  H    0.155207
    30  H    0.160396
    31  C   -0.298507
    32  C   -0.300709
    33  C   -0.480131
    34  H    0.149560
    35  H    0.150056
    36  H    0.152177
    37  H    0.152404
    38  H    0.157223
    39  H    0.156332
    40  H    0.160977
 Sum of Mulliken charges =  -0.00000

 Dipole moment (field-independent basis, Debye):
    X=              0.0762    Y=             -0.0207    Z=             -0.0021  Tot=              0.0790
 Quadrupole moment (field-independent basis, Debye-Ang):
   XX=            -86.3151   YY=            -85.1757   ZZ=            -83.6219
   XY=             -0.5484   XZ=              0.5919   YZ=              0.4641

 Normal termination of Gaussian 16 at Thu May  6 14:50:56 2021.
