 Gaussian 16, Revision A.03,
 Gaussian 16:  EM64L-G16RevA.03 25-Dec-2016

 -------------
 #p 6-31g* mp2
 -------------

 ------------------------------------------------------
 Input file generated by CHIRIPA (05-May-2021 14:53:12)
 ------------------------------------------------------
 Symbolic Z-matrix:
 Charge =  0 Multiplicity = 1

                         Standard orientation:
 ---------------------------------------------------------------------
 Center     Atomic      Atomic             Coordinates (Angstroms)
 Number     Number       Type             X           Y           Z
 ---------------------------------------------------------------------
      1          6           0        5.245026    0.096999    0.218918
      2          6           0        5.784043    0.603184   -1.119447
      3          6           0        7.309527    0.704020   -1.142307
      4          1           0        5.581551    0.768967    1.020264
      5          1           0        5.681796   -0.888255    0.433164
      6          1           0        5.345319    1.586575   -1.331765
      7          1           0        5.446036   -0.069960   -1.917723
      8          1           0        7.763142   -0.274734   -0.955558
      9          1           0        7.661853    1.391213   -0.366271
     10          1           0        7.673390    1.067832   -2.108281
     11          6           0        3.721551   -0.009208    0.257307
     12          6           0        3.182535   -0.515393    1.595672
     13          6           0        1.657050   -0.616229    1.618533
     14          1           0        3.284781    0.976047    0.043062
     15          1           0        3.385026   -0.681176   -0.544039
     16          1           0        3.520541    0.157751    2.393948
     17          1           0        3.621258   -1.498784    1.807990
     18          1           0        1.304725   -1.303422    0.842496
     19          1           0        1.203435    0.362525    1.431783
     20          1           0        1.293188   -0.980040    2.584506
     21          6           0       -4.845192    2.084946    0.082511
     22          6           0       -5.476189    0.902512   -0.317758
     23          6           0       -4.742206   -0.277617   -0.469777
     24          6           0       -3.372769   -0.239173   -0.211986
     25          6           0       -2.715332    0.923112    0.188211
     26          6           0       -3.469203    2.091461    0.333774
     27          1           0       -5.423093    2.997122    0.198096
     28          1           0       -6.544662    0.894497   -0.513581
     29          1           0       -5.205326   -1.206961   -0.778417
     30          1           0       -1.648768    0.899961    0.376156
     31          1           0       -2.976503    3.008293    0.644758
     32          7           0       -2.585207   -1.482288   -0.369506
     33          8           0       -1.379962   -1.422128   -0.136261
     34          8           0       -3.188072   -2.493261   -0.723231
 ---------------------------------------------------------------------

 SCF Done:  E(RHF) =  -669.535785928     A.U. after   15 cycles
 E2 =    -0.2090977474D+01 EUMP2 =    -0.67162676340185D+03

 The electronic state is 1-A.
 Alpha  occ. eigenvalues --  -20.60813 -20.60807 -15.85859 -11.31203 -11.27776
 Alpha  occ. eigenvalues --  -11.27761 -11.27521 -11.26789 -11.26778 -11.21273
 Alpha  occ. eigenvalues --  -11.20982 -11.20958 -11.20841 -11.20804 -11.20139
 Alpha  occ. eigenvalues --   -1.59883  -1.39437  -1.19377  -1.08779  -1.07951
 Alpha  occ. eigenvalues --   -1.04778  -1.03008  -0.95627  -0.95430  -0.86452
 Alpha  occ. eigenvalues --   -0.86177  -0.82450  -0.79083  -0.77769  -0.77476
 Alpha  occ. eigenvalues --   -0.72087  -0.71201  -0.70487  -0.65035  -0.64784
 Alpha  occ. eigenvalues --   -0.64584  -0.62125  -0.60404  -0.58840  -0.57051
 Alpha  occ. eigenvalues --   -0.55285  -0.54721  -0.53109  -0.52872  -0.52133
 Alpha  occ. eigenvalues --   -0.51848  -0.49389  -0.48837  -0.48823  -0.47369
 Alpha  occ. eigenvalues --   -0.46118  -0.45293  -0.45215  -0.44840  -0.43272
 Alpha  occ. eigenvalues --   -0.37361  -0.36381
 Alpha virt. eigenvalues --    0.05034   0.11273   0.16527   0.20999   0.23295
 Alpha virt. eigenvalues --    0.24390   0.25976   0.27266   0.27634   0.28037
 Alpha virt. eigenvalues --    0.29284   0.30549   0.31539   0.32177   0.32540

 Mulliken charges:
               1
     1  C   -0.297827
     2  C   -0.299274
     3  C   -0.475424
     4  H    0.147670
     5  H    0.149818
     6  H    0.150089
     7  H    0.152960
     8  H    0.155369
     9  H    0.154094
    10  H    0.159189
    11  C   -0.297656
    12  C   -0.300596
    13  C   -0.477075
    14  H    0.145116
    15  H    0.153838
    16  H    0.146765
    17  H    0.152050
    18  H    0.180869
    19  H    0.141375
    20  H    0.157188
    21  C   -0.170540
    22  C   -0.218781
    23  C   -0.170550
    24  C    0.157110
    25  C   -0.172415
    26  C   -0.219301
    27  H    0.225626
    28  H    0.223453
    29  H    0.275584
    30  H    0.279443
    31  H    0.223598
    32  N    0.493732
    33  O   -0.465259
    34  O   -0.460238
 Sum of Mulliken charges =  -0.00000

 Dipole moment (field-independent basis, Debye):
    X=             -2.9292    Y=              4.2408    Z=              0.4908  Tot=              5.1774
 Quadrupole moment (field-independent basis, Debye-Ang):
   XX=            -74.6555   YY=            -95.1289   ZZ=            -95.6788
   XY=            -12.5496   XZ=             -0.0120   YZ=              0.0250

 Normal termination of Gaussian 16 at Wed May  5 15:29:46 2021.
