 Gaussian 16, Revision A.03,
 Gaussian 16:  EM64L-G16RevA.03 25-Dec-2016

 -------------
 #p 6-31g* mp2
 -------------

 ------------------------------------------------------
 Input file generated by CHIRIPA (05-May-2021 14:57:21)
 ------------------------------------------------------
 Symbolic Z-matrix:
 Charge =  0 Multiplicity = 1

                         Standard orientation:
 ---------------------------------------------------------------------
 Center     Atomic      Atomic             Coordinates (Angstroms)
 Number     Number       Type             X           Y           Z
 ---------------------------------------------------------------------
      1          6           0       -2.345998    2.350926   -1.067113
      2          6           0       -1.721665    1.853931    0.081680
      3          6           0       -2.066837    0.598376    0.590588
      4          6           0       -3.044894   -0.136733   -0.077475
      5          6           0       -3.684995    0.331080   -1.224084
      6          6           0       -3.323946    1.589257   -1.715186
      7          1           0       -2.071693    3.327290   -1.455528
      8          1           0       -0.961835    2.443255    0.587052
      9          1           0       -1.599439    0.189482    1.478147
     10          1           0       -4.438823   -0.279543   -1.706060
     11          1           0       -3.810481    1.972701   -2.607542
     12          7           0       -3.418717   -1.467321    0.451857
     13          8           0       -4.283433   -2.095404   -0.155115
     14          8           0       -2.839925   -1.856958    1.463697
     15          6           0        1.778132    1.251108    1.935268
     16          6           0        1.465779   -0.098526    1.741757
     17          6           0        2.127128   -0.847201    0.763671
     18          6           0        3.099794   -0.211498   -0.006454
     19          6           0        3.433361    1.131457    0.162351
     20          6           0        2.759196    1.860717    1.146338
     21          1           0        1.259402    1.825154    2.697361
     22          1           0        0.704315   -0.574578    2.352980
     23          1           0        1.905048   -1.893558    0.592692
     24          1           0        4.197097    1.578395   -0.462445
     25          1           0        3.003842    2.908701    1.294401
     26          7           0        3.806718   -0.993809   -1.045034
     27          8           0        4.659693   -0.410441   -1.710430
     28          8           0        3.494444   -2.175540   -1.174011
 ---------------------------------------------------------------------

 SCF Done:  E(RHF) =  -868.337207190     A.U. after   16 cycles
 E2 =    -0.2601411015D+01 EUMP2 =    -0.87093861820545D+03

 The electronic state is 1-A.
 Alpha  occ. eigenvalues --  -20.61242 -20.61202 -20.61069 -20.61052 -15.86275
 Alpha  occ. eigenvalues --  -15.86120 -11.31646 -11.31595 -11.28247 -11.28219
 Alpha  occ. eigenvalues --  -11.28168 -11.28111 -11.28089 -11.27868 -11.27349
 Alpha  occ. eigenvalues --  -11.27271 -11.27181 -11.27119  -1.60293  -1.60135
 Alpha  occ. eigenvalues --   -1.39854  -1.39683  -1.19852  -1.19753  -1.09246
 Alpha  occ. eigenvalues --   -1.09155  -1.05276  -1.05142  -0.96041  -0.96002
 Alpha  occ. eigenvalues --   -0.86697  -0.86541  -0.82858  -0.82832  -0.77955
 Alpha  occ. eigenvalues --   -0.77806  -0.72498  -0.72336  -0.71611  -0.71459
 Alpha  occ. eigenvalues --   -0.71000  -0.70878  -0.65510  -0.65420  -0.65361
 Alpha  occ. eigenvalues --   -0.65091  -0.62713  -0.62391  -0.55828  -0.55666
 Alpha  occ. eigenvalues --   -0.53701  -0.53455  -0.53343  -0.53150  -0.49265
 Alpha  occ. eigenvalues --   -0.49236  -0.49110  -0.49078  -0.45269  -0.45051
 Alpha  occ. eigenvalues --   -0.37942  -0.37725  -0.37024  -0.36499
 Alpha virt. eigenvalues --    0.04586   0.04673   0.10543   0.11021   0.15997
 Alpha virt. eigenvalues --    0.16151   0.19311   0.22010   0.25237   0.26350
 Alpha virt. eigenvalues --    0.28070   0.29299   0.29725   0.31338   0.31668

 Mulliken charges:
               1
     1  C   -0.170611
     2  C   -0.215881
     3  C   -0.168880
     4  C    0.158605
     5  C   -0.169888
     6  C   -0.217873
     7  H    0.226282
     8  H    0.218988
     9  H    0.265900
    10  H    0.277213
    11  H    0.225400
    12  N    0.488647
    13  O   -0.456504
    14  O   -0.466370
    15  C   -0.178976
    16  C   -0.224869
    17  C   -0.169204
    18  C    0.159555
    19  C   -0.170379
    20  C   -0.220152
    21  H    0.223476
    22  H    0.232139
    23  H    0.282591
    24  H    0.276720
    25  H    0.223079
    26  N    0.487753
    27  O   -0.460249
    28  O   -0.456511
 Sum of Mulliken charges =  -0.00000

 Dipole moment (field-independent basis, Debye):
    X=             -1.1068    Y=              7.2926    Z=              1.5960  Tot=              7.5468
 Quadrupole moment (field-independent basis, Debye-Ang):
   XX=           -124.9785   YY=           -104.7456   ZZ=           -102.6033
   XY=             -2.7923   XZ=             19.4423   YZ=             -1.8169

 Normal termination of Gaussian 16 at Wed May  5 19:18:56 2021.
