 Gaussian 16, Revision A.03,
 Gaussian 16:  EM64L-G16RevA.03 25-Dec-2016

 -------------
 #p 6-31g* mp2
 -------------

 ------------------------------------------------------
 Input file generated by CHIRIPA (05-May-2021 14:51:13)
 ------------------------------------------------------
 Symbolic Z-matrix:
 Charge =  0 Multiplicity = 1

                         Standard orientation:
 ---------------------------------------------------------------------
 Center     Atomic      Atomic             Coordinates (Angstroms)
 Number     Number       Type             X           Y           Z
 ---------------------------------------------------------------------
      1          6           0        3.715163    0.664190   -0.358189
      2          6           0        3.665729    1.898488    0.542950
      3          6           0        3.912736    3.199142   -0.221955
      4          1           0        4.694366    0.619204   -0.854257
      5          1           0        2.965780    0.770145   -1.154802
      6          1           0        4.414034    1.789605    1.338436
      7          1           0        2.686599    1.940437    1.037077
      8          1           0        3.159454    3.334699   -1.004764
      9          1           0        4.896704    3.183011   -0.701693
     10          1           0        3.872941    4.068758    0.441404
     11          6           0        3.470080   -0.643811    0.392007
     12          6           0        3.519515   -1.878108   -0.509132
     13          6           0        3.272507   -3.178763    0.255773
     14          1           0        4.219464   -0.749766    1.188620
     15          1           0        2.490877   -0.598824    0.888075
     16          1           0        4.498644   -1.920057   -1.003259
     17          1           0        2.771209   -1.769226   -1.304618
     18          1           0        2.288539   -3.162632    0.735511
     19          1           0        4.025790   -3.314320    1.038582
     20          1           0        3.312302   -4.048379   -0.407586
     21          6           0       -4.295356   -0.304046   -0.073876
     22          6           0       -5.403278    0.732285    0.117204
     23          6           0       -6.803421    0.129165    0.000399
     24          1           0       -4.411078   -0.777906   -1.058258
     25          1           0       -4.415710   -1.101141    0.672816
     26          1           0       -5.280053    1.527896   -0.628741
     27          1           0       -5.284791    1.203869    1.101168
     28          1           0       -6.950982   -0.650896    0.754277
     29          1           0       -6.946217   -0.325027   -0.985460
     30          1           0       -7.580137    0.887452    0.140306
     31          6           0       -2.889887    0.283667    0.040058
     32          6           0       -1.781965   -0.752664   -0.151022
     33          6           0       -0.381823   -0.149545   -0.034218
     34          1           0       -2.769533    1.080762   -0.706634
     35          1           0       -2.774165    0.757527    1.024440
     36          1           0       -1.900452   -1.224248   -1.134986
     37          1           0       -1.905190   -1.548276    0.594923
     38          1           0       -0.239026    0.304647    0.951642
     39          1           0       -0.234262    0.630516   -0.788095
     40          1           0        0.394893   -0.907831   -0.174124
 ---------------------------------------------------------------------

 SCF Done:  E(RHF) =  -470.732825555     A.U. after   11 cycles
 E2 =    -0.1583534396D+01 EUMP2 =    -0.47231635995122D+03

 The electronic state is 1-A.
 Alpha  occ. eigenvalues --  -11.21684 -11.21635 -11.21559 -11.21517 -11.21459
 Alpha  occ. eigenvalues --  -11.21397 -11.21288 -11.21212 -11.21182 -11.21097
 Alpha  occ. eigenvalues --  -11.21062 -11.21012  -1.08493  -1.08346  -1.03601
 Alpha  occ. eigenvalues --   -1.03472  -0.96066  -0.95906  -0.87090  -0.86925
 Alpha  occ. eigenvalues --   -0.79674  -0.79528  -0.78302  -0.78153  -0.65119
 Alpha  occ. eigenvalues --   -0.65031  -0.61001  -0.60937  -0.59381  -0.59275
 Alpha  occ. eigenvalues --   -0.57645  -0.57528  -0.55343  -0.55220  -0.52753
 Alpha  occ. eigenvalues --   -0.52625  -0.52471  -0.52330  -0.50021  -0.49832
 Alpha  occ. eigenvalues --   -0.48004  -0.47817  -0.46713  -0.46568  -0.45866
 Alpha  occ. eigenvalues --   -0.45780  -0.45688  -0.45567  -0.43785  -0.43705
 Alpha virt. eigenvalues --    0.20550   0.22974   0.23467   0.24790   0.25944
 Alpha virt. eigenvalues --    0.26360   0.27258   0.27558   0.27897   0.29649
 Alpha virt. eigenvalues --    0.29966   0.30922   0.31727   0.31906   0.32182

 Mulliken charges:
               1
     1  C   -0.298159
     2  C   -0.300481
     3  C   -0.475559
     4  H    0.148935
     5  H    0.150669
     6  H    0.151438
     7  H    0.153158
     8  H    0.154915
     9  H    0.154923
    10  H    0.159905
    11  C   -0.303647
    12  C   -0.301711
    13  C   -0.476450
    14  H    0.149017
    15  H    0.156289
    16  H    0.152363
    17  H    0.151939
    18  H    0.154900
    19  H    0.155519
    20  H    0.160199
    21  C   -0.298317
    22  C   -0.299673
    23  C   -0.475739
    24  H    0.149763
    25  H    0.149664
    26  H    0.151985
    27  H    0.152014
    28  H    0.155254
    29  H    0.155236
    30  H    0.160380
    31  C   -0.298756
    32  C   -0.299936
    33  C   -0.482232
    34  H    0.149597
    35  H    0.149785
    36  H    0.152266
    37  H    0.152213
    38  H    0.155368
    39  H    0.155537
    40  H    0.167428
 Sum of Mulliken charges =  -0.00000

 Dipole moment (field-independent basis, Debye):
    X=             -0.0522    Y=             -0.0017    Z=              0.0041  Tot=              0.0524
 Quadrupole moment (field-independent basis, Debye-Ang):
   XX=            -85.1048   YY=            -85.9614   ZZ=            -83.9074
   XY=             -0.5700   XZ=              0.1853   YZ=              0.1920

 Normal termination of Gaussian 16 at Thu May  6 02:23:09 2021.
