 Gaussian 16, Revision A.03,
 Gaussian 16:  EM64L-G16RevA.03 25-Dec-2016

 -------------
 #p 6-31g* mp2
 -------------

 ------------------------------------------------------
 Input file generated by CHIRIPA (05-May-2021 14:51:09)
 ------------------------------------------------------
 Symbolic Z-matrix:
 Charge =  0 Multiplicity = 1

                         Standard orientation:
 ---------------------------------------------------------------------
 Center     Atomic      Atomic             Coordinates (Angstroms)
 Number     Number       Type             X           Y           Z
 ---------------------------------------------------------------------
      1          6           0       -4.567059   -0.024198   -0.336419
      2          6           0       -5.938398   -0.606154    0.008167
      3          6           0       -7.018012   -0.212543   -1.000444
      4          1           0       -4.642485    1.070680   -0.386404
      5          1           0       -4.274087   -0.363450   -1.339650
      6          1           0       -6.228078   -0.267027    1.011010
      7          1           0       -5.859656   -1.699763    0.057526
      8          1           0       -6.755246   -0.564810   -2.003172
      9          1           0       -7.125762    0.876067   -1.044270
     10          1           0       -7.990248   -0.639274   -0.734892
     11          6           0       -3.477290   -0.408858    0.662665
     12          6           0       -2.105951    0.173098    0.318078
     13          6           0       -1.026337   -0.220513    1.326690
     14          1           0       -3.770262   -0.069606    1.665895
     15          1           0       -3.401864   -1.503736    0.712650
     16          1           0       -2.184693    1.266707    0.268720
     17          1           0       -1.816271   -0.166029   -0.684765
     18          1           0       -0.918587   -1.309123    1.370515
     19          1           0       -1.289103    0.131754    2.329418
     20          1           0       -0.054101    0.206218    1.061137
     21          6           0        4.122980   -0.484152    0.123787
     22          6           0        5.110011   -1.331996   -0.679277
     23          6           0        5.301120   -2.731067   -0.092868
     24          1           0        4.477549   -0.403470    1.160473
     25          1           0        3.154304   -1.001296    0.164104
     26          1           0        6.076142   -0.812756   -0.719238
     27          1           0        4.753151   -1.410510   -1.714218
     28          1           0        4.349432   -3.271693   -0.068106
     29          1           0        5.679941   -2.670544    0.932526
     30          1           0        6.010624   -3.320013   -0.682450
     31          6           0        3.921369    0.917208   -0.450033
     32          6           0        2.934338    1.765053    0.353032
     33          6           0        2.743229    3.164122   -0.233378
     34          1           0        4.890045    1.434352   -0.490350
     35          1           0        3.566800    0.836526   -1.486718
     36          1           0        3.291198    1.843566    1.387972
     37          1           0        1.968207    1.245811    0.392992
     38          1           0        2.364408    3.103599   -1.258772
     39          1           0        3.694917    3.704750   -0.258139
     40          1           0        2.033725    3.753068    0.356204
 ---------------------------------------------------------------------

 SCF Done:  E(RHF) =  -470.733363295     A.U. after   11 cycles
 E2 =    -0.1582466453D+01 EUMP2 =    -0.47231582974777D+03

 The electronic state is 1-A.
 Alpha  occ. eigenvalues --  -11.21622 -11.21610 -11.21606 -11.21595 -11.21418
 Alpha  occ. eigenvalues --  -11.21401 -11.21358 -11.21340 -11.21078 -11.21076
 Alpha  occ. eigenvalues --  -11.21076 -11.21062  -1.08445  -1.08428  -1.03552
 Alpha  occ. eigenvalues --   -1.03521  -0.95997  -0.95973  -0.87022  -0.86981
 Alpha  occ. eigenvalues --   -0.79639  -0.79564  -0.78258  -0.78240  -0.65074
 Alpha  occ. eigenvalues --   -0.65068  -0.60955  -0.60937  -0.59452  -0.59262
 Alpha  occ. eigenvalues --   -0.57650  -0.57542  -0.55279  -0.55259  -0.52753
 Alpha  occ. eigenvalues --   -0.52643  -0.52441  -0.52374  -0.49932  -0.49913
 Alpha  occ. eigenvalues --   -0.48023  -0.47825  -0.46639  -0.46613  -0.45807
 Alpha  occ. eigenvalues --   -0.45773  -0.45723  -0.45699  -0.43803  -0.43732
 Alpha virt. eigenvalues --    0.21429   0.23046   0.23657   0.24682   0.25947
 Alpha virt. eigenvalues --    0.26644   0.27054   0.27497   0.28001   0.28824
 Alpha virt. eigenvalues --    0.30428   0.31403   0.31658   0.31924   0.31949

 Mulliken charges:
               1
     1  C   -0.298250
     2  C   -0.299664
     3  C   -0.475713
     4  H    0.149712
     5  H    0.149452
     6  H    0.151975
     7  H    0.151944
     8  H    0.155166
     9  H    0.155211
    10  H    0.160289
    11  C   -0.298454
    12  C   -0.298855
    13  C   -0.484895
    14  H    0.149657
    15  H    0.149652
    16  H    0.152106
    17  H    0.151424
    18  H    0.155138
    19  H    0.155707
    20  H    0.168052
    21  C   -0.298813
    22  C   -0.299656
    23  C   -0.475699
    24  H    0.149786
    25  H    0.149956
    26  H    0.151935
    27  H    0.151859
    28  H    0.155244
    29  H    0.155240
    30  H    0.160177
    31  C   -0.297524
    32  C   -0.309425
    33  C   -0.475087
    34  H    0.149631
    35  H    0.149477
    36  H    0.152256
    37  H    0.160291
    38  H    0.155157
    39  H    0.155293
    40  H    0.160247
 Sum of Mulliken charges =  -0.00000

 Dipole moment (field-independent basis, Debye):
    X=              0.0026    Y=              0.0051    Z=              0.0057  Tot=              0.0081
 Quadrupole moment (field-independent basis, Debye-Ang):
   XX=            -84.9869   YY=            -85.0945   ZZ=            -84.6428
   XY=              0.5178   XZ=             -0.3010   YZ=              1.1307

 Normal termination of Gaussian 16 at Thu May  6 03:45:05 2021.
