 Gaussian 16, Revision A.03,
 Gaussian 16:  EM64L-G16RevA.03 25-Dec-2016

 -------------
 #p 6-31g* mp2
 -------------

 ------------------------------------------------------
 Input file generated by CHIRIPA (05-May-2021 14:53:18)
 ------------------------------------------------------
 Symbolic Z-matrix:
 Charge =  0 Multiplicity = 1

                         Standard orientation:
 ---------------------------------------------------------------------
 Center     Atomic      Atomic             Coordinates (Angstroms)
 Number     Number       Type             X           Y           Z
 ---------------------------------------------------------------------
      1          6           0        4.599767    0.368722   -0.375216
      2          6           0        6.115165    0.374820   -0.171462
      3          6           0        6.861259    1.078778   -1.305296
      4          1           0        4.366534   -0.122293   -1.329916
      5          1           0        4.244245    1.404841   -0.461568
      6          1           0        6.467535   -0.660953   -0.084136
      7          1           0        6.344806    0.865707    0.782955
      8          1           0        6.537971    2.121308   -1.390252
      9          1           0        6.661397    0.585974   -2.262270
     10          1           0        7.943049    1.071493   -1.139350
     11          6           0        3.840016   -0.331471    0.750055
     12          6           0        2.324617   -0.337569    0.546300
     13          6           0        1.578523   -1.041528    1.680134
     14          1           0        4.195537   -1.367590    0.836406
     15          1           0        4.073249    0.159544    1.704755
     16          1           0        2.094976   -0.828456   -0.408116
     17          1           0        1.972247    0.698204    0.458975
     18          1           0        1.778385   -0.548723    2.637109
     19          1           0        1.901812   -2.084057    1.765091
     20          1           0        0.496733   -1.034242    1.514189
     21          6           0       -4.248465    2.279539    0.297859
     22          6           0       -3.427302    1.666003    1.249587
     23          6           0       -2.894473    0.395109    1.014070
     24          6           0       -3.204786   -0.236335   -0.189372
     25          6           0       -4.019777    0.348788   -1.157211
     26          6           0       -4.541565    1.620136   -0.900390
     27          1           0       -4.658092    3.266978    0.489088
     28          1           0       -3.197986    2.175743    2.181050
     29          1           0       -2.255972   -0.102952    1.733563
     30          1           0       -4.230545   -0.184233   -2.076387
     31          1           0       -5.178999    2.094197   -1.641328
     32          7           0       -2.646547   -1.582015   -0.449980
     33          8           0       -2.934982   -2.117307   -1.518112
     34          8           0       -1.931134   -2.075985    0.418820
 ---------------------------------------------------------------------

 SCF Done:  E(RHF) =  -669.536069812     A.U. after   15 cycles
 E2 =    -0.2091126641D+01 EUMP2 =    -0.67162719645318D+03

 The electronic state is 1-A.
 Alpha  occ. eigenvalues --  -20.60915 -20.60908 -15.85941 -11.31264 -11.27829
 Alpha  occ. eigenvalues --  -11.27825 -11.27566 -11.26839 -11.26829 -11.21351
 Alpha  occ. eigenvalues --  -11.21088 -11.21069 -11.20959 -11.20871 -11.20324
 Alpha  occ. eigenvalues --   -1.59973  -1.39530  -1.19434  -1.08838  -1.08055
 Alpha  occ. eigenvalues --   -1.04831  -1.03117  -0.95688  -0.95550  -0.86574
 Alpha  occ. eigenvalues --   -0.86232  -0.82514  -0.79194  -0.77869  -0.77568
 Alpha  occ. eigenvalues --   -0.72168  -0.71285  -0.70545  -0.65091  -0.64837
 Alpha  occ. eigenvalues --   -0.64689  -0.62185  -0.60518  -0.58926  -0.57161
 Alpha  occ. eigenvalues --   -0.55337  -0.54851  -0.53161  -0.52932  -0.52223
 Alpha  occ. eigenvalues --   -0.51984  -0.49511  -0.48922  -0.48918  -0.47501
 Alpha  occ. eigenvalues --   -0.46239  -0.45408  -0.45337  -0.44930  -0.43337
 Alpha  occ. eigenvalues --   -0.37413  -0.36431
 Alpha virt. eigenvalues --    0.04926   0.11194   0.16416   0.21097   0.23206
 Alpha virt. eigenvalues --    0.24437   0.26643   0.27005   0.27667   0.27878
 Alpha virt. eigenvalues --    0.28932   0.30262   0.31596   0.31807   0.32196

 Mulliken charges:
               1
     1  C   -0.297926
     2  C   -0.299343
     3  C   -0.475481
     4  H    0.150646
     5  H    0.147304
     6  H    0.152448
     7  H    0.150790
     8  H    0.153996
     9  H    0.155510
    10  H    0.159484
    11  C   -0.297757
    12  C   -0.299589
    13  C   -0.483836
    14  H    0.150704
    15  H    0.147111
    16  H    0.156534
    17  H    0.145576
    18  H    0.146318
    19  H    0.158856
    20  H    0.174719
    21  C   -0.170534
    22  C   -0.219001
    23  C   -0.171708
    24  C    0.158043
    25  C   -0.170765
    26  C   -0.218554
    27  H    0.225897
    28  H    0.224023
    29  H    0.278011
    30  H    0.275736
    31  H    0.223730
    32  N    0.489325
    33  O   -0.459028
    34  O   -0.461237
 Sum of Mulliken charges =  -0.00000

 Dipole moment (field-independent basis, Debye):
    X=             -2.1466    Y=              4.6550    Z=              0.8568  Tot=              5.1972
 Quadrupole moment (field-independent basis, Debye-Ang):
   XX=            -82.5387   YY=            -96.9602   ZZ=            -91.8021
   XY=            -15.6069   XZ=              0.1604   YZ=             -0.1704

 Normal termination of Gaussian 16 at Thu May  6 02:51:22 2021.
