 Gaussian 16, Revision A.03,
 Gaussian 16:  EM64L-G16RevA.03 25-Dec-2016

 -------------
 #p 6-31g* mp2
 -------------

 ------------------------------------------------------
 Input file generated by CHIRIPA (05-May-2021 14:51:08)
 ------------------------------------------------------
 Symbolic Z-matrix:
 Charge =  0 Multiplicity = 1

                         Standard orientation:
 ---------------------------------------------------------------------
 Center     Atomic      Atomic             Coordinates (Angstroms)
 Number     Number       Type             X           Y           Z
 ---------------------------------------------------------------------
      1          6           0       -2.075431    1.202538   -0.273555
      2          6           0       -2.254056    2.384336    0.680086
      3          6           0       -1.141187    3.424399    0.547479
      4          1           0       -1.103386    0.728090   -0.081267
      5          1           0       -2.042222    1.575691   -1.306536
      6          1           0       -2.288306    2.008928    1.710868
      7          1           0       -3.225871    2.855908    0.485635
      8          1           0       -1.109128    3.826669   -0.470240
      9          1           0       -0.166236    2.974876    0.761955
     10          1           0       -1.288641    4.260435    1.238248
     11          6           0       -3.180145    0.154321   -0.152824
     12          6           0       -3.001519   -1.027477   -1.106465
     13          6           0       -4.114388   -2.067541   -0.973859
     14          1           0       -3.213354   -0.218832    0.880156
     15          1           0       -4.152189    0.628769   -0.345113
     16          1           0       -2.029704   -1.499049   -0.912014
     17          1           0       -2.967269   -0.652069   -2.137248
     18          1           0       -5.089340   -1.618018   -1.188335
     19          1           0       -4.146447   -2.469810    0.043860
     20          1           0       -3.966935   -2.903577   -1.664628
     21          6           0        3.340738   -0.407426    0.254328
     22          6           0        3.840572    0.186635   -1.062957
     23          6           0        5.268407    0.724625   -0.964738
     24          1           0        3.391602    0.360587    1.038237
     25          1           0        4.017585   -1.215664    0.564210
     26          1           0        3.162206    0.992591   -1.370970
     27          1           0        3.788332   -0.582826   -1.843864
     28          1           0        5.962139   -0.073462   -0.681200
     29          1           0        5.332456    1.510906   -0.205619
     30          1           0        5.605600    1.144629   -1.917502
     31          6           0        1.914838   -0.949432    0.172051
     32          6           0        1.415004   -1.543494    1.489337
     33          6           0       -0.012833   -2.081484    1.391118
     34          1           0        1.237991   -0.141195   -0.137830
     35          1           0        1.863974   -1.717446   -0.611857
     36          1           0        1.467243   -0.774032    2.270243
     37          1           0        2.093369   -2.349449    1.797349
     38          1           0       -0.076880   -2.867764    0.631998
     39          1           0       -0.706563   -1.283396    1.107579
     40          1           0       -0.350024   -2.501487    2.343882
 ---------------------------------------------------------------------

 SCF Done:  E(RHF) =  -470.732063123     A.U. after   11 cycles
 E2 =    -0.1585056204D+01 EUMP2 =    -0.47231711932759D+03

 The electronic state is 1-A.
 Alpha  occ. eigenvalues --  -11.21671 -11.21639 -11.21617 -11.21487 -11.21453
 Alpha  occ. eigenvalues --  -11.21408 -11.21391 -11.21341 -11.21128 -11.21118
 Alpha  occ. eigenvalues --  -11.21080 -11.21001  -1.08513  -1.08411  -1.03589
 Alpha  occ. eigenvalues --   -1.03510  -0.96042  -0.95972  -0.87077  -0.86971
 Alpha  occ. eigenvalues --   -0.79670  -0.79574  -0.78413  -0.78135  -0.65401
 Alpha  occ. eigenvalues --   -0.64880  -0.60969  -0.60936  -0.59408  -0.59337
 Alpha  occ. eigenvalues --   -0.57631  -0.57584  -0.55475  -0.55124  -0.52720
 Alpha  occ. eigenvalues --   -0.52679  -0.52488  -0.52371  -0.50025  -0.49866
 Alpha  occ. eigenvalues --   -0.48077  -0.47866  -0.46846  -0.46562  -0.46223
 Alpha  occ. eigenvalues --   -0.45773  -0.45739  -0.45047  -0.43829  -0.43773
 Alpha virt. eigenvalues --    0.20269   0.22599   0.24048   0.24368   0.25810
 Alpha virt. eigenvalues --    0.26714   0.26943   0.27478   0.28095   0.30145
 Alpha virt. eigenvalues --    0.31096   0.31510   0.31701   0.31871   0.32362

 Mulliken charges:
               1
     1  C   -0.309517
     2  C   -0.299126
     3  C   -0.475876
     4  H    0.157999
     5  H    0.150240
     6  H    0.151797
     7  H    0.152495
     8  H    0.155445
     9  H    0.154123
    10  H    0.160615
    11  C   -0.300306
    12  C   -0.304416
    13  C   -0.475503
    14  H    0.149906
    15  H    0.150677
    16  H    0.158230
    17  H    0.151238
    18  H    0.154668
    19  H    0.155554
    20  H    0.159839
    21  C   -0.297758
    22  C   -0.299863
    23  C   -0.475756
    24  H    0.149524
    25  H    0.149773
    26  H    0.152455
    27  H    0.152056
    28  H    0.155151
    29  H    0.155275
    30  H    0.160415
    31  C   -0.305761
    32  C   -0.299281
    33  C   -0.485217
    34  H    0.155369
    35  H    0.149982
    36  H    0.151524
    37  H    0.152391
    38  H    0.155846
    39  H    0.165360
    40  H    0.160434
 Sum of Mulliken charges =  -0.00000

 Dipole moment (field-independent basis, Debye):
    X=              0.0212    Y=             -0.0086    Z=              0.0002  Tot=              0.0229
 Quadrupole moment (field-independent basis, Debye-Ang):
   XX=            -85.9986   YY=            -84.5724   ZZ=            -84.2443
   XY=             -1.6890   XZ=              0.2975   YZ=             -0.0835

 Normal termination of Gaussian 16 at Wed May  5 21:17:44 2021.
