 Gaussian 16, Revision A.03,
 Gaussian 16:  EM64L-G16RevA.03 25-Dec-2016

 -------------
 #p 6-31g* mp2
 -------------

 ------------------------------------------------------
 Input file generated by CHIRIPA (05-May-2021 14:53:13)
 ------------------------------------------------------
 Symbolic Z-matrix:
 Charge =  0 Multiplicity = 1

                         Standard orientation:
 ---------------------------------------------------------------------
 Center     Atomic      Atomic             Coordinates (Angstroms)
 Number     Number       Type             X           Y           Z
 ---------------------------------------------------------------------
      1          6           0        3.145912    0.051500   -0.120825
      2          6           0        2.059188   -0.975191   -0.441636
      3          6           0        0.663721   -0.354908   -0.517229
      4          1           0        2.908556    0.541155    0.833557
      5          1           0        3.134594    0.838727   -0.887338
      6          1           0        2.073470   -1.760978    0.324492
      7          1           0        2.299260   -1.462594   -1.395272
      8          1           0        0.626152    0.415482   -1.294203
      9          1           0        0.399079    0.115403    0.435332
     10          1           0       -0.097766   -1.106520   -0.747612
     11          6           0        4.546484   -0.553395   -0.041893
     12          6           0        5.633208    0.473297    0.278918
     13          6           0        7.028675   -0.146986    0.354510
     14          1           0        4.557802   -1.340621    0.724619
     15          1           0        4.783840   -1.043049   -0.996276
     16          1           0        5.393136    0.960700    1.232553
     17          1           0        5.618927    1.259083   -0.487210
     18          1           0        7.293317   -0.617298   -0.598051
     19          1           0        7.066244   -0.917376    1.131484
     20          1           0        7.790163    0.604626    0.584893
     21          6           0       -2.197695    2.580455   -0.106907
     22          6           0       -2.357217    1.811014   -1.264073
     23          6           0       -2.803808    0.488783   -1.181554
     24          6           0       -3.082874   -0.034462    0.080042
     25          6           0       -2.933907    0.706752    1.251239
     26          6           0       -2.486040    2.026844    1.144849
     27          1           0       -1.850276    3.606766   -0.180281
     28          1           0       -2.134045    2.238336   -2.237539
     29          1           0       -2.936101   -0.129303   -2.061261
     30          1           0       -3.164387    0.253166    2.207563
     31          1           0       -2.363075    2.622052    2.045211
     32          7           0       -3.556335   -1.433118    0.180036
     33          8           0       -3.795431   -1.870787    1.303387
     34          8           0       -3.679373   -2.065230   -0.866831
 ---------------------------------------------------------------------

 SCF Done:  E(RHF) =  -669.534938598     A.U. after   15 cycles
 E2 =    -0.2092918985D+01 EUMP2 =    -0.67162785758292D+03

 The electronic state is 1-A.
 Alpha  occ. eigenvalues --  -20.60771 -20.60763 -15.85818 -11.31137 -11.27737
 Alpha  occ. eigenvalues --  -11.27723 -11.27484 -11.26755 -11.26734 -11.21723
 Alpha  occ. eigenvalues --  -11.21583 -11.21501 -11.21439 -11.21166 -11.21044
 Alpha  occ. eigenvalues --   -1.59844  -1.39398  -1.19337  -1.08737  -1.08509
 Alpha  occ. eigenvalues --   -1.04746  -1.03587  -0.96047  -0.95573  -0.87067
 Alpha  occ. eigenvalues --   -0.86145  -0.82412  -0.79659  -0.78328  -0.77460
 Alpha  occ. eigenvalues --   -0.72039  -0.71166  -0.70457  -0.65143  -0.64997
 Alpha  occ. eigenvalues --   -0.64755  -0.62098  -0.60991  -0.59425  -0.57656
 Alpha  occ. eigenvalues --   -0.55347  -0.55252  -0.53512  -0.52844  -0.52585
 Alpha  occ. eigenvalues --   -0.52167  -0.49998  -0.48798  -0.48793  -0.47954
 Alpha  occ. eigenvalues --   -0.46697  -0.45857  -0.45800  -0.44811  -0.43852
 Alpha  occ. eigenvalues --   -0.37275  -0.36283
 Alpha virt. eigenvalues --    0.05074   0.11255   0.16556   0.21379   0.22769
 Alpha virt. eigenvalues --    0.24170   0.26527   0.27128   0.27425   0.27880
 Alpha virt. eigenvalues --    0.28373   0.30501   0.31300   0.31704   0.31800

 Mulliken charges:
               1
     1  C   -0.297680
     2  C   -0.301089
     3  C   -0.474640
     4  H    0.147847
     5  H    0.146621
     6  H    0.154203
     7  H    0.152131
     8  H    0.149108
     9  H    0.155417
    10  H    0.162209
    11  C   -0.298264
    12  C   -0.299419
    13  C   -0.475721
    14  H    0.150797
    15  H    0.150185
    16  H    0.151096
    17  H    0.150715
    18  H    0.155559
    19  H    0.155904
    20  H    0.159919
    21  C   -0.169841
    22  C   -0.216060
    23  C   -0.168521
    24  C    0.161833
    25  C   -0.171657
    26  C   -0.218991
    27  H    0.225478
    28  H    0.222979
    29  H    0.275224
    30  H    0.275356
    31  H    0.223184
    32  N    0.487680
    33  O   -0.460522
    34  O   -0.461043
 Sum of Mulliken charges =  -0.00000

 Dipole moment (field-independent basis, Debye):
    X=              1.6124    Y=              4.9237    Z=             -0.3516  Tot=              5.1929
 Quadrupole moment (field-independent basis, Debye-Ang):
   XX=           -107.1672   YY=            -95.7597   ZZ=            -88.8834
   XY=            -15.2104   XZ=              0.7637   YZ=              0.7484

 Normal termination of Gaussian 16 at Thu May  6 10:28:51 2021.
