 Gaussian 16, Revision A.03,
 Gaussian 16:  EM64L-G16RevA.03 25-Dec-2016

 -------------
 #p 6-31g* mp2
 -------------

 ------------------------------------------------------
 Input file generated by CHIRIPA (05-May-2021 14:57:20)
 ------------------------------------------------------
 Symbolic Z-matrix:
 Charge =  0 Multiplicity = 1

                         Standard orientation:
 ---------------------------------------------------------------------
 Center     Atomic      Atomic             Coordinates (Angstroms)
 Number     Number       Type             X           Y           Z
 ---------------------------------------------------------------------
      1          6           0       -5.388454    1.428917    0.432382
      2          6           0       -4.993385    1.121226   -0.873668
      3          6           0       -3.897894    0.284146   -1.105493
      4          6           0       -3.217171   -0.230076   -0.003004
      5          6           0       -3.586386    0.057919    1.310019
      6          6           0       -4.684934    0.897219    1.518143
      7          1           0       -6.240646    2.080043    0.603264
      8          1           0       -5.537879    1.532714   -1.718801
      9          1           0       -3.570513    0.029560   -2.106206
     10          1           0       -3.023910   -0.367401    2.132297
     11          1           0       -4.989493    1.134459    2.533528
     12          7           0       -2.055805   -1.117430   -0.235881
     13          8           0       -1.472718   -1.557688    0.752460
     14          8           0       -1.750605   -1.355878   -1.402343
     15          6           0        2.487284   -2.265029   -0.033663
     16          6           0        3.397727   -1.869494    0.951814
     17          6           0        3.914692   -0.570565    0.960634
     18          6           0        3.497646    0.310908   -0.035543
     19          6           0        2.592033   -0.053230   -1.030811
     20          6           0        2.088046   -1.357235   -1.020091
     21          1           0        2.090734   -3.276041   -0.032926
     22          1           0        3.709564   -2.572373    1.719124
     23          1           0        4.620837   -0.237933    1.711722
     24          1           0        2.299964    0.669835   -1.782669
     25          1           0        1.381121   -1.661644   -1.786666
     26          7           0        4.038063    1.688713   -0.036548
     27          8           0        3.654785    2.446380   -0.925185
     28          8           0        4.834688    1.984882    0.851320
 ---------------------------------------------------------------------

 SCF Done:  E(RHF) =  -868.340447395     A.U. after   16 cycles
 E2 =    -0.2598702421D+01 EUMP2 =    -0.87093914981677D+03

 The electronic state is 1-A.
 Alpha  occ. eigenvalues --  -20.61563 -20.61533 -20.59948 -20.59943 -15.86564
 Alpha  occ. eigenvalues --  -15.84988 -11.31650 -11.30055 -11.28191 -11.28177
 Alpha  occ. eigenvalues --  -11.27873 -11.27137 -11.27126 -11.26618 -11.26514
 Alpha  occ. eigenvalues --  -11.26155 -11.25570 -11.25313  -1.60606  -1.59030
 Alpha  occ. eigenvalues --   -1.40168  -1.38592  -1.19795  -1.18167  -1.09244
 Alpha  occ. eigenvalues --   -1.07594  -1.05156  -1.03519  -0.96127  -0.94496
 Alpha  occ. eigenvalues --   -0.86568  -0.84916  -0.82971  -0.81342  -0.78047
 Alpha  occ. eigenvalues --   -0.76445  -0.72807  -0.71898  -0.71216  -0.70902
 Alpha  occ. eigenvalues --   -0.70350  -0.69250  -0.65453  -0.65159  -0.63807
 Alpha  occ. eigenvalues --   -0.63483  -0.62509  -0.60876  -0.55668  -0.53978
 Alpha  occ. eigenvalues --   -0.53498  -0.53246  -0.51871  -0.51597  -0.49563
 Alpha  occ. eigenvalues --   -0.49528  -0.47987  -0.47937  -0.45629  -0.44066
 Alpha  occ. eigenvalues --   -0.37757  -0.36744  -0.36070  -0.35109
 Alpha virt. eigenvalues --    0.04462   0.06061   0.10915   0.12555   0.16019
 Alpha virt. eigenvalues --    0.17669   0.21077   0.22765   0.27002   0.27932
 Alpha virt. eigenvalues --    0.28690   0.29554   0.30668   0.32087   0.32411

 Mulliken charges:
               1
     1  C   -0.169577
     2  C   -0.218281
     3  C   -0.170360
     4  C    0.158245
     5  C   -0.169921
     6  C   -0.218322
     7  H    0.227699
     8  H    0.225127
     9  H    0.274836
    10  H    0.275953
    11  H    0.225308
    12  N    0.490069
    13  O   -0.459530
    14  O   -0.468872
    15  C   -0.163848
    16  C   -0.219252
    17  C   -0.173677
    18  C    0.157514
    19  C   -0.176315
    20  C   -0.214176
    21  H    0.228037
    22  H    0.219099
    23  H    0.270689
    24  H    0.271411
    25  H    0.238395
    26  N    0.488150
    27  O   -0.464130
    28  O   -0.464270
 Sum of Mulliken charges =  -0.00000

 Dipole moment (field-independent basis, Debye):
    X=             -6.4952    Y=             -1.8826    Z=              0.8114  Tot=              6.8111
 Quadrupole moment (field-independent basis, Debye-Ang):
   XX=            -92.1336   YY=           -110.3187   ZZ=            -96.9028
   XY=            -28.5672   XZ=              0.2735   YZ=             -1.4054

 Normal termination of Gaussian 16 at Thu May  6 09:36:48 2021.
