 Gaussian 16, Revision A.03,
 Gaussian 16:  EM64L-G16RevA.03 25-Dec-2016

 -------------
 #p 6-31g* mp2
 -------------

 ------------------------------------------------------
 Input file generated by CHIRIPA (05-May-2021 14:53:15)
 ------------------------------------------------------
 Symbolic Z-matrix:
 Charge =  0 Multiplicity = 1

                         Standard orientation:
 ---------------------------------------------------------------------
 Center     Atomic      Atomic             Coordinates (Angstroms)
 Number     Number       Type             X           Y           Z
 ---------------------------------------------------------------------
      1          6           0        4.386055    0.551285    0.263139
      2          6           0        4.656769    1.615950   -0.800433
      3          6           0        5.521246    2.764804   -0.280232
      4          1           0        3.893966    1.020790    1.125901
      5          1           0        5.343987    0.154820    0.627248
      6          1           0        3.698579    2.009305   -1.163420
      7          1           0        5.148098    1.143821   -1.660843
      8          1           0        6.491212    2.391717    0.064113
      9          1           0        5.033457    3.262120    0.564363
     10          1           0        5.702359    3.514459   -1.056811
     11          6           0        3.523123   -0.603759   -0.241788
     12          6           0        3.252409   -1.668424    0.821784
     13          6           0        2.387932   -2.817278    0.301583
     14          1           0        2.565191   -0.207293   -0.605897
     15          1           0        4.015212   -1.073264   -1.104550
     16          1           0        2.761080   -1.196294    1.682194
     17          1           0        4.210599   -2.061779    1.184771
     18          1           0        2.875721   -3.314593   -0.543012
     19          1           0        1.417966   -2.444191   -0.042762
     20          1           0        2.206819   -3.566933    1.078162
     21          6           0       -4.641456    1.982991    0.317306
     22          6           0       -4.738519    1.197672   -0.836113
     23          6           0       -3.883844    0.107896   -1.027082
     24          6           0       -2.939488   -0.169229   -0.039822
     25          6           0       -2.818128    0.594365    1.120129
     26          6           0       -3.683259    1.679367    1.290030
     27          1           0       -5.309449    2.827701    0.457472
     28          1           0       -5.481713    1.431122   -1.593218
     29          1           0       -3.937234   -0.516696   -1.910514
     30          1           0       -2.067220    0.336911    1.857199
     31          1           0       -3.605599    2.287514    2.186786
     32          7           0       -2.029147   -1.320399   -0.230841
     33          8           0       -1.205657   -1.543662    0.653836
     34          8           0       -2.156349   -1.977625   -1.261623
 ---------------------------------------------------------------------

 SCF Done:  E(RHF) =  -669.536283801     A.U. after   15 cycles
 E2 =    -0.2090992415D+01 EUMP2 =    -0.67162727621675D+03

 The electronic state is 1-A.
 Alpha  occ. eigenvalues --  -20.61018 -20.61007 -15.86035 -11.31340 -11.27900
 Alpha  occ. eigenvalues --  -11.27895 -11.27633 -11.26901 -11.26891 -11.21139
 Alpha  occ. eigenvalues --  -11.20760 -11.20735 -11.20504 -11.20434 -11.19372
 Alpha  occ. eigenvalues --   -1.60070  -1.39626  -1.19505  -1.08913  -1.07651
 Alpha  occ. eigenvalues --   -1.04898  -1.02651  -0.95758  -0.95078  -0.86300
 Alpha  occ. eigenvalues --   -0.86092  -0.82590  -0.78769  -0.77647  -0.77413
 Alpha  occ. eigenvalues --   -0.72252  -0.71383  -0.70613  -0.65160  -0.64900
 Alpha  occ. eigenvalues --   -0.64288  -0.62245  -0.60040  -0.58540  -0.56687
 Alpha  occ. eigenvalues --   -0.55405  -0.54355  -0.53231  -0.52989  -0.51770
 Alpha  occ. eigenvalues --   -0.51508  -0.49285  -0.49010  -0.48740  -0.47047
 Alpha  occ. eigenvalues --   -0.45809  -0.45088  -0.44943  -0.44766  -0.42925
 Alpha  occ. eigenvalues --   -0.37483  -0.36498
 Alpha virt. eigenvalues --    0.04862   0.11157   0.16358   0.21295   0.23571
 Alpha virt. eigenvalues --    0.25270   0.27214   0.27384   0.28185   0.28228
 Alpha virt. eigenvalues --    0.29035   0.30860   0.32242   0.32444   0.32513

 Mulliken charges:
               1
     1  C   -0.297319
     2  C   -0.298814
     3  C   -0.475063
     4  H    0.146988
     5  H    0.148129
     6  H    0.150297
     7  H    0.151776
     8  H    0.154843
     9  H    0.153303
    10  H    0.158320
    11  C   -0.297685
    12  C   -0.298028
    13  C   -0.483235
    14  H    0.150631
    15  H    0.148066
    16  H    0.150199
    17  H    0.145821
    18  H    0.147143
    19  H    0.182789
    20  H    0.156698
    21  C   -0.170496
    22  C   -0.218580
    23  C   -0.170642
    24  C    0.157917
    25  C   -0.170895
    26  C   -0.218547
    27  H    0.226190
    28  H    0.224016
    29  H    0.276042
    30  H    0.275783
    31  H    0.223990
    32  N    0.488414
    33  O   -0.459688
    34  O   -0.458365
 Sum of Mulliken charges =  -0.00000

 Dipole moment (field-independent basis, Debye):
    X=             -3.5716    Y=              4.0220    Z=              0.6429  Tot=              5.4172
 Quadrupole moment (field-independent basis, Debye-Ang):
   XX=            -76.1910   YY=            -97.4613   ZZ=            -91.1897
   XY=            -12.1213   XZ=             -0.0873   YZ=              0.8358

 Normal termination of Gaussian 16 at Thu May  6 17:09:33 2021.
