 Gaussian 16, Revision A.03,
 Gaussian 16:  EM64L-G16RevA.03 25-Dec-2016

 -------------
 #p 6-31g* mp2
 -------------

 ------------------------------------------------------
 Input file generated by CHIRIPA (05-May-2021 14:57:23)
 ------------------------------------------------------
 Symbolic Z-matrix:
 Charge =  0 Multiplicity = 1

                         Standard orientation:
 ---------------------------------------------------------------------
 Center     Atomic      Atomic             Coordinates (Angstroms)
 Number     Number       Type             X           Y           Z
 ---------------------------------------------------------------------
      1          6           0       -4.804173   -1.426204    0.028751
      2          6           0       -4.129358   -1.094980   -1.150840
      3          6           0       -3.175158   -0.073233   -1.159993
      4          6           0       -2.919450    0.599649    0.033796
      5          6           0       -3.575112    0.292918    1.225145
      6          6           0       -4.525388   -0.732421    1.210895
      7          1           0       -5.543895   -2.221317    0.026771
      8          1           0       -4.343827   -1.632084   -2.070388
      9          1           0       -2.638027    0.203727   -2.058993
     10          1           0       -3.339827    0.846214    2.126213
     11          1           0       -5.047916   -0.987501    2.128470
     12          7           0       -1.911358    1.683229    0.036494
     13          8           0       -1.704224    2.260941    1.101380
     14          8           0       -1.347438    1.934308   -1.026328
     15          6           0        5.257242    0.849904    0.152445
     16          6           0        4.106191    1.494914   -0.311839
     17          6           0        2.897477    0.800576   -0.418876
     18          6           0        2.875649   -0.543934   -0.051314
     19          6           0        4.005455   -1.214447    0.414779
     20          6           0        5.203296   -0.500338    0.513637
     21          1           0        6.191977    1.396961    0.232418
     22          1           0        4.145133    2.543458   -0.593057
     23          1           0        1.991357    1.275329   -0.775210
     24          1           0        3.935527   -2.260437    0.687607
     25          1           0        6.095644   -1.003840    0.874532
     26          7           0        1.601794   -1.289465   -0.160299
     27          8           0        1.608826   -2.473349    0.169860
     28          8           0        0.620434   -0.675810   -0.573818
 ---------------------------------------------------------------------

 SCF Done:  E(RHF) =  -868.340202696     A.U. after   16 cycles
 E2 =    -0.2599646980D+01 EUMP2 =    -0.87093984967547D+03

 The electronic state is 1-A.
 Alpha  occ. eigenvalues --  -20.60364 -20.60357 -20.60013 -20.59961 -15.85408
 Alpha  occ. eigenvalues --  -15.85012 -11.30588 -11.30175 -11.27231 -11.27016
 Alpha  occ. eigenvalues --  -11.26938 -11.26804 -11.26719 -11.26548 -11.26215
 Alpha  occ. eigenvalues --  -11.26091 -11.25811 -11.25749  -1.59444  -1.59024
 Alpha  occ. eigenvalues --   -1.38997  -1.38590  -1.18770  -1.18351  -1.08216
 Alpha  occ. eigenvalues --   -1.07799  -1.04138  -1.03759  -0.95070  -0.94670
 Alpha  occ. eigenvalues --   -0.85550  -0.85173  -0.81906  -0.81529  -0.76955
 Alpha  occ. eigenvalues --   -0.76571  -0.71720  -0.71274  -0.70773  -0.70183
 Alpha  occ. eigenvalues --   -0.69875  -0.69527  -0.64427  -0.64148  -0.64044
 Alpha  occ. eigenvalues --   -0.63808  -0.61460  -0.61128  -0.54687  -0.54324
 Alpha  occ. eigenvalues --   -0.52499  -0.52228  -0.52054  -0.51887  -0.48411
 Alpha  occ. eigenvalues --   -0.48373  -0.48022  -0.48013  -0.44460  -0.44012
 Alpha  occ. eigenvalues --   -0.36781  -0.36317  -0.35736  -0.35328
 Alpha virt. eigenvalues --    0.05517   0.06014   0.11915   0.12323   0.17054
 Alpha virt. eigenvalues --    0.17463   0.22046   0.22309   0.27992   0.28193
 Alpha virt. eigenvalues --    0.28907   0.29255   0.31529   0.31822   0.33200

 Mulliken charges:
               1
     1  C   -0.169831
     2  C   -0.218464
     3  C   -0.158970
     4  C    0.165419
     5  C   -0.170658
     6  C   -0.218700
     7  H    0.222367
     8  H    0.220951
     9  H    0.275691
    10  H    0.271757
    11  H    0.219613
    12  N    0.493092
    13  O   -0.467707
    14  O   -0.462764
    15  C   -0.170469
    16  C   -0.219918
    17  C   -0.173093
    18  C    0.155505
    19  C   -0.171517
    20  C   -0.219558
    21  H    0.223900
    22  H    0.225645
    23  H    0.292280
    24  H    0.272647
    25  H    0.220803
    26  N    0.489348
    27  O   -0.464822
    28  O   -0.462548
 Sum of Mulliken charges =  -0.00000

 Dipole moment (field-independent basis, Debye):
    X=              0.9591    Y=             -1.1044    Z=              0.2236  Tot=              1.4797
 Quadrupole moment (field-independent basis, Debye-Ang):
   XX=            -59.5781   YY=           -110.1174   ZZ=           -100.4405
   XY=             12.7298   XZ=              0.9314   YZ=             -1.3378

 Normal termination of Gaussian 16 at Wed May  5 16:21:08 2021.
