 Gaussian 16, Revision A.03,
 Gaussian 16:  EM64L-G16RevA.03 25-Dec-2016

 -------------
 #p 6-31g* mp2
 -------------

 ------------------------------------------------------
 Input file generated by CHIRIPA (05-May-2021 14:55:24)
 ------------------------------------------------------
 Symbolic Z-matrix:
 Charge =  0 Multiplicity = 1

                         Standard orientation:
 ---------------------------------------------------------------------
 Center     Atomic      Atomic             Coordinates (Angstroms)
 Number     Number       Type             X           Y           Z
 ---------------------------------------------------------------------
      1          6           0       -1.101130    2.535320    0.177651
      2          6           0       -2.247528    2.153236    0.882141
      3          6           0       -2.895875    0.950853    0.584702
      4          6           0       -2.368177    0.151160   -0.427877
      5          6           0       -1.227792    0.504343   -1.147650
      6          6           0       -0.595812    1.711107   -0.833213
      7          1           0       -0.603836    3.471062    0.415311
      8          1           0       -2.642206    2.791343    1.667694
      9          1           0       -3.784964    0.630794    1.114325
     10          1           0       -0.857976   -0.152698   -1.925436
     11          1           0        0.294329    2.005295   -1.381982
     12          7           0       -3.045889   -1.124068   -0.751759
     13          8           0       -2.561046   -1.810915   -1.648311
     14          8           0       -4.049091   -1.412597   -0.102934
     15          6           0        2.262816   -0.250087    0.862870
     16          6           0        1.457236   -1.429066    1.409711
     17          6           0        0.208890   -0.988035    2.174511
     18          1           0        2.553549    0.404836    1.695634
     19          1           0        1.620319    0.349516    0.203272
     20          1           0        2.101458   -2.027045    2.066990
     21          1           0        1.168549   -2.081359    0.575571
     22          1           0       -0.456424   -0.409754    1.525242
     23          1           0        0.481786   -0.355131    3.025135
     24          1           0       -0.352043   -1.846627    2.556653
     25          6           0        3.513779   -0.674926    0.095843
     26          6           0        4.319359    0.504052   -0.450998
     27          6           0        5.567704    0.063021   -1.215798
     28          1           0        4.156275   -1.274529    0.755442
     29          1           0        3.223045   -1.329849   -0.736921
     30          1           0        4.608045    1.156346    0.383143
     31          1           0        3.675136    1.102031   -1.108277
     32          1           0        5.294809   -0.569882   -2.066422
     33          1           0        6.233017   -0.515259   -0.566528
     34          1           0        6.128637    0.921615   -1.597940
 ---------------------------------------------------------------------

 SCF Done:  E(RHF) =  -669.533358526     A.U. after   15 cycles
 E2 =    -0.2096125911D+01 EUMP2 =    -0.67162948443739D+03

 The electronic state is 1-A.
 Alpha  occ. eigenvalues --  -20.60848 -20.60842 -15.85902 -11.31292 -11.27878
 Alpha  occ. eigenvalues --  -11.27869 -11.27635 -11.26922 -11.26912 -11.22053
 Alpha  occ. eigenvalues --  -11.21647 -11.21601 -11.21501 -11.21414 -11.20881
 Alpha  occ. eigenvalues --   -1.59921  -1.39473  -1.19532  -1.08890  -1.08654
 Alpha  occ. eigenvalues --   -1.04927  -1.03708  -0.96151  -0.95708  -0.87172
 Alpha  occ. eigenvalues --   -0.86304  -0.82544  -0.79801  -0.78481  -0.77582
 Alpha  occ. eigenvalues --   -0.72120  -0.71256  -0.70588  -0.65367  -0.65144
 Alpha  occ. eigenvalues --   -0.64886  -0.62255  -0.61177  -0.59533  -0.57781
 Alpha  occ. eigenvalues --   -0.55577  -0.55391  -0.53430  -0.53003  -0.52828
 Alpha  occ. eigenvalues --   -0.52444  -0.50074  -0.48884  -0.48872  -0.48038
 Alpha  occ. eigenvalues --   -0.46801  -0.45970  -0.45838  -0.44868  -0.43963
 Alpha  occ. eigenvalues --   -0.37458  -0.36454
 Alpha virt. eigenvalues --    0.04934   0.11047   0.16327   0.20415   0.22897
 Alpha virt. eigenvalues --    0.24093   0.25433   0.26743   0.27716   0.28326
 Alpha virt. eigenvalues --    0.28988   0.30551   0.31535   0.31636   0.31958

 Mulliken charges:
               1
     1  C   -0.171084
     2  C   -0.214930
     3  C   -0.173701
     4  C    0.159586
     5  C   -0.174194
     6  C   -0.216095
     7  H    0.227034
     8  H    0.224652
     9  H    0.276500
    10  H    0.276117
    11  H    0.225527
    12  N    0.488790
    13  O   -0.460581
    14  O   -0.459897
    15  C   -0.303609
    16  C   -0.299635
    17  C   -0.484295
    18  H    0.146822
    19  H    0.149078
    20  H    0.152263
    21  H    0.154692
    22  H    0.165516
    23  H    0.150611
    24  H    0.162743
    25  C   -0.298332
    26  C   -0.297900
    27  C   -0.475693
    28  H    0.151559
    29  H    0.150252
    30  H    0.151849
    31  H    0.142959
    32  H    0.156263
    33  H    0.157298
    34  H    0.159835
 Sum of Mulliken charges =  -0.00000

 Dipole moment (field-independent basis, Debye):
    X=              2.2572    Y=              4.5129    Z=              1.1330  Tot=              5.1716
 Quadrupole moment (field-independent basis, Debye-Ang):
   XX=           -104.6464   YY=            -93.6968   ZZ=            -93.4136
   XY=            -11.1406   XZ=             -5.6342   YZ=             -0.9562

 Normal termination of Gaussian 16 at Thu May  6 09:29:53 2021.
