 Gaussian 16, Revision A.03,
 Gaussian 16:  EM64L-G16RevA.03 25-Dec-2016

 -------------
 #p 6-31g* mp2
 -------------

 ------------------------------------------------------
 Input file generated by CHIRIPA (05-May-2021 14:51:13)
 ------------------------------------------------------
 Symbolic Z-matrix:
 Charge =  0 Multiplicity = 1

                         Standard orientation:
 ---------------------------------------------------------------------
 Center     Atomic      Atomic             Coordinates (Angstroms)
 Number     Number       Type             X           Y           Z
 ---------------------------------------------------------------------
      1          6           0        4.000758   -0.708442    0.280556
      2          6           0        5.175940   -0.769685   -0.695755
      3          6           0        5.809005   -2.159343   -0.772396
      4          1           0        4.345387   -1.011489    1.278723
      5          1           0        3.241459   -1.441992   -0.024017
      6          1           0        5.932183   -0.035269   -0.390230
      7          1           0        4.828517   -0.466273   -1.691673
      8          1           0        5.072628   -2.900636   -1.099253
      9          1           0        6.182566   -2.467183    0.209585
     10          1           0        6.647022   -2.180489   -1.476059
     11          6           0        3.357400    0.674358    0.368198
     12          6           0        2.182218    0.735601    1.344508
     13          6           0        1.549153    2.125259    1.421150
     14          1           0        4.116699    1.407908    0.672770
     15          1           0        3.012771    0.977405   -0.629970
     16          1           0        2.529642    0.432189    2.340427
     17          1           0        1.425975    0.001185    1.038983
     18          1           0        1.175593    2.433099    0.439168
     19          1           0        2.285530    2.866552    1.748007
     20          1           0        0.711137    2.146405    2.124812
     21          6           0       -3.314155    0.679270   -0.216135
     22          6           0       -2.457203    1.101572   -1.409985
     23          6           0       -1.733433    2.428321   -1.178276
     24          1           0       -4.049390    1.467435   -0.003594
     25          1           0       -2.675654    0.599028    0.674523
     26          1           0       -3.096886    1.179651   -2.298425
     27          1           0       -1.724049    0.312226   -1.619830
     28          1           0       -1.072216    2.359652   -0.308404
     29          1           0       -2.452853    3.232006   -0.990855
     30          1           0       -1.126697    2.711210   -2.044131
     31          6           0       -4.044003   -0.645186   -0.432619
     32          6           0       -4.900956   -1.067488    0.761231
     33          6           0       -5.624726   -2.394237    0.529523
     34          1           0       -4.682505   -0.564943   -1.323277
     35          1           0       -3.308769   -1.433350   -0.645160
     36          1           0       -5.634109   -0.278142    0.971075
     37          1           0       -4.261272   -1.145567    1.649671
     38          1           0       -4.905306   -3.197921    0.342101
     39          1           0       -6.285943   -2.325568   -0.340349
     40          1           0       -6.231463   -2.677126    1.395377
 ---------------------------------------------------------------------

 SCF Done:  E(RHF) =  -470.733173771     A.U. after   11 cycles
 E2 =    -0.1582489200D+01 EUMP2 =    -0.47231566297136D+03

 The electronic state is 1-A.
 Alpha  occ. eigenvalues --  -11.21642 -11.21618 -11.21604 -11.21598 -11.21429
 Alpha  occ. eigenvalues --  -11.21406 -11.21369 -11.21347 -11.21085 -11.21083
 Alpha  occ. eigenvalues --  -11.21074 -11.21010  -1.08457  -1.08427  -1.03569
 Alpha  occ. eigenvalues --   -1.03512  -0.96037  -0.95945  -0.87072  -0.86945
 Alpha  occ. eigenvalues --   -0.79661  -0.79549  -0.78270  -0.78238  -0.65133
 Alpha  occ. eigenvalues --   -0.65022  -0.61114  -0.60788  -0.59387  -0.59328
 Alpha  occ. eigenvalues --   -0.57620  -0.57583  -0.55539  -0.55045  -0.52721
 Alpha  occ. eigenvalues --   -0.52672  -0.52464  -0.52341  -0.50185  -0.49670
 Alpha  occ. eigenvalues --   -0.47969  -0.47862  -0.46771  -0.46470  -0.45827
 Alpha  occ. eigenvalues --   -0.45767  -0.45742  -0.45662  -0.43810  -0.43781
 Alpha virt. eigenvalues --    0.21364   0.23186   0.23612   0.25175   0.26368
 Alpha virt. eigenvalues --    0.26814   0.26971   0.27390   0.27847   0.29038
 Alpha virt. eigenvalues --    0.30963   0.31438   0.31664   0.31810   0.32014

 Mulliken charges:
               1
     1  C   -0.298303
     2  C   -0.299693
     3  C   -0.475718
     4  H    0.149690
     5  H    0.149346
     6  H    0.152015
     7  H    0.152016
     8  H    0.155153
     9  H    0.155197
    10  H    0.160339
    11  C   -0.298576
    12  C   -0.299752
    13  C   -0.481063
    14  H    0.149733
    15  H    0.150125
    16  H    0.152184
    17  H    0.151247
    18  H    0.160928
    19  H    0.155811
    20  H    0.159703
    21  C   -0.298499
    22  C   -0.299046
    23  C   -0.483355
    24  H    0.149776
    25  H    0.149634
    26  H    0.151844
    27  H    0.151044
    28  H    0.164030
    29  H    0.155230
    30  H    0.159084
    31  C   -0.298256
    32  C   -0.299669
    33  C   -0.475700
    34  H    0.149561
    35  H    0.149413
    36  H    0.151988
    37  H    0.151941
    38  H    0.155136
    39  H    0.155185
    40  H    0.160280
 Sum of Mulliken charges =  -0.00000

 Dipole moment (field-independent basis, Debye):
    X=              0.0195    Y=              0.0146    Z=              0.0120  Tot=              0.0272
 Quadrupole moment (field-independent basis, Debye-Ang):
   XX=            -84.3622   YY=            -86.2446   ZZ=            -84.1372
   XY=             -0.2441   XZ=              0.8629   YZ=             -0.1508

 Normal termination of Gaussian 16 at Thu May  6 03:59:17 2021.
