 Gaussian 16, Revision A.03,
 Gaussian 16:  EM64L-G16RevA.03 25-Dec-2016

 -------------
 #p 6-31g* mp2
 -------------

 ------------------------------------------------------
 Input file generated by CHIRIPA (05-May-2021 14:57:24)
 ------------------------------------------------------
 Symbolic Z-matrix:
 Charge =  0 Multiplicity = 1

                         Standard orientation:
 ---------------------------------------------------------------------
 Center     Atomic      Atomic             Coordinates (Angstroms)
 Number     Number       Type             X           Y           Z
 ---------------------------------------------------------------------
      1          6           0        0.687582   -1.896420    0.069012
      2          6           0        1.108399   -1.292878   -1.120598
      3          6           0        2.235989   -0.466556   -1.137328
      4          6           0        2.922206   -0.264657    0.059181
      5          6           0        2.527856   -0.851808    1.260443
      6          6           0        1.397402   -1.674350    1.253647
      7          1           0       -0.189469   -2.536859    0.072870
      8          1           0        0.559085   -1.463550   -2.042102
      9          1           0        2.583761    0.013192   -2.044144
     10          1           0        3.095901   -0.662810    2.163230
     11          1           0        1.072895   -2.141758    2.178996
     12          7           0        4.117451    0.608132    0.053922
     13          8           0        4.704734    0.770080    1.121400
     14          8           0        4.444369    1.113751   -1.017578
     15          6           0       -3.303089   -2.044165   -0.188127
     16          6           0       -3.742387   -1.277179    0.895971
     17          6           0       -3.428137    0.082665    0.977329
     18          6           0       -2.669348    0.645618   -0.047665
     19          6           0       -2.217008   -0.092089   -1.140581
     20          6           0       -2.543141   -1.450219   -1.201157
     21          1           0       -3.551821   -3.099858   -0.243257
     22          1           0       -4.332723   -1.735780    1.684155
     23          1           0       -3.755295    0.699787    1.805307
     24          1           0       -1.630125    0.393144   -1.910993
     25          1           0       -2.200621   -2.043424   -2.044268
     26          7           0       -2.330376    2.084317    0.027465
     27          8           0       -1.660538    2.556575   -0.888463
     28          8           0       -2.740948    2.712468    1.000858
 ---------------------------------------------------------------------

 SCF Done:  E(RHF) =  -868.334453619     A.U. after   16 cycles
 E2 =    -0.2604128223D+01 EUMP2 =    -0.87093858184187D+03

 The electronic state is 1-A.
 Alpha  occ. eigenvalues --  -20.61325 -20.61318 -20.60649 -20.60640 -15.86390
 Alpha  occ. eigenvalues --  -15.85711 -11.32019 -11.31174 -11.28676 -11.28613
 Alpha  occ. eigenvalues --  -11.28479 -11.27832 -11.27804 -11.27770 -11.27678
 Alpha  occ. eigenvalues --  -11.27554 -11.26919 -11.26805  -1.60392  -1.59719
 Alpha  occ. eigenvalues --   -1.39939  -1.39271  -1.20263  -1.19398  -1.09611
 Alpha  occ. eigenvalues --   -1.08780  -1.05723  -1.04839  -0.96384  -0.95584
 Alpha  occ. eigenvalues --   -0.87095  -0.86257  -0.83220  -0.82432  -0.78220
 Alpha  occ. eigenvalues --   -0.77445  -0.72605  -0.71932  -0.71718  -0.71362
 Alpha  occ. eigenvalues --   -0.71040  -0.70543  -0.65922  -0.65737  -0.65062
 Alpha  occ. eigenvalues --   -0.64928  -0.63048  -0.62167  -0.56201  -0.55524
 Alpha  occ. eigenvalues --   -0.54048  -0.53801  -0.52976  -0.52935  -0.49383
 Alpha  occ. eigenvalues --   -0.49341  -0.48700  -0.48674  -0.45286  -0.44656
 Alpha  occ. eigenvalues --   -0.38274  -0.38025  -0.36824  -0.36203
 Alpha virt. eigenvalues --    0.04289   0.05131   0.10094   0.11303   0.15699
 Alpha virt. eigenvalues --    0.16503   0.19091   0.22088   0.24917   0.26873
 Alpha virt. eigenvalues --    0.28421   0.29033   0.29755   0.31201   0.32075

 Mulliken charges:
               1
     1  C   -0.163347
     2  C   -0.221970
     3  C   -0.167367
     4  C    0.158794
     5  C   -0.168586
     6  C   -0.221209
     7  H    0.222473
     8  H    0.211513
     9  H    0.276959
    10  H    0.276571
    11  H    0.221900
    12  N    0.488569
    13  O   -0.460096
    14  O   -0.459115
    15  C   -0.176532
    16  C   -0.219127
    17  C   -0.169772
    18  C    0.160130
    19  C   -0.160709
    20  C   -0.230217
    21  H    0.226827
    22  H    0.226149
    23  H    0.279027
    24  H    0.275521
    25  H    0.220216
    26  N    0.488239
    27  O   -0.457128
    28  O   -0.457712
 Sum of Mulliken charges =  -0.00000

 Dipole moment (field-independent basis, Debye):
    X=             -5.4748    Y=             -7.8483    Z=             -0.1015  Tot=              9.5697
 Quadrupole moment (field-independent basis, Debye-Ang):
   XX=           -122.5068   YY=           -111.2324   ZZ=            -96.5324
   XY=              4.4890   XZ=             -1.4696   YZ=             -0.8782

 Normal termination of Gaussian 16 at Wed May  5 19:29:15 2021.
