 Gaussian 16, Revision A.03,
 Gaussian 16:  EM64L-G16RevA.03 25-Dec-2016

 -------------
 #p 6-31g* mp2
 -------------

 ------------------------------------------------------
 Input file generated by CHIRIPA (05-May-2021 14:55:21)
 ------------------------------------------------------
 Symbolic Z-matrix:
 Charge =  0 Multiplicity = 1

                         Standard orientation:
 ---------------------------------------------------------------------
 Center     Atomic      Atomic             Coordinates (Angstroms)
 Number     Number       Type             X           Y           Z
 ---------------------------------------------------------------------
      1          6           0       -0.698389   -0.769628    0.949093
      2          6           0       -0.876572   -0.466360   -0.404717
      3          6           0       -2.154420   -0.217579   -0.914385
      4          6           0       -3.236676   -0.280749   -0.038016
      5          6           0       -3.091528   -0.580318    1.315675
      6          6           0       -1.804485   -0.825540    1.803462
      7          1           0        0.297845   -0.961504    1.336517
      8          1           0       -0.019392   -0.422248   -1.070556
      9          1           0       -2.320935    0.019479   -1.958173
     10          1           0       -3.965279   -0.617020    1.954916
     11          1           0       -1.669100   -1.060823    2.855297
     12          7           0       -4.594343   -0.019259   -0.565997
     13          8           0       -5.531541   -0.081051    0.226769
     14          8           0       -4.695577    0.242537   -1.762597
     15          6           0        3.758516    1.171174   -0.098818
     16          6           0        2.376371    1.626634    0.370452
     17          6           0        2.195518    3.142875    0.292346
     18          1           0        4.527086    1.665446    0.511052
     19          1           0        3.916137    1.507380   -1.132992
     20          1           0        2.220851    1.288474    1.402962
     21          1           0        1.610997    1.131073   -0.240480
     22          1           0        2.324104    3.493674   -0.736735
     23          1           0        2.937423    3.651969    0.916045
     24          1           0        1.200557    3.446559    0.632474
     25          6           0        3.954548   -0.342130   -0.026625
     26          6           0        5.336694   -0.797590   -0.495895
     27          6           0        5.517547   -2.313831   -0.417789
     28          1           0        3.796928   -0.678337    1.007549
     29          1           0        3.185979   -0.836402   -0.636495
     30          1           0        6.102068   -0.302029    0.115037
     31          1           0        5.492214   -0.459430   -1.528405
     32          1           0        4.775642   -2.822926   -1.041488
     33          1           0        5.388962   -2.664630    0.611292
     34          1           0        6.512508   -2.617516   -0.757917
 ---------------------------------------------------------------------

 SCF Done:  E(RHF) =  -669.535021655     A.U. after   15 cycles
 E2 =    -0.2092365425D+01 EUMP2 =    -0.67162738707964D+03

 The electronic state is 1-A.
 Alpha  occ. eigenvalues --  -20.60736 -20.60731 -15.85790 -11.31147 -11.27727
 Alpha  occ. eigenvalues --  -11.27723 -11.27428 -11.26721 -11.26709 -11.22576
 Alpha  occ. eigenvalues --  -11.22449 -11.22378 -11.22260 -11.21778 -11.21772
 Alpha  occ. eigenvalues --   -1.59812  -1.39366  -1.19324  -1.09356  -1.08711
 Alpha  occ. eigenvalues --   -1.04735  -1.04357  -0.96786  -0.95548  -0.87802
 Alpha  occ. eigenvalues --   -0.86134  -0.82384  -0.80452  -0.79210  -0.77436
 Alpha  occ. eigenvalues --   -0.72009  -0.71136  -0.70407  -0.66023  -0.64972
 Alpha  occ. eigenvalues --   -0.64738  -0.62141  -0.61703  -0.60151  -0.58410
 Alpha  occ. eigenvalues --   -0.56072  -0.55207  -0.53457  -0.53217  -0.53047
 Alpha  occ. eigenvalues --   -0.52835  -0.50726  -0.48796  -0.48765  -0.48716
 Alpha  occ. eigenvalues --   -0.47476  -0.46707  -0.46647  -0.44774  -0.44633
 Alpha  occ. eigenvalues --   -0.37262  -0.36324
 Alpha virt. eigenvalues --    0.05098   0.11193   0.16558   0.19265   0.22671
 Alpha virt. eigenvalues --    0.23693   0.24255   0.25256   0.27186   0.28067
 Alpha virt. eigenvalues --    0.29924   0.30337   0.31153   0.31364   0.31669

 Mulliken charges:
               1
     1  C   -0.169025
     2  C   -0.219792
     3  C   -0.172072
     4  C    0.158192
     5  C   -0.170661
     6  C   -0.219628
     7  H    0.229049
     8  H    0.223817
     9  H    0.275392
    10  H    0.275459
    11  H    0.223193
    12  N    0.488111
    13  O   -0.460580
    14  O   -0.460602
    15  C   -0.298327
    16  C   -0.304511
    17  C   -0.476115
    18  H    0.153330
    19  H    0.152072
    20  H    0.148535
    21  H    0.148561
    22  H    0.157196
    23  H    0.157517
    24  H    0.164380
    25  C   -0.299329
    26  C   -0.299989
    27  C   -0.476371
    28  H    0.147049
    29  H    0.142548
    30  H    0.154791
    31  H    0.154298
    32  H    0.154946
    33  H    0.155055
    34  H    0.163509
 Sum of Mulliken charges =  -0.00000

 Dipole moment (field-independent basis, Debye):
    X=              4.9675    Y=             -0.8374    Z=              1.8675  Tot=              5.3726
 Quadrupole moment (field-independent basis, Debye-Ang):
   XX=           -124.7682   YY=            -95.7584   ZZ=            -89.9219
   XY=              2.4371   XZ=             -8.0178   YZ=             -1.1912

 Normal termination of Gaussian 16 at Thu May  6 03:02:20 2021.
