 Gaussian 16, Revision A.03,
 Gaussian 16:  EM64L-G16RevA.03 25-Dec-2016

 -------------
 #p 6-31g* mp2
 -------------

 ------------------------------------------------------
 Input file generated by CHIRIPA (05-May-2021 14:51:12)
 ------------------------------------------------------
 Symbolic Z-matrix:
 Charge =  0 Multiplicity = 1

                         Standard orientation:
 ---------------------------------------------------------------------
 Center     Atomic      Atomic             Coordinates (Angstroms)
 Number     Number       Type             X           Y           Z
 ---------------------------------------------------------------------
      1          6           0        2.353759   -0.785092   -0.405936
      2          6           0        3.469253   -0.112300    0.394694
      3          6           0        4.298220    0.858369   -0.446977
      4          1           0        2.794373   -1.320479   -1.258089
      5          1           0        1.697344   -0.011696   -0.828279
      6          1           0        4.122573   -0.886785    0.816549
      7          1           0        3.025950    0.421388    1.245149
      8          1           0        3.664366    1.651735   -0.856123
      9          1           0        4.767221    0.336129   -1.287158
     10          1           0        5.089887    1.328034    0.145085
     11          6           0        1.516265   -1.758340    0.421784
     12          6           0        0.400770   -2.431132   -0.378846
     13          6           0       -0.428196   -3.401801    0.462825
     14          1           0        2.172679   -2.531736    0.844127
     15          1           0        1.075650   -1.222953    1.273937
     16          1           0        0.844074   -2.964820   -1.229301
     17          1           0       -0.252550   -1.656647   -0.800701
     18          1           0       -0.897198   -2.879561    1.303006
     19          1           0        0.205657   -4.195167    0.871972
     20          1           0       -1.219864   -3.871466   -0.129236
     21          6           0       -2.663696    1.054684    0.065206
     22          6           0       -2.905012   -0.402453   -0.330400
     23          6           0       -4.367528   -0.821763   -0.178685
     24          1           0       -2.983141    1.203179    1.105807
     25          1           0       -3.298510    1.704985   -0.552462
     26          1           0       -2.268910   -1.049722    0.286880
     27          1           0       -2.584777   -0.547543   -1.370119
     28          1           0       -5.013624   -0.200387   -0.807218
     29          1           0       -4.695963   -0.705419    0.859195
     30          1           0       -4.517484   -1.866911   -0.466848
     31          6           0       -1.206327    1.488748   -0.081055
     32          6           0       -0.965012    2.945886    0.314552
     33          6           0        0.497505    3.365195    0.162837
     34          1           0       -0.571513    0.838448    0.536614
     35          1           0       -0.886882    1.340253   -1.121655
     36          1           0       -1.285247    3.090975    1.354270
     37          1           0       -1.601113    3.593154   -0.302728
     38          1           0        0.825940    3.248851   -0.875043
     39          1           0        1.143601    2.743819    0.791370
     40          1           0        0.647461    4.410343    0.451000
 ---------------------------------------------------------------------

 SCF Done:  E(RHF) =  -470.731723297     A.U. after   11 cycles
 E2 =    -0.1586662997D+01 EUMP2 =    -0.47231838629472D+03

 The electronic state is 1-A.
 Alpha  occ. eigenvalues --  -11.21704 -11.21596 -11.21547 -11.21502 -11.21436
 Alpha  occ. eigenvalues --  -11.21429 -11.21328 -11.21251 -11.21181 -11.21090
 Alpha  occ. eigenvalues --  -11.21050 -11.20993  -1.08567  -1.08319  -1.03647
 Alpha  occ. eigenvalues --   -1.03428  -0.96077  -0.95906  -0.87075  -0.86938
 Alpha  occ. eigenvalues --   -0.79734  -0.79488  -0.78486  -0.78065  -0.65381
 Alpha  occ. eigenvalues --   -0.64790  -0.61237  -0.60733  -0.59446  -0.59221
 Alpha  occ. eigenvalues --   -0.57734  -0.57487  -0.55466  -0.55112  -0.52748
 Alpha  occ. eigenvalues --   -0.52616  -0.52497  -0.52296  -0.50089  -0.49778
 Alpha  occ. eigenvalues --   -0.48191  -0.47677  -0.46712  -0.46581  -0.46299
 Alpha  occ. eigenvalues --   -0.45923  -0.45547  -0.45051  -0.43856  -0.43704
 Alpha virt. eigenvalues --    0.19617   0.21658   0.23697   0.24413   0.25007
 Alpha virt. eigenvalues --    0.26081   0.26623   0.28353   0.28669   0.29398
 Alpha virt. eigenvalues --    0.30826   0.31490   0.31666   0.31847   0.32481

 Mulliken charges:
               1
     1  C   -0.303193
     2  C   -0.299754
     3  C   -0.477365
     4  H    0.149207
     5  H    0.155452
     6  H    0.151695
     7  H    0.151111
     8  H    0.157603
     9  H    0.154728
    10  H    0.159886
    11  C   -0.298474
    12  C   -0.308920
    13  C   -0.477215
    14  H    0.149558
    15  H    0.147726
    16  H    0.151536
    17  H    0.162755
    18  H    0.153509
    19  H    0.155926
    20  H    0.160559
    21  C   -0.297276
    22  C   -0.308973
    23  C   -0.474790
    24  H    0.149455
    25  H    0.149672
    26  H    0.162840
    27  H    0.151868
    28  H    0.154992
    29  H    0.154966
    30  H    0.160543
    31  C   -0.305277
    32  C   -0.299605
    33  C   -0.479147
    34  H    0.155007
    35  H    0.150246
    36  H    0.152247
    37  H    0.152538
    38  H    0.155518
    39  H    0.157666
    40  H    0.161184
 Sum of Mulliken charges =  -0.00000

 Dipole moment (field-independent basis, Debye):
    X=             -0.0608    Y=              0.0413    Z=             -0.0193  Tot=              0.0759
 Quadrupole moment (field-independent basis, Debye-Ang):
   XX=            -85.9914   YY=            -84.8659   ZZ=            -84.0301
   XY=             -1.4323   XZ=              0.3689   YZ=              0.3204

 Normal termination of Gaussian 16 at Thu May  6 07:05:52 2021.
