 Gaussian 16, Revision A.03,
 Gaussian 16:  EM64L-G16RevA.03 25-Dec-2016

 -------------
 #p 6-31g* mp2
 -------------

 ------------------------------------------------------
 Input file generated by CHIRIPA (05-May-2021 14:55:20)
 ------------------------------------------------------
 Symbolic Z-matrix:
 Charge =  0 Multiplicity = 1

                         Standard orientation:
 ---------------------------------------------------------------------
 Center     Atomic      Atomic             Coordinates (Angstroms)
 Number     Number       Type             X           Y           Z
 ---------------------------------------------------------------------
      1          6           0       -5.210209   -1.927641    0.223569
      2          6           0       -5.701104   -0.664028    0.568280
      3          6           0       -4.894981    0.470720    0.437656
      4          6           0       -3.597054    0.304607   -0.043053
      5          6           0       -3.079178   -0.940922   -0.394835
      6          6           0       -3.903117   -2.061818   -0.256042
      7          1           0       -5.843345   -2.803759    0.328214
      8          1           0       -6.715806   -0.556824    0.941017
      9          1           0       -5.249616    1.460825    0.697162
     10          1           0       -2.063423   -1.016185   -0.763611
     11          1           0       -3.519220   -3.041914   -0.524520
     12          7           0       -2.734216    1.498581   -0.185662
     13          8           0       -1.594329    1.325555   -0.611521
     14          8           0       -3.214150    2.584837    0.131119
     15          6           0        5.446765   -0.516390   -0.038130
     16          6           0        6.666145    0.325014    0.340206
     17          6           0        7.980071   -0.445773    0.208759
     18          1           0        5.414257   -1.410658    0.599188
     19          1           0        5.562112   -0.872777   -1.071125
     20          1           0        6.547884    0.680855    1.371714
     21          1           0        6.695647    1.217479   -0.297957
     22          1           0        8.124775   -0.787639   -0.821187
     23          1           0        7.976172   -1.327313    0.857971
     24          1           0        8.838694    0.174552    0.484116
     25          6           0        4.125739    0.240356    0.088176
     26          6           0        2.906360   -0.601048   -0.290161
     27          6           0        1.592434    0.169739   -0.158714
     28          1           0        4.010392    0.596742    1.121171
     29          1           0        4.158248    1.134623   -0.549142
     30          1           0        2.876858   -1.493514    0.348002
     31          1           0        3.024621   -0.956888   -1.321668
     32          1           0        1.596332    1.051278   -0.807925
     33          1           0        1.447729    0.511605    0.871233
     34          1           0        0.733810   -0.450587   -0.434071
 ---------------------------------------------------------------------

 SCF Done:  E(RHF) =  -669.535398813     A.U. after   15 cycles
 E2 =    -0.2091224362D+01 EUMP2 =    -0.67162662317477D+03

 The electronic state is 1-A.
 Alpha  occ. eigenvalues --  -20.60802 -20.60788 -15.85836 -11.31217 -11.27791
 Alpha  occ. eigenvalues --  -11.27784 -11.27532 -11.26807 -11.26797 -11.21237
 Alpha  occ. eigenvalues --  -11.20963 -11.20925 -11.20801 -11.20784 -11.20013
 Alpha  occ. eigenvalues --   -1.59867  -1.39421  -1.19390  -1.08784  -1.07919
 Alpha  occ. eigenvalues --   -1.04796  -1.02964  -0.95631  -0.95368  -0.86383
 Alpha  occ. eigenvalues --   -0.86193  -0.82449  -0.79033  -0.77736  -0.77476
 Alpha  occ. eigenvalues --   -0.72057  -0.71185  -0.70500  -0.65045  -0.64802
 Alpha  occ. eigenvalues --   -0.64556  -0.62150  -0.60363  -0.58787  -0.57011
 Alpha  occ. eigenvalues --   -0.55298  -0.54662  -0.53124  -0.52898  -0.52057
 Alpha  occ. eigenvalues --   -0.51796  -0.49313  -0.48822  -0.48804  -0.47332
 Alpha  occ. eigenvalues --   -0.46082  -0.45261  -0.45196  -0.44813  -0.43191
 Alpha  occ. eigenvalues --   -0.37371  -0.36399
 Alpha virt. eigenvalues --    0.05026   0.11248   0.16512   0.20915   0.23296
 Alpha virt. eigenvalues --    0.24249   0.26294   0.27140   0.27669   0.27999
 Alpha virt. eigenvalues --    0.29139   0.30164   0.31557   0.32000   0.32292

 Mulliken charges:
               1
     1  C   -0.170540
     2  C   -0.218714
     3  C   -0.170519
     4  C    0.156944
     5  C   -0.171935
     6  C   -0.219737
     7  H    0.225692
     8  H    0.223531
     9  H    0.275701
    10  H    0.279267
    11  H    0.223784
    12  N    0.491038
    13  O   -0.461741
    14  O   -0.460402
    15  C   -0.297514
    16  C   -0.299334
    17  C   -0.475388
    18  H    0.147666
    19  H    0.148302
    20  H    0.151730
    21  H    0.152380
    22  H    0.154532
    23  H    0.154132
    24  H    0.159498
    25  C   -0.297887
    26  C   -0.302566
    27  C   -0.466725
    28  H    0.149315
    29  H    0.151145
    30  H    0.145853
    31  H    0.148277
    32  H    0.165217
    33  H    0.154170
    34  H    0.154828
 Sum of Mulliken charges =  -0.00000

 Dipole moment (field-independent basis, Debye):
    X=             -3.2223    Y=             -4.0765    Z=              0.4827  Tot=              5.2186
 Quadrupole moment (field-independent basis, Debye-Ang):
   XX=            -72.2590   YY=            -96.2061   ZZ=            -94.1284
   XY=             12.7856   XZ=             -3.3123   YZ=              1.0991

 Normal termination of Gaussian 16 at Wed May  5 23:47:12 2021.
