 Gaussian 16, Revision A.03,
 Gaussian 16:  EM64L-G16RevA.03 25-Dec-2016

 -------------
 #p 6-31g* mp2
 -------------

 ------------------------------------------------------
 Input file generated by CHIRIPA (05-May-2021 14:55:19)
 ------------------------------------------------------
 Symbolic Z-matrix:
 Charge =  0 Multiplicity = 1

                         Standard orientation:
 ---------------------------------------------------------------------
 Center     Atomic      Atomic             Coordinates (Angstroms)
 Number     Number       Type             X           Y           Z
 ---------------------------------------------------------------------
      1          6           0       -4.994390   -0.426154   -0.929818
      2          6           0       -4.152804   -1.543395   -0.924689
      3          6           0       -2.915033   -1.496955   -0.276372
      4          6           0       -2.548897   -0.311759    0.359665
      5          6           0       -3.365295    0.818121    0.372165
      6          6           0       -4.598647    0.748967   -0.282515
      7          1           0       -5.954204   -0.471052   -1.435917
      8          1           0       -4.457539   -2.457340   -1.426570
      9          1           0       -2.244008   -2.347110   -0.256863
     10          1           0       -3.034083    1.715159    0.881125
     11          1           0       -5.250191    1.618179   -0.284870
     12          7           0       -1.240863   -0.250571    1.049378
     13          8           0       -0.941461    0.805432    1.602416
     14          8           0       -0.539796   -1.259775    1.023876
     15          6           0        2.987290    0.748965   -0.722292
     16          6           0        2.225420    1.820621    0.058154
     17          6           0        1.125856    2.485724   -0.770331
     18          1           0        3.426960    1.202149   -1.621323
     19          1           0        2.277991   -0.014005   -1.071815
     20          1           0        2.936141    2.580622    0.407282
     21          1           0        1.787672    1.364874    0.955532
     22          1           0        0.394697    1.743534   -1.106727
     23          1           0        1.549692    2.966189   -1.658092
     24          1           0        0.594013    3.248459   -0.193063
     25          6           0        4.089772    0.074953    0.092551
     26          6           0        4.851640   -0.996703   -0.687894
     27          6           0        5.951205   -1.661806    0.140592
     28          1           0        4.799070    0.837924    0.442075
     29          1           0        3.650101   -0.378231    0.991584
     30          1           0        5.289389   -0.540956   -1.585272
     31          1           0        4.140919   -1.756704   -1.037022
     32          1           0        5.527369   -2.142271    1.028352
     33          1           0        6.682363   -0.919615    0.476987
     34          1           0        6.483048   -2.424541   -0.436677
 ---------------------------------------------------------------------

 SCF Done:  E(RHF) =  -669.536590607     A.U. after   15 cycles
 E2 =    -0.2092260748D+01 EUMP2 =    -0.67162885135460D+03

 The electronic state is 1-A.
 Alpha  occ. eigenvalues --  -20.61083 -20.61052 -15.86069 -11.31346 -11.27901
 Alpha  occ. eigenvalues --  -11.27893 -11.27628 -11.26893 -11.26882 -11.20697
 Alpha  occ. eigenvalues --  -11.20296 -11.20254 -11.20160 -11.20068 -11.19983
 Alpha  occ. eigenvalues --   -1.60112  -1.39669  -1.19505  -1.08921  -1.07270
 Alpha  occ. eigenvalues --   -1.04892  -1.02423  -0.95772  -0.94924  -0.86295
 Alpha  occ. eigenvalues --   -0.85955  -0.82605  -0.78501  -0.77665  -0.77063
 Alpha  occ. eigenvalues --   -0.72294  -0.71435  -0.70613  -0.65162  -0.64897
 Alpha  occ. eigenvalues --   -0.63874  -0.62239  -0.59803  -0.58299  -0.56521
 Alpha  occ. eigenvalues --   -0.55400  -0.54230  -0.53224  -0.52983  -0.51650
 Alpha  occ. eigenvalues --   -0.51362  -0.49155  -0.49053  -0.48832  -0.46822
 Alpha  occ. eigenvalues --   -0.45486  -0.45077  -0.44632  -0.44411  -0.42675
 Alpha  occ. eigenvalues --   -0.37480  -0.36488
 Alpha virt. eigenvalues --    0.04830   0.11160   0.16319   0.21278   0.23969
 Alpha virt. eigenvalues --    0.25186   0.27213   0.27675   0.28202   0.28744
 Alpha virt. eigenvalues --    0.28886   0.30945   0.32183   0.32248   0.32891

 Mulliken charges:
               1
     1  C   -0.170313
     2  C   -0.218605
     3  C   -0.170788
     4  C    0.157759
     5  C   -0.170007
     6  C   -0.218584
     7  H    0.226251
     8  H    0.224006
     9  H    0.275768
    10  H    0.276356
    11  H    0.224147
    12  N    0.488609
    13  O   -0.457414
    14  O   -0.460287
    15  C   -0.296804
    16  C   -0.308607
    17  C   -0.467770
    18  H    0.142214
    19  H    0.150802
    20  H    0.144625
    21  H    0.180165
    22  H    0.145174
    23  H    0.146662
    24  H    0.159241
    25  C   -0.299028
    26  C   -0.298845
    27  C   -0.475326
    28  H    0.145671
    29  H    0.158121
    30  H    0.148195
    31  H    0.152037
    32  H    0.156542
    33  H    0.153350
    34  H    0.156685
 Sum of Mulliken charges =  -0.00000

 Dipole moment (field-independent basis, Debye):
    X=             -4.9263    Y=             -0.3152    Z=             -2.1987  Tot=              5.4039
 Quadrupole moment (field-independent basis, Debye-Ang):
   XX=            -72.8139   YY=            -90.4694   ZZ=            -97.2263
   XY=              1.7723   XZ=              4.4025   YZ=              2.5497

 Normal termination of Gaussian 16 at Thu May  6 01:20:00 2021.
