 Gaussian 16, Revision A.03,
 Gaussian 16:  EM64L-G16RevA.03 25-Dec-2016

 -------------
 #p 6-31g* mp2
 -------------

 ------------------------------------------------------
 Input file generated by CHIRIPA (05-May-2021 14:53:16)
 ------------------------------------------------------
 Symbolic Z-matrix:
 Charge =  0 Multiplicity = 1

                         Standard orientation:
 ---------------------------------------------------------------------
 Center     Atomic      Atomic             Coordinates (Angstroms)
 Number     Number       Type             X           Y           Z
 ---------------------------------------------------------------------
      1          6           0        3.633559   -0.220442   -0.031854
      2          6           0        4.611819   -0.621285   -1.136534
      3          6           0        5.219501   -2.006560   -0.913981
      4          1           0        4.153555   -0.243176    0.935634
      5          1           0        2.831077   -0.968747    0.026941
      6          1           0        5.411470    0.128285   -1.194155
      7          1           0        4.089485   -0.597408   -2.101527
      8          1           0        4.435508   -2.769876   -0.877875
      9          1           0        5.765004   -2.040060    0.034653
     10          1           0        5.915754   -2.272984   -1.715299
     11          6           0        3.017749    1.161971   -0.240275
     12          6           0        2.039488    1.562815    0.864404
     13          6           0        1.431807    2.948090    0.641851
     14          1           0        3.820231    1.910277   -0.299070
     15          1           0        2.497753    1.184706   -1.207763
     16          1           0        2.561823    1.538937    1.829398
     17          1           0        1.239838    0.813244    0.922025
     18          1           0        0.886304    2.981590   -0.306782
     19          1           0        2.215800    3.711406    0.605746
     20          1           0        0.735554    3.214513    1.443169
     21          6           0       -3.923249    0.705136   -1.753517
     22          6           0       -3.197045    1.501465   -0.861885
     23          6           0       -2.459284    0.917816    0.172334
     24          6           0       -2.470063   -0.471511    0.286101
     25          6           0       -3.183539   -1.291864   -0.586403
     26          6           0       -3.914194   -0.686534   -1.613178
     27          1           0       -4.493600    1.166949   -2.554033
     28          1           0       -3.202245    2.582511   -0.968465
     29          1           0       -1.888205    1.510528    0.876593
     30          1           0       -3.159059   -2.366801   -0.454765
     31          1           0       -4.477244   -1.307466   -2.304165
     32          7           0       -1.692790   -1.100870    1.377042
     33          8           0       -1.718579   -2.327151    1.455831
     34          8           0       -1.072492   -0.355964    2.132677
 ---------------------------------------------------------------------

 SCF Done:  E(RHF) =  -669.536271739     A.U. after   15 cycles
 E2 =    -0.2091706124D+01 EUMP2 =    -0.67162797786351D+03

 The electronic state is 1-A.
 Alpha  occ. eigenvalues --  -20.60959 -20.60954 -15.85973 -11.31278 -11.27845
 Alpha  occ. eigenvalues --  -11.27825 -11.27577 -11.26849 -11.26833 -11.21216
 Alpha  occ. eigenvalues --  -11.20976 -11.20932 -11.20886 -11.20852 -11.20684
 Alpha  occ. eigenvalues --   -1.60014  -1.39570  -1.19448  -1.08857  -1.07968
 Alpha  occ. eigenvalues --   -1.04839  -1.03117  -0.95705  -0.95610  -0.86633
 Alpha  occ. eigenvalues --   -0.86240  -0.82533  -0.79156  -0.77768  -0.77570
 Alpha  occ. eigenvalues --   -0.72198  -0.71326  -0.70554  -0.65104  -0.64848
 Alpha  occ. eigenvalues --   -0.64598  -0.62190  -0.60517  -0.58967  -0.57199
 Alpha  occ. eigenvalues --   -0.55349  -0.54922  -0.53173  -0.52927  -0.52321
 Alpha  occ. eigenvalues --   -0.52028  -0.49567  -0.48970  -0.48955  -0.47490
 Alpha  occ. eigenvalues --   -0.46226  -0.45413  -0.45292  -0.44688  -0.43368
 Alpha  occ. eigenvalues --   -0.37429  -0.36438
 Alpha virt. eigenvalues --    0.04898   0.11177   0.16370   0.20822   0.23165
 Alpha virt. eigenvalues --    0.24138   0.26864   0.27228   0.27615   0.28104
 Alpha virt. eigenvalues --    0.29314   0.30483   0.31634   0.31776   0.32361

 Mulliken charges:
               1
     1  C   -0.298425
     2  C   -0.299194
     3  C   -0.475591
     4  H    0.151293
     5  H    0.153728
     6  H    0.150333
     7  H    0.149484
     8  H    0.156641
     9  H    0.155806
    10  H    0.158151
    11  C   -0.298343
    12  C   -0.305762
    13  C   -0.477980
    14  H    0.146740
    15  H    0.145133
    16  H    0.154665
    17  H    0.167798
    18  H    0.147100
    19  H    0.154873
    20  H    0.158424
    21  C   -0.170521
    22  C   -0.219370
    23  C   -0.172748
    24  C    0.157717
    25  C   -0.170849
    26  C   -0.218664
    27  H    0.225999
    28  H    0.224453
    29  H    0.279395
    30  H    0.275655
    31  H    0.223746
    32  N    0.487431
    33  O   -0.458718
    34  O   -0.458401
 Sum of Mulliken charges =  -0.00000

 Dipole moment (field-independent basis, Debye):
    X=             -2.8578    Y=              2.0848    Z=             -3.7314  Tot=              5.1417
 Quadrupole moment (field-independent basis, Debye-Ang):
   XX=            -81.3273   YY=            -94.0333   ZZ=            -96.8364
   XY=             -2.0399   XZ=             10.2570   YZ=              4.2959

 Normal termination of Gaussian 16 at Wed May  5 21:57:52 2021.
