 Gaussian 16, Revision A.03,
 Gaussian 16:  EM64L-G16RevA.03 25-Dec-2016

 -------------
 #p 6-31g* mp2
 -------------

 ------------------------------------------------------
 Input file generated by CHIRIPA (05-May-2021 14:57:23)
 ------------------------------------------------------
 Symbolic Z-matrix:
 Charge =  0 Multiplicity = 1

                         Standard orientation:
 ---------------------------------------------------------------------
 Center     Atomic      Atomic             Coordinates (Angstroms)
 Number     Number       Type             X           Y           Z
 ---------------------------------------------------------------------
      1          6           0        5.305611    0.859916    0.570409
      2          6           0        5.273948   -0.087304   -0.458324
      3          6           0        4.059660   -0.636709   -0.880471
      4          6           0        2.890865   -0.214249   -0.249016
      5          6           0        2.889735    0.727630    0.778676
      6          6           0        4.115502    1.263649    1.184543
      7          1           0        6.253358    1.281508    0.892019
      8          1           0        6.196636   -0.402717   -0.937080
      9          1           0        4.006315   -1.371656   -1.674464
     10          1           0        1.953445    1.022352    1.236844
     11          1           0        4.137070    1.999100    1.983724
     12          7           0        1.599277   -0.788793   -0.687307
     13          8           0        0.583505   -0.399975   -0.114886
     14          8           0        1.627158   -1.617060   -1.594959
     15          6           0       -3.366466    2.440392   -0.777484
     16          6           0       -2.551333    2.231055    0.339770
     17          6           0       -2.398402    0.949421    0.876961
     18          6           0       -3.078334   -0.104813    0.269036
     19          6           0       -3.897595    0.071703   -0.844941
     20          6           0       -4.035815    1.361949   -1.365238
     21          1           0       -3.479554    3.439341   -1.188225
     22          1           0       -2.030301    3.066714    0.798293
     23          1           0       -1.773638    0.759077    1.741170
     24          1           0       -4.404273   -0.781055   -1.280256
     25          1           0       -4.669518    1.521558   -2.232989
     26          7           0       -2.924220   -1.466180    0.828793
     27          8           0       -3.533973   -2.378303    0.274835
     28          8           0       -2.196590   -1.595318    1.810890
 ---------------------------------------------------------------------

 SCF Done:  E(RHF) =  -868.337441547     A.U. after   16 cycles
 E2 =    -0.2600686970D+01 EUMP2 =    -0.87093812851792D+03

 The electronic state is 1-A.
 Alpha  occ. eigenvalues --  -20.60773 -20.60757 -20.59500 -20.59470 -15.85812
 Alpha  occ. eigenvalues --  -15.84547 -11.31235 -11.29973 -11.27845 -11.27787
 Alpha  occ. eigenvalues --  -11.27557 -11.26854 -11.26817 -11.26634 -11.26624
 Alpha  occ. eigenvalues --  -11.26483 -11.25721 -11.25698  -1.59823  -1.58535
 Alpha  occ. eigenvalues --   -1.39381  -1.38097  -1.19409  -1.18197  -1.08792
 Alpha  occ. eigenvalues --   -1.07595  -1.04827  -1.03659  -0.95623  -0.94419
 Alpha  occ. eigenvalues --   -0.86221  -0.85061  -0.82462  -0.81283  -0.77505
 Alpha  occ. eigenvalues --   -0.76283  -0.72073  -0.71133  -0.70801  -0.70526
 Alpha  occ. eigenvalues --   -0.69786  -0.69387  -0.65068  -0.64834  -0.63897
 Alpha  occ. eigenvalues --   -0.63724  -0.62182  -0.61032  -0.55323  -0.54224
 Alpha  occ. eigenvalues --   -0.53144  -0.52926  -0.51927  -0.51803  -0.48815
 Alpha  occ. eigenvalues --   -0.48774  -0.47555  -0.47526  -0.44771  -0.43481
 Alpha  occ. eigenvalues --   -0.37386  -0.36431  -0.36179  -0.35221
 Alpha virt. eigenvalues --    0.05053   0.06321   0.11225   0.12420   0.16531
 Alpha virt. eigenvalues --    0.17747   0.21176   0.22274   0.26780   0.27675
 Alpha virt. eigenvalues --    0.28519   0.29274   0.30902   0.31703   0.32390

 Mulliken charges:
               1
     1  C   -0.170887
     2  C   -0.218367
     3  C   -0.170527
     4  C    0.159526
     5  C   -0.169095
     6  C   -0.218272
     7  H    0.225604
     8  H    0.223877
     9  H    0.276584
    10  H    0.270500
    11  H    0.222290
    12  N    0.493242
    13  O   -0.465826
    14  O   -0.457752
    15  C   -0.171044
    16  C   -0.220658
    17  C   -0.153219
    18  C    0.167261
    19  C   -0.169472
    20  C   -0.219276
    21  H    0.220008
    22  H    0.214665
    23  H    0.271355
    24  H    0.273590
    25  H    0.219077
    26  N    0.491863
    27  O   -0.464577
    28  O   -0.460469
 Sum of Mulliken charges =  -0.00000

 Dipole moment (field-independent basis, Debye):
    X=              4.2500    Y=              6.5805    Z=             -0.4431  Tot=              7.8461
 Quadrupole moment (field-independent basis, Debye-Ang):
   XX=            -73.8169   YY=           -106.2318   ZZ=           -102.8903
   XY=             -9.7627   XZ=              9.8742   YZ=              4.4508

 Normal termination of Gaussian 16 at Wed May  5 16:21:20 2021.
