 Gaussian 16, Revision A.03,
 Gaussian 16:  EM64L-G16RevA.03 25-Dec-2016

 -------------
 #p 6-31g* mp2
 -------------

 ------------------------------------------------------
 Input file generated by CHIRIPA (05-May-2021 14:55:20)
 ------------------------------------------------------
 Symbolic Z-matrix:
 Charge =  0 Multiplicity = 1

                         Standard orientation:
 ---------------------------------------------------------------------
 Center     Atomic      Atomic             Coordinates (Angstroms)
 Number     Number       Type             X           Y           Z
 ---------------------------------------------------------------------
      1          6           0       -5.949133    1.410549    0.107546
      2          6           0       -6.010296    0.123552   -0.436898
      3          6           0       -4.851605   -0.647651   -0.568160
      4          6           0       -3.643147   -0.098104   -0.142818
      5          6           0       -3.549762    1.180962    0.403589
      6          6           0       -4.721227    1.934223    0.525316
      7          1           0       -6.854194    2.002669    0.205810
      8          1           0       -6.962523   -0.285711   -0.762186
      9          1           0       -4.870325   -1.646825   -0.986154
     10          1           0       -2.585979    1.561845    0.718976
     11          1           0       -4.670726    2.933425    0.948505
     12          7           0       -2.409731   -0.905045   -0.276732
     13          8           0       -1.357367   -0.398021    0.105489
     14          8           0       -2.518700   -2.029269   -0.761378
     15          6           0        4.227960   -0.328705    0.016452
     16          6           0        3.481191   -0.746912    1.283505
     17          6           0        2.091413   -1.313200    0.990882
     18          1           0        3.631522    0.419885   -0.522827
     19          1           0        4.317838   -1.196782   -0.651200
     20          1           0        3.393962    0.121359    1.949172
     21          1           0        4.079563   -1.494453    1.819928
     22          1           0        2.162730   -2.195366    0.346446
     23          1           0        1.473235   -0.570374    0.476425
     24          1           0        1.575293   -1.605759    1.910603
     25          6           0        5.618898    0.239387    0.292661
     26          6           0        6.365665    0.657595   -0.974392
     27          6           0        7.755444    1.223882   -0.681768
     28          1           0        5.529018    1.107464    0.960314
     29          1           0        6.215334   -0.509204    0.831940
     30          1           0        5.767294    1.405135   -1.510815
     31          1           0        6.452895   -0.210677   -1.640059
     32          1           0        8.373623    0.481056   -0.167312
     33          1           0        7.684126    2.106048   -0.037333
     34          1           0        8.271565    1.516441   -1.601490
 ---------------------------------------------------------------------

 SCF Done:  E(RHF) =  -669.535729444     A.U. after   15 cycles
 E2 =    -0.2090704767D+01 EUMP2 =    -0.67162643421068D+03

 The electronic state is 1-A.
 Alpha  occ. eigenvalues --  -20.60873 -20.60866 -15.85916 -11.31264 -11.27832
 Alpha  occ. eigenvalues --  -11.27827 -11.27572 -11.26844 -11.26834 -11.21022
 Alpha  occ. eigenvalues --  -11.20672 -11.20607 -11.20466 -11.20405 -11.19329
 Alpha  occ. eigenvalues --   -1.59937  -1.39493  -1.19435  -1.08833  -1.07582
 Alpha  occ. eigenvalues --   -1.04836  -1.02588  -0.95673  -0.94998  -0.86235
 Alpha  occ. eigenvalues --   -0.86001  -0.82505  -0.78677  -0.77555  -0.77352
 Alpha  occ. eigenvalues --   -0.72138  -0.71255  -0.70544  -0.65091  -0.64839
 Alpha  occ. eigenvalues --   -0.64224  -0.62183  -0.59989  -0.58452  -0.56612
 Alpha  occ. eigenvalues --   -0.55339  -0.54283  -0.53166  -0.52928  -0.51681
 Alpha  occ. eigenvalues --   -0.51417  -0.49100  -0.48887  -0.48716  -0.46949
 Alpha  occ. eigenvalues --   -0.45726  -0.44901  -0.44877  -0.44801  -0.42846
 Alpha  occ. eigenvalues --   -0.37415  -0.36438
 Alpha virt. eigenvalues --    0.04980   0.11216   0.16474   0.21344   0.23646
 Alpha virt. eigenvalues --    0.25292   0.27263   0.27459   0.28160   0.28315
 Alpha virt. eigenvalues --    0.29094   0.30909   0.32283   0.32468   0.32619

 Mulliken charges:
               1
     1  C   -0.170703
     2  C   -0.218579
     3  C   -0.170559
     4  C    0.157646
     5  C   -0.170867
     6  C   -0.218517
     7  H    0.225853
     8  H    0.223707
     9  H    0.275858
    10  H    0.275434
    11  H    0.223656
    12  N    0.492407
    13  O   -0.463215
    14  O   -0.459174
    15  C   -0.297241
    16  C   -0.300757
    17  C   -0.475497
    18  H    0.149549
    19  H    0.149229
    20  H    0.146671
    21  H    0.146729
    22  H    0.153327
    23  H    0.175036
    24  H    0.156344
    25  C   -0.297318
    26  C   -0.298972
    27  C   -0.475175
    28  H    0.147311
    29  H    0.148193
    30  H    0.151044
    31  H    0.151688
    32  H    0.154475
    33  H    0.153913
    34  H    0.158504
 Sum of Mulliken charges =  -0.00000

 Dipole moment (field-independent basis, Debye):
    X=             -4.6889    Y=              2.8261    Z=              0.4113  Tot=              5.4902
 Quadrupole moment (field-independent basis, Debye-Ang):
   XX=            -64.3994   YY=            -92.1858   ZZ=            -95.1195
   XY=             -8.7084   XZ=             -0.1712   YZ=              1.4794

 Normal termination of Gaussian 16 at Thu May  6 06:07:45 2021.
