 Gaussian 16, Revision A.03,
 Gaussian 16:  EM64L-G16RevA.03 25-Dec-2016

 -------------
 #p 6-31g* mp2
 -------------

 ------------------------------------------------------
 Input file generated by CHIRIPA (05-May-2021 14:55:20)
 ------------------------------------------------------
 Symbolic Z-matrix:
 Charge =  0 Multiplicity = 1

                         Standard orientation:
 ---------------------------------------------------------------------
 Center     Atomic      Atomic             Coordinates (Angstroms)
 Number     Number       Type             X           Y           Z
 ---------------------------------------------------------------------
      1          6           0        0.388332   -1.306224    1.686675
      2          6           0        0.829524    0.012657    1.836421
      3          6           0        1.858803    0.512557    1.033157
      4          6           0        2.427001   -0.337856    0.085930
      5          6           0        2.009388   -1.656529   -0.087247
      6          6           0        0.978631   -2.135146    0.727010
      7          1           0       -0.411810   -1.686292    2.314939
      8          1           0        0.372934    0.658678    2.580885
      9          1           0        2.219734    1.529496    1.127926
     10          1           0        2.483965   -2.276602   -0.838049
     11          1           0        0.638027   -3.159836    0.608497
     12          7           0        3.517434    0.180100   -0.770268
     13          8           0        4.001617   -0.589303   -1.597446
     14          8           0        3.867286    1.345670   -0.597968
     15          6           0       -2.867023    1.290704   -0.440178
     16          6           0       -1.754837    2.041384    0.292969
     17          6           0       -1.748811    3.538727   -0.016419
     18          1           0       -2.751695    1.442553   -1.522113
     19          1           0       -3.837323    1.726822   -0.165012
     20          1           0       -0.787023    1.603082    0.017570
     21          1           0       -1.872714    1.887573    1.373276
     22          1           0       -2.699888    3.996118    0.274869
     23          1           0       -1.608027    3.710011   -1.088540
     24          1           0       -0.945867    4.055885    0.518079
     25          6           0       -2.886023   -0.207257   -0.141050
     26          6           0       -3.998211   -0.957937   -0.874197
     27          6           0       -4.004237   -2.455280   -0.564809
     28          1           0       -1.915725   -0.643376   -0.416215
     29          1           0       -3.001353   -0.359106    0.940886
     30          1           0       -3.880333   -0.804126   -1.954504
     31          1           0       -4.966025   -0.519635   -0.598798
     32          1           0       -4.145020   -2.626564    0.507312
     33          1           0       -3.053160   -2.912671   -0.856097
     34          1           0       -4.807180   -2.972438   -1.099308
 ---------------------------------------------------------------------

 SCF Done:  E(RHF) =  -669.534363317     A.U. after   15 cycles
 E2 =    -0.2094310534D+01 EUMP2 =    -0.67162867385068D+03

 The electronic state is 1-A.
 Alpha  occ. eigenvalues --  -20.60807 -20.60802 -15.85861 -11.31241 -11.27792
 Alpha  occ. eigenvalues --  -11.27771 -11.27500 -11.26822 -11.26765 -11.22085
 Alpha  occ. eigenvalues --  -11.21964 -11.21870 -11.21769 -11.21687 -11.21388
 Alpha  occ. eigenvalues --   -1.59883  -1.39436  -1.19412  -1.08920  -1.08764
 Alpha  occ. eigenvalues --   -1.04820  -1.03986  -0.96443  -0.95627  -0.87458
 Alpha  occ. eigenvalues --   -0.86200  -0.82464  -0.80066  -0.78741  -0.77497
 Alpha  occ. eigenvalues --   -0.72077  -0.71209  -0.70490  -0.65528  -0.65048
 Alpha  occ. eigenvalues --   -0.64799  -0.62157  -0.61390  -0.59821  -0.58067
 Alpha  occ. eigenvalues --   -0.55730  -0.55285  -0.53355  -0.53000  -0.52924
 Alpha  occ. eigenvalues --   -0.52844  -0.50382  -0.48840  -0.48832  -0.48389
 Alpha  occ. eigenvalues --   -0.47101  -0.46269  -0.46105  -0.44838  -0.44235
 Alpha  occ. eigenvalues --   -0.37314  -0.36312
 Alpha virt. eigenvalues --    0.04999   0.11137   0.16459   0.20452   0.22830
 Alpha virt. eigenvalues --    0.23441   0.25396   0.26863   0.27192   0.27844
 Alpha virt. eigenvalues --    0.29132   0.29300   0.31363   0.31587   0.31973

 Mulliken charges:
               1
     1  C   -0.167806
     2  C   -0.213115
     3  C   -0.174256
     4  C    0.158789
     5  C   -0.172014
     6  C   -0.220164
     7  H    0.226632
     8  H    0.225262
     9  H    0.275941
    10  H    0.275655
    11  H    0.224085
    12  N    0.488091
    13  O   -0.460324
    14  O   -0.460280
    15  C   -0.297898
    16  C   -0.305043
    17  C   -0.475244
    18  H    0.152807
    19  H    0.149496
    20  H    0.161465
    21  H    0.141011
    22  H    0.155216
    23  H    0.159260
    24  H    0.158292
    25  C   -0.301526
    26  C   -0.299569
    27  C   -0.475568
    28  H    0.155504
    29  H    0.140632
    30  H    0.154774
    31  H    0.152990
    32  H    0.151611
    33  H    0.152137
    34  H    0.163155
 Sum of Mulliken charges =  -0.00000

 Dipole moment (field-independent basis, Debye):
    X=             -3.8140    Y=             -1.8183    Z=              2.9502  Tot=              5.1533
 Quadrupole moment (field-independent basis, Debye-Ang):
   XX=           -114.0049   YY=            -90.9810   ZZ=            -93.0818
   XY=             -3.7001   XZ=              6.7229   YZ=              1.2606

 Normal termination of Gaussian 16 at Wed May  5 17:24:41 2021.
