 Gaussian 16, Revision A.03,
 Gaussian 16:  EM64L-G16RevA.03 25-Dec-2016

 -------------
 #p 6-31g* mp2
 -------------

 ------------------------------------------------------
 Input file generated by CHIRIPA (05-May-2021 14:51:13)
 ------------------------------------------------------
 Symbolic Z-matrix:
 Charge =  0 Multiplicity = 1

                         Standard orientation:
 ---------------------------------------------------------------------
 Center     Atomic      Atomic             Coordinates (Angstroms)
 Number     Number       Type             X           Y           Z
 ---------------------------------------------------------------------
      1          6           0       -3.905718   -0.220089    0.135824
      2          6           0       -4.562378   -0.030859   -1.232012
      3          6           0       -5.895101    0.714067   -1.149978
      4          1           0       -4.594132   -0.768589    0.793228
      5          1           0       -3.748880    0.764012    0.598794
      6          1           0       -4.716668   -1.014948   -1.692858
      7          1           0       -3.872244    0.517087   -1.886295
      8          1           0       -5.754478    1.708323   -0.713765
      9          1           0       -6.603700    0.167584   -0.519229
     10          1           0       -6.347107    0.838330   -2.138972
     11          6           0       -2.572579   -0.963168    0.070234
     12          6           0       -1.915920   -1.152399    1.438070
     13          6           0       -0.583197   -1.897325    1.356036
     14          1           0       -2.729417   -1.947270   -0.392735
     15          1           0       -1.884165   -0.414669   -0.587169
     16          1           0       -2.606053   -1.700345    2.092354
     17          1           0       -1.761629   -0.168310    1.898916
     18          1           0        0.125403   -1.350841    0.725287
     19          1           0       -0.723819   -2.891581    0.919824
     20          1           0       -0.131191   -2.021588    2.345030
     21          6           0        2.604612    0.762249    0.286436
     22          6           0        2.214172    2.237662    0.193164
     23          6           0        0.942735    2.563424    0.977460
     24          1           0        1.774733    0.145714   -0.085223
     25          1           0        2.745149    0.493406    1.342546
     26          1           0        2.075763    2.503993   -0.862548
     27          1           0        3.045151    2.850765    0.564910
     28          1           0        1.072773    2.325416    2.038141
     29          1           0        0.097876    1.976674    0.602573
     30          1           0        0.681933    3.623321    0.897092
     31          6           0        3.873685    0.421008   -0.492495
     32          6           0        4.264126   -1.054404   -0.399222
     33          6           0        5.535563   -1.380166   -1.183519
     34          1           0        3.733148    0.689852   -1.548605
     35          1           0        4.703564    1.037543   -0.120834
     36          1           0        3.433147   -1.667507   -0.770969
     37          1           0        4.402535   -1.320735    0.656489
     38          1           0        6.380421   -0.793417   -0.808631
     39          1           0        5.405525   -1.142158   -2.244199
     40          1           0        5.796365   -2.440064   -1.103150
 ---------------------------------------------------------------------

 SCF Done:  E(RHF) =  -470.733257750     A.U. after   11 cycles
 E2 =    -0.1583221199D+01 EUMP2 =    -0.47231647894918D+03

 The electronic state is 1-A.
 Alpha  occ. eigenvalues --  -11.21651 -11.21600 -11.21597 -11.21558 -11.21429
 Alpha  occ. eigenvalues --  -11.21404 -11.21368 -11.21344 -11.21141 -11.21067
 Alpha  occ. eigenvalues --  -11.21066 -11.20981  -1.08465  -1.08414  -1.03562
 Alpha  occ. eigenvalues --   -1.03500  -0.96014  -0.95951  -0.87041  -0.86958
 Alpha  occ. eigenvalues --   -0.79626  -0.79566  -0.78302  -0.78206  -0.65166
 Alpha  occ. eigenvalues --   -0.64988  -0.61023  -0.60840  -0.59372  -0.59323
 Alpha  occ. eigenvalues --   -0.57661  -0.57534  -0.55372  -0.55187  -0.52706
 Alpha  occ. eigenvalues --   -0.52643  -0.52491  -0.52337  -0.50052  -0.49809
 Alpha  occ. eigenvalues --   -0.48015  -0.47836  -0.46716  -0.46603  -0.45931
 Alpha  occ. eigenvalues --   -0.45758  -0.45714  -0.45446  -0.43812  -0.43765
 Alpha virt. eigenvalues --    0.19976   0.23038   0.23787   0.24904   0.25585
 Alpha virt. eigenvalues --    0.26236   0.26879   0.27661   0.28572   0.29161
 Alpha virt. eigenvalues --    0.31004   0.31520   0.31766   0.31897   0.31965

 Mulliken charges:
               1
     1  C   -0.298375
     2  C   -0.299611
     3  C   -0.475723
     4  H    0.149806
     5  H    0.149866
     6  H    0.151864
     7  H    0.151730
     8  H    0.155322
     9  H    0.155203
    10  H    0.160196
    11  C   -0.298813
    12  C   -0.300681
    13  C   -0.481763
    14  H    0.149619
    15  H    0.148440
    16  H    0.151787
    17  H    0.153640
    18  H    0.161675
    19  H    0.154395
    20  H    0.160102
    21  C   -0.304238
    22  C   -0.299331
    23  C   -0.477776
    24  H    0.155016
    25  H    0.150321
    26  H    0.151765
    27  H    0.152345
    28  H    0.155776
    29  H    0.155955
    30  H    0.160532
    31  C   -0.297725
    32  C   -0.299912
    33  C   -0.475723
    34  H    0.149320
    35  H    0.149743
    36  H    0.152349
    37  H    0.152242
    38  H    0.155125
    39  H    0.155112
    40  H    0.160424
 Sum of Mulliken charges =  -0.00000

 Dipole moment (field-independent basis, Debye):
    X=              0.0310    Y=              0.0114    Z=              0.0109  Tot=              0.0348
 Quadrupole moment (field-independent basis, Debye-Ang):
   XX=            -85.9460   YY=            -84.3964   ZZ=            -84.3593
   XY=              1.4123   XZ=              0.8046   YZ=             -0.0529

 Normal termination of Gaussian 16 at Wed May  5 19:58:49 2021.
