 Gaussian 16, Revision A.03,
 Gaussian 16:  EM64L-G16RevA.03 25-Dec-2016

 -------------
 #p 6-31g* mp2
 -------------

 ------------------------------------------------------
 Input file generated by CHIRIPA (05-May-2021 14:51:12)
 ------------------------------------------------------
 Symbolic Z-matrix:
 Charge =  0 Multiplicity = 1

                         Standard orientation:
 ---------------------------------------------------------------------
 Center     Atomic      Atomic             Coordinates (Angstroms)
 Number     Number       Type             X           Y           Z
 ---------------------------------------------------------------------
      1          6           0       -3.742258    0.514853   -0.176534
      2          6           0       -3.411621    1.960819    0.194742
      3          6           0       -4.498946    2.945362   -0.236759
      4          1           0       -3.890456    0.446667   -1.262965
      5          1           0       -4.697800    0.233804    0.287521
      6          1           0       -2.456303    2.238608   -0.268741
      7          1           0       -3.264005    2.025533    1.280393
      8          1           0       -5.454241    2.695944    0.236319
      9          1           0       -4.641950    2.910230   -1.321617
     10          1           0       -4.242158    3.973059    0.038482
     11          6           0       -2.664726   -0.481235    0.248274
     12          6           0       -2.995364   -1.927201   -0.123002
     13          6           0       -1.908039   -2.911744    0.308499
     14          1           0       -1.709185   -0.200187   -0.215781
     15          1           0       -2.516529   -0.413049    1.334705
     16          1           0       -3.142980   -1.991916   -1.208653
     17          1           0       -3.950682   -2.204991    0.340481
     18          1           0       -1.765035   -2.876612    1.393357
     19          1           0       -0.952744   -2.662327   -0.164579
     20          1           0       -2.164827   -3.939442    0.033258
     21          6           0        3.292090   -0.769836   -0.128236
     22          6           0        1.981544   -1.551256   -0.029044
     23          6           0        2.175120   -3.056376   -0.215954
     24          1           0        3.753607   -0.962944   -1.106324
     25          1           0        3.993922   -1.146961    0.628471
     26          1           0        1.281905   -1.171834   -0.784795
     27          1           0        1.522996   -1.356114    0.948847
     28          1           0        2.852746   -3.455175    0.545875
     29          1           0        2.610284   -3.269848   -1.197617
     30          1           0        1.225639   -3.595600   -0.141230
     31          6           0        3.114895    0.736220    0.056496
     32          6           0        4.425441    1.517638   -0.042696
     33          6           0        4.231865    3.022759    0.144213
     34          1           0        2.413063    1.113344   -0.700210
     35          1           0        2.653378    0.929327    1.034583
     36          1           0        4.883988    1.322497   -1.020587
     37          1           0        5.125080    1.138217    0.713055
     38          1           0        3.796701    3.236230    1.125877
     39          1           0        3.554239    3.421558   -0.617615
     40          1           0        5.181346    3.561983    0.069490
 ---------------------------------------------------------------------

 SCF Done:  E(RHF) =  -470.733006991     A.U. after   11 cycles
 E2 =    -0.1583174922D+01 EUMP2 =    -0.47231618191281D+03

 The electronic state is 1-A.
 Alpha  occ. eigenvalues --  -11.21611 -11.21607 -11.21586 -11.21578 -11.21413
 Alpha  occ. eigenvalues --  -11.21382 -11.21353 -11.21321 -11.21076 -11.21060
 Alpha  occ. eigenvalues --  -11.21016 -11.21013  -1.08444  -1.08402  -1.03566
 Alpha  occ. eigenvalues --   -1.03478  -0.96031  -0.95910  -0.87041  -0.86932
 Alpha  occ. eigenvalues --   -0.79621  -0.79556  -0.78293  -0.78175  -0.65087
 Alpha  occ. eigenvalues --   -0.65024  -0.60993  -0.60885  -0.59414  -0.59294
 Alpha  occ. eigenvalues --   -0.57794  -0.57399  -0.55280  -0.55205  -0.52800
 Alpha  occ. eigenvalues --   -0.52614  -0.52508  -0.52176  -0.49915  -0.49867
 Alpha  occ. eigenvalues --   -0.47915  -0.47868  -0.46677  -0.46556  -0.45901
 Alpha  occ. eigenvalues --   -0.45751  -0.45707  -0.45559  -0.43819  -0.43728
 Alpha virt. eigenvalues --    0.21416   0.23146   0.23406   0.24900   0.25692
 Alpha virt. eigenvalues --    0.26663   0.26912   0.27109   0.28471   0.29162
 Alpha virt. eigenvalues --    0.30687   0.30827   0.31547   0.31724   0.32014

 Mulliken charges:
               1
     1  C   -0.298285
     2  C   -0.299583
     3  C   -0.475695
     4  H    0.149433
     5  H    0.149492
     6  H    0.152007
     7  H    0.151911
     8  H    0.155145
     9  H    0.155078
    10  H    0.160244
    11  C   -0.299500
    12  C   -0.299478
    13  C   -0.483825
    14  H    0.151099
    15  H    0.149414
    16  H    0.151560
    17  H    0.151715
    18  H    0.154845
    19  H    0.165394
    20  H    0.159565
    21  C   -0.298337
    22  C   -0.301287
    23  C   -0.481307
    24  H    0.149600
    25  H    0.149805
    26  H    0.150937
    27  H    0.153878
    28  H    0.155418
    29  H    0.154711
    30  H    0.166098
    31  C   -0.298226
    32  C   -0.299669
    33  C   -0.475688
    34  H    0.148995
    35  H    0.149989
    36  H    0.151905
    37  H    0.152005
    38  H    0.155280
    39  H    0.155081
    40  H    0.160274
 Sum of Mulliken charges =  -0.00000

 Dipole moment (field-independent basis, Debye):
    X=              0.0184    Y=             -0.0054    Z=              0.0125  Tot=              0.0229
 Quadrupole moment (field-independent basis, Debye-Ang):
   XX=            -85.1583   YY=            -86.7073   ZZ=            -82.9995
   XY=              0.5646   XZ=             -0.4260   YZ=             -0.1470

 Normal termination of Gaussian 16 at Wed May  5 15:17:53 2021.
