 Gaussian 16, Revision A.03,
 Gaussian 16:  EM64L-G16RevA.03 25-Dec-2016

 -------------
 #p 6-31g* mp2
 -------------

 ------------------------------------------------------
 Input file generated by CHIRIPA (05-May-2021 14:55:23)
 ------------------------------------------------------
 Symbolic Z-matrix:
 Charge =  0 Multiplicity = 1

                         Standard orientation:
 ---------------------------------------------------------------------
 Center     Atomic      Atomic             Coordinates (Angstroms)
 Number     Number       Type             X           Y           Z
 ---------------------------------------------------------------------
      1          6           0       -6.360010   -0.529640   -0.287337
      2          6           0       -5.358284   -1.495578   -0.428868
      3          6           0       -4.009839   -1.139656   -0.331077
      4          6           0       -3.697528    0.197373   -0.090029
      5          6           0       -4.672676    1.182851    0.055609
      6          6           0       -6.014617    0.804140   -0.045976
      7          1           0       -7.404988   -0.814980   -0.364778
      8          1           0       -5.623578   -2.532164   -0.616365
      9          1           0       -3.214135   -1.867080   -0.436561
     10          1           0       -4.377215    2.208227    0.241956
     11          1           0       -6.790452    1.556436    0.064366
     12          7           0       -2.273432    0.586235    0.015506
     13          8           0       -2.024459    1.770866    0.228341
     14          8           0       -1.433164   -0.300970   -0.116609
     15          6           0        5.543858   -0.116393   -0.427994
     16          6           0        6.945788    0.257309    0.054628
     17          6           0        7.956091    0.361930   -1.088235
     18          1           0        5.591130   -1.072960   -0.966223
     19          1           0        5.201352    0.634081   -1.153854
     20          1           0        7.284990   -0.492900    0.780402
     21          1           0        6.895142    1.213002    0.591937
     22          1           0        7.644059    1.123981   -1.809703
     23          1           0        8.036122   -0.591613   -1.620167
     24          1           0        8.951565    0.630020   -0.720787
     25          6           0        4.522666   -0.224815    0.702996
     26          6           0        3.120735   -0.598516    0.220374
     27          6           0        2.110433   -0.703138    1.363237
     28          1           0        4.865172   -0.975289    1.428856
     29          1           0        4.475394    0.731751    1.241226
     30          1           0        3.171382   -1.554210   -0.316935
     31          1           0        2.781534    0.151692   -0.505400
     32          1           0        2.030402    0.250405    1.895169
     33          1           0        2.422465   -1.465189    2.084704
     34          1           0        1.114959   -0.971228    0.995788
 ---------------------------------------------------------------------

 SCF Done:  E(RHF) =  -669.536167769     A.U. after   15 cycles
 E2 =    -0.2090693444D+01 EUMP2 =    -0.67162686121283D+03

 The electronic state is 1-A.
 Alpha  occ. eigenvalues --  -20.60952 -20.60945 -15.85987 -11.31300 -11.27863
 Alpha  occ. eigenvalues --  -11.27859 -11.27599 -11.26869 -11.26859 -11.20934
 Alpha  occ. eigenvalues --  -11.20558 -11.20516 -11.20356 -11.20258 -11.19367
 Alpha  occ. eigenvalues --   -1.60009  -1.39567  -1.19468  -1.08873  -1.07476
 Alpha  occ. eigenvalues --   -1.04863  -1.02490  -0.95718  -0.94929  -0.86264
 Alpha  occ. eigenvalues --   -0.85952  -0.82551  -0.78600  -0.77604  -0.77253
 Alpha  occ. eigenvalues --   -0.72214  -0.71323  -0.70577  -0.65124  -0.64866
 Alpha  occ. eigenvalues --   -0.64118  -0.62211  -0.59899  -0.58344  -0.56506
 Alpha  occ. eigenvalues --   -0.55367  -0.54241  -0.53195  -0.52956  -0.51590
 Alpha  occ. eigenvalues --   -0.51368  -0.48978  -0.48957  -0.48868  -0.46883
 Alpha  occ. eigenvalues --   -0.45663  -0.44982  -0.44795  -0.44706  -0.42711
 Alpha  occ. eigenvalues --   -0.37446  -0.36464
 Alpha virt. eigenvalues --    0.04918   0.11191   0.16410   0.21321   0.23753
 Alpha virt. eigenvalues --    0.25420   0.27244   0.27552   0.28165   0.28411
 Alpha virt. eigenvalues --    0.29130   0.30883   0.32373   0.32383   0.32638

 Mulliken charges:
               1
     1  C   -0.170576
     2  C   -0.218539
     3  C   -0.170706
     4  C    0.157680
     5  C   -0.170508
     6  C   -0.218593
     7  H    0.226012
     8  H    0.223854
     9  H    0.275686
    10  H    0.275878
    11  H    0.223832
    12  N    0.491398
    13  O   -0.458780
    14  O   -0.462642
    15  C   -0.297503
    16  C   -0.298892
    17  C   -0.475177
    18  H    0.147618
    19  H    0.149529
    20  H    0.150416
    21  H    0.151415
    22  H    0.154771
    23  H    0.154010
    24  H    0.158169
    25  C   -0.297467
    26  C   -0.298366
    27  C   -0.483709
    28  H    0.146035
    29  H    0.148929
    30  H    0.146701
    31  H    0.156503
    32  H    0.153949
    33  H    0.143898
    34  H    0.185178
 Sum of Mulliken charges =  -0.00000

 Dipole moment (field-independent basis, Debye):
    X=             -5.4150    Y=             -1.3158    Z=             -0.4206  Tot=              5.5884
 Quadrupole moment (field-independent basis, Debye-Ang):
   XX=            -59.8910   YY=            -89.9227   ZZ=            -96.2309
   XY=              2.5595   XZ=              2.0811   YZ=              1.0205

 Normal termination of Gaussian 16 at Thu May  6 12:37:15 2021.
