 Gaussian 16, Revision A.03,
 Gaussian 16:  EM64L-G16RevA.03 25-Dec-2016

 -------------
 #p 6-31g* mp2
 -------------

 ------------------------------------------------------
 Input file generated by CHIRIPA (05-May-2021 14:57:23)
 ------------------------------------------------------
 Symbolic Z-matrix:
 Charge =  0 Multiplicity = 1

                         Standard orientation:
 ---------------------------------------------------------------------
 Center     Atomic      Atomic             Coordinates (Angstroms)
 Number     Number       Type             X           Y           Z
 ---------------------------------------------------------------------
      1          6           0        1.198267    2.975704   -0.439469
      2          6           0        1.158569    2.035291   -1.474151
      3          6           0        1.596103    0.724889   -1.259768
      4          6           0        2.069360    0.387687    0.007359
      5          6           0        2.121395    1.301937    1.058421
      6          6           0        1.678707    2.606677    0.821292
      7          1           0        0.856379    3.991456   -0.614841
      8          1           0        0.785954    2.319064   -2.454292
      9          1           0        1.576383   -0.023184   -2.042977
     10          1           0        2.498114    0.989363    2.024753
     11          1           0        1.710692    3.334914    1.626706
     12          7           0        2.535285   -0.996579    0.246357
     13          8           0        2.947769   -1.268584    1.371749
     14          8           0        2.479172   -1.783351   -0.696235
     15          6           0       -3.512911    1.343359    0.496853
     16          6           0       -3.190763    1.004655   -0.821487
     17          6           0       -2.349351   -0.078873   -1.090825
     18          6           0       -1.845589   -0.805238   -0.012907
     19          6           0       -2.148069   -0.492636    1.311508
     20          6           0       -2.991455    0.594952    1.557273
     21          1           0       -4.167306    2.186647    0.696925
     22          1           0       -3.594273    1.584094   -1.647003
     23          1           0       -2.083646   -0.363019   -2.101804
     24          1           0       -1.730455   -1.089050    2.113573
     25          1           0       -3.239930    0.855695    2.582124
     26          7           0       -0.953779   -1.954470   -0.285565
     27          8           0       -0.522943   -2.578526    0.681684
     28          8           0       -0.702502   -2.209421   -1.461361
 ---------------------------------------------------------------------

 SCF Done:  E(RHF) =  -868.335103921     A.U. after   16 cycles
 E2 =    -0.2605637171D+01 EUMP2 =    -0.87094074109262D+03

 The electronic state is 1-A.
 Alpha  occ. eigenvalues --  -20.60534 -20.60509 -20.59905 -20.59787 -15.85548
 Alpha  occ. eigenvalues --  -15.84915 -11.31195 -11.30787 -11.27845 -11.27769
 Alpha  occ. eigenvalues --  -11.27605 -11.27448 -11.27352 -11.27292 -11.26907
 Alpha  occ. eigenvalues --  -11.26854 -11.26564 -11.26548  -1.59578  -1.58906
 Alpha  occ. eigenvalues --   -1.39129  -1.38451  -1.19400  -1.19020  -1.08747
 Alpha  occ. eigenvalues --   -1.08328  -1.04849  -1.04488  -0.95534  -0.95067
 Alpha  occ. eigenvalues --   -0.86238  -0.85866  -0.82367  -0.81898  -0.77374
 Alpha  occ. eigenvalues --   -0.76845  -0.71765  -0.71354  -0.71100  -0.70519
 Alpha  occ. eigenvalues --   -0.70114  -0.69864  -0.65053  -0.64863  -0.64651
 Alpha  occ. eigenvalues --   -0.64495  -0.62202  -0.61807  -0.55346  -0.54990
 Alpha  occ. eigenvalues --   -0.53411  -0.52951  -0.52585  -0.52547  -0.48545
 Alpha  occ. eigenvalues --   -0.48514  -0.47934  -0.47841  -0.44481  -0.43658
 Alpha  occ. eigenvalues --   -0.37555  -0.36991  -0.36609  -0.35841
 Alpha virt. eigenvalues --    0.05006   0.05793   0.11040   0.11648   0.16556
 Alpha virt. eigenvalues --    0.17114   0.21111   0.21727   0.26855   0.27579
 Alpha virt. eigenvalues --    0.28137   0.28765   0.30691   0.31213   0.32284

 Mulliken charges:
               1
     1  C   -0.171134
     2  C   -0.218144
     3  C   -0.176637
     4  C    0.152452
     5  C   -0.171691
     6  C   -0.218725
     7  H    0.221284
     8  H    0.219123
     9  H    0.285958
    10  H    0.275048
    11  H    0.220136
    12  N    0.488985
    13  O   -0.462887
    14  O   -0.445084
    15  C   -0.171930
    16  C   -0.219161
    17  C   -0.170767
    18  C    0.160277
    19  C   -0.171282
    20  C   -0.218498
    21  H    0.223580
    22  H    0.220127
    23  H    0.271834
    24  H    0.278477
    25  H    0.222730
    26  N    0.483886
    27  O   -0.451329
    28  O   -0.456628
 Sum of Mulliken charges =  -0.00000

 Dipole moment (field-independent basis, Debye):
    X=             -4.6633    Y=              8.4830    Z=              0.1083  Tot=              9.6809
 Quadrupole moment (field-independent basis, Debye-Ang):
   XX=           -101.6039   YY=           -108.4031   ZZ=            -95.6528
   XY=              4.3195   XZ=             -2.2286   YZ=             -0.6596

 Normal termination of Gaussian 16 at Fri May  7 11:05:45 2021.
