 Gaussian 16, Revision A.03,
 Gaussian 16:  EM64L-G16RevA.03 25-Dec-2016

 -------------
 #p 6-31g* mp2
 -------------

 ------------------------------------------------------
 Input file generated by CHIRIPA (05-May-2021 14:55:20)
 ------------------------------------------------------
 Symbolic Z-matrix:
 Charge =  0 Multiplicity = 1

                         Standard orientation:
 ---------------------------------------------------------------------
 Center     Atomic      Atomic             Coordinates (Angstroms)
 Number     Number       Type             X           Y           Z
 ---------------------------------------------------------------------
      1          6           0       -4.560972    0.586969   -1.425791
      2          6           0       -3.232029    0.624598   -1.860549
      3          6           0       -2.190364    0.291515   -0.989609
      4          6           0       -2.515163   -0.076317    0.315188
      5          6           0       -3.829227   -0.123413    0.778124
      6          6           0       -4.854812    0.213741   -0.110161
      7          1           0       -5.363917    0.847297   -2.109095
      8          1           0       -3.000866    0.914079   -2.881730
      9          1           0       -1.152720    0.312171   -1.299912
     10          1           0       -4.028436   -0.415904    1.801932
     11          1           0       -5.885962    0.183630    0.230231
     12          7           0       -1.420911   -0.431092    1.246394
     13          8           0       -1.733422   -0.751842    2.390987
     14          8           0       -0.271444   -0.381698    0.814048
     15          6           0        3.420937    0.621809    0.266095
     16          6           0        3.741010    1.951207   -0.418183
     17          6           0        3.678295    3.140071    0.541225
     18          1           0        2.420156    0.679680    0.715577
     19          1           0        4.126556    0.464066    1.093509
     20          1           0        3.035869    2.105736   -1.244931
     21          1           0        4.741067    1.890098   -0.866253
     22          1           0        4.393773    3.012502    1.360016
     23          1           0        2.678886    3.229365    0.979186
     24          1           0        3.910442    4.080210    0.031220
     25          6           0        3.479567   -0.576123   -0.680082
     26          6           0        3.159493   -1.905523    0.004196
     27          6           0        3.222210   -3.094386   -0.955213
     28          1           0        2.773948   -0.418381   -1.507496
     29          1           0        4.480347   -0.633994   -1.129564
     30          1           0        2.159437   -1.844413    0.452266
     31          1           0        3.864635   -2.060051    0.830944
     32          1           0        4.221618   -3.183679   -1.393173
     33          1           0        2.506731   -2.966817   -1.774003
     34          1           0        2.990062   -4.034525   -0.445207
 ---------------------------------------------------------------------

 SCF Done:  E(RHF) =  -669.536394557     A.U. after   15 cycles
 E2 =    -0.2091808817D+01 EUMP2 =    -0.67162820337442D+03

 The electronic state is 1-A.
 Alpha  occ. eigenvalues --  -20.61120 -20.61100 -15.86137 -11.31393 -11.27950
 Alpha  occ. eigenvalues --  -11.27944 -11.27673 -11.26940 -11.26931 -11.20799
 Alpha  occ. eigenvalues --  -11.20383 -11.20340 -11.20234 -11.20144 -11.20114
 Alpha  occ. eigenvalues --   -1.60165  -1.39725  -1.19555  -1.08971  -1.07346
 Alpha  occ. eigenvalues --   -1.04941  -1.02554  -0.95824  -0.95032  -0.86345
 Alpha  occ. eigenvalues --   -0.86058  -0.82666  -0.78604  -0.77734  -0.77122
 Alpha  occ. eigenvalues --   -0.72373  -0.71470  -0.70664  -0.65221  -0.64943
 Alpha  occ. eigenvalues --   -0.63942  -0.62290  -0.59952  -0.58408  -0.56634
 Alpha  occ. eigenvalues --   -0.55448  -0.54326  -0.53276  -0.53033  -0.51772
 Alpha  occ. eigenvalues --   -0.51462  -0.49144  -0.49113  -0.48989  -0.46944
 Alpha  occ. eigenvalues --   -0.45694  -0.45034  -0.44724  -0.44467  -0.42775
 Alpha  occ. eigenvalues --   -0.37528  -0.36539
 Alpha virt. eigenvalues --    0.04770   0.11117   0.16257   0.21069   0.23643
 Alpha virt. eigenvalues --    0.25195   0.26833   0.27414   0.28406   0.28635
 Alpha virt. eigenvalues --    0.29187   0.31043   0.32210   0.32621   0.32767

 Mulliken charges:
               1
     1  C   -0.170358
     2  C   -0.218485
     3  C   -0.170543
     4  C    0.157117
     5  C   -0.170232
     6  C   -0.218595
     7  H    0.226440
     8  H    0.224317
     9  H    0.275436
    10  H    0.276092
    11  H    0.224191
    12  N    0.495687
    13  O   -0.457184
    14  O   -0.467699
    15  C   -0.308567
    16  C   -0.297518
    17  C   -0.475078
    18  H    0.174842
    19  H    0.146219
    20  H    0.145418
    21  H    0.148194
    22  H    0.154964
    23  H    0.156411
    24  H    0.155475
    25  C   -0.292892
    26  C   -0.310610
    27  C   -0.474310
    28  H    0.141845
    29  H    0.143227
    30  H    0.179646
    31  H    0.147959
    32  H    0.150429
    33  H    0.149845
    34  H    0.158317
 Sum of Mulliken charges =  -0.00000

 Dipole moment (field-independent basis, Debye):
    X=             -4.2748    Y=              1.2288    Z=             -3.0689  Tot=              5.4039
 Quadrupole moment (field-independent basis, Debye-Ang):
   XX=            -73.5460   YY=            -97.3168   ZZ=            -94.8839
   XY=             -2.4112   XZ=              5.2416   YZ=             -0.8990

 Normal termination of Gaussian 16 at Thu May  6 04:30:43 2021.
