 Gaussian 16, Revision A.03,
 Gaussian 16:  EM64L-G16RevA.03 25-Dec-2016

 -------------
 #p 6-31g* mp2
 -------------

 ------------------------------------------------------
 Input file generated by CHIRIPA (05-May-2021 14:51:08)
 ------------------------------------------------------
 Symbolic Z-matrix:
 Charge =  0 Multiplicity = 1

                         Standard orientation:
 ---------------------------------------------------------------------
 Center     Atomic      Atomic             Coordinates (Angstroms)
 Number     Number       Type             X           Y           Z
 ---------------------------------------------------------------------
      1          6           0        3.380696   -0.621302   -0.310003
      2          6           0        4.740431   -1.201756    0.080097
      3          6           0        4.702418   -2.717967    0.273624
      4          1           0        2.644759   -0.875096    0.465193
      5          1           0        3.036958   -1.101636   -1.236565
      6          1           0        5.082140   -0.719477    1.004899
      7          1           0        5.473261   -0.946386   -0.696024
      8          1           0        4.385905   -3.216203   -0.648429
      9          1           0        3.992563   -2.988005    1.062158
     10          1           0        5.684833   -3.111903    0.552078
     11          6           0        3.402600    0.893435   -0.507038
     12          6           0        2.042865    1.473889   -0.897138
     13          6           0        2.080878    2.990100   -1.090665
     14          1           0        3.746338    1.373769    0.419525
     15          1           0        4.138537    1.147229   -1.282234
     16          1           0        1.310035    1.218519   -0.121017
     17          1           0        1.701156    0.991610   -1.821939
     18          1           0        2.790733    3.260138   -1.879199
     19          1           0        2.397391    3.488336   -0.168612
     20          1           0        1.098463    3.384036   -1.369119
     21          6           0       -4.108853   -0.120846    0.146190
     22          6           0       -4.335318   -1.041260   -1.053617
     23          6           0       -5.774925   -0.999829   -1.567043
     24          1           0       -4.796198   -0.406450    0.954232
     25          1           0       -4.368951    0.908741   -0.136114
     26          1           0       -4.073553   -2.068587   -0.769547
     27          1           0       -3.647222   -0.753554   -1.858827
     28          1           0       -6.044238    0.014983   -1.877255
     29          1           0       -6.472992   -1.307522   -0.781786
     30          1           0       -5.914539   -1.665092   -2.424827
     31          6           0       -2.674443   -0.151287    0.670851
     32          6           0       -2.447978    0.769127    1.870657
     33          6           0       -1.008370    0.727695    2.384084
     34          1           0       -2.414345   -1.180874    0.953155
     35          1           0       -1.987098    0.134317   -0.137191
     36          1           0       -3.136075    0.481421    2.675868
     37          1           0       -2.709744    1.796454    1.586589
     38          1           0       -0.310305    1.035390    1.598827
     39          1           0       -0.739058   -0.287115    2.694295
     40          1           0       -0.868758    1.392959    3.241867
 ---------------------------------------------------------------------

 SCF Done:  E(RHF) =  -470.733393451     A.U. after   11 cycles
 E2 =    -0.1582677013D+01 EUMP2 =    -0.47231607046422D+03

 The electronic state is 1-A.
 Alpha  occ. eigenvalues --  -11.21621 -11.21615 -11.21599 -11.21584 -11.21405
 Alpha  occ. eigenvalues --  -11.21395 -11.21346 -11.21332 -11.21104 -11.21095
 Alpha  occ. eigenvalues --  -11.21069 -11.21055  -1.08440  -1.08421  -1.03553
 Alpha  occ. eigenvalues --   -1.03520  -0.95996  -0.95974  -0.87020  -0.86985
 Alpha  occ. eigenvalues --   -0.79653  -0.79553  -0.78277  -0.78205  -0.65121
 Alpha  occ. eigenvalues --   -0.65010  -0.61060  -0.60827  -0.59380  -0.59326
 Alpha  occ. eigenvalues --   -0.57624  -0.57569  -0.55333  -0.55216  -0.52687
 Alpha  occ. eigenvalues --   -0.52678  -0.52443  -0.52386  -0.50033  -0.49847
 Alpha  occ. eigenvalues --   -0.48050  -0.47825  -0.46801  -0.46472  -0.45905
 Alpha  occ. eigenvalues --   -0.45745  -0.45722  -0.45498  -0.43794  -0.43781
 Alpha virt. eigenvalues --    0.21047   0.23095   0.23695   0.24733   0.25783
 Alpha virt. eigenvalues --    0.26718   0.27119   0.27728   0.28052   0.29102
 Alpha virt. eigenvalues --    0.30336   0.31603   0.31768   0.31864   0.31997

 Mulliken charges:
               1
     1  C   -0.298793
     2  C   -0.299679
     3  C   -0.475707
     4  H    0.150550
     5  H    0.149419
     6  H    0.152035
     7  H    0.151825
     8  H    0.155124
     9  H    0.155273
    10  H    0.160177
    11  C   -0.297475
    12  C   -0.309796
    13  C   -0.475170
    14  H    0.149732
    15  H    0.149653
    16  H    0.160234
    17  H    0.151941
    18  H    0.155458
    19  H    0.155457
    20  H    0.159649
    21  C   -0.298331
    22  C   -0.299674
    23  C   -0.475714
    24  H    0.149647
    25  H    0.149509
    26  H    0.151969
    27  H    0.152070
    28  H    0.155168
    29  H    0.155160
    30  H    0.160255
    31  C   -0.298989
    32  C   -0.299028
    33  C   -0.484260
    34  H    0.149522
    35  H    0.150517
    36  H    0.152062
    37  H    0.151994
    38  H    0.162644
    39  H    0.155045
    40  H    0.160523
 Sum of Mulliken charges =  -0.00000

 Dipole moment (field-independent basis, Debye):
    X=              0.0007    Y=             -0.0014    Z=              0.0030  Tot=              0.0034
 Quadrupole moment (field-independent basis, Debye-Ang):
   XX=            -85.6982   YY=            -85.3920   ZZ=            -83.6799
   XY=              0.2397   XZ=             -0.8824   YZ=             -0.2011

 Normal termination of Gaussian 16 at Wed May  5 22:55:56 2021.
