 Gaussian 16, Revision A.03,
 Gaussian 16:  EM64L-G16RevA.03 25-Dec-2016

 -------------
 #p 6-31g* mp2
 -------------

 ------------------------------------------------------
 Input file generated by CHIRIPA (05-May-2021 14:51:09)
 ------------------------------------------------------
 Symbolic Z-matrix:
 Charge =  0 Multiplicity = 1

                         Standard orientation:
 ---------------------------------------------------------------------
 Center     Atomic      Atomic             Coordinates (Angstroms)
 Number     Number       Type             X           Y           Z
 ---------------------------------------------------------------------
      1          6           0        3.053822    1.057641    0.388829
      2          6           0        3.290541    2.259468   -0.526355
      3          6           0        3.124806    3.595771    0.197951
      4          1           0        2.043224    1.122602    0.814760
      5          1           0        3.753311    1.106433    1.234838
      6          1           0        2.591747    2.207682   -1.371116
      7          1           0        4.300623    2.191537   -0.950306
      8          1           0        3.832125    3.673296    1.029991
      9          1           0        2.113539    3.689532    0.606790
     10          1           0        3.298477    4.441350   -0.474876
     11          6           0        3.215886   -0.285435   -0.320825
     12          6           0        2.979168   -1.487261    0.594359
     13          6           0        3.144903   -2.823565   -0.129947
     14          1           0        2.516397   -0.334227   -1.166834
     15          1           0        4.226484   -0.350396   -0.746756
     16          1           0        1.969085   -1.419331    1.018310
     17          1           0        3.677961   -1.435476    1.439120
     18          1           0        4.156169   -2.917326   -0.538786
     19          1           0        2.437584   -2.901089   -0.961987
     20          1           0        2.971231   -3.669143    0.542880
     21          6           0       -3.763128   -0.072153    0.266230
     22          6           0       -4.158505    1.247103   -0.398018
     23          6           0       -5.417290    1.862932    0.213546
     24          1           0       -4.597723   -0.781728    0.183171
     25          1           0       -3.604181    0.099156    1.339908
     26          1           0       -4.315312    1.073637   -1.470369
     27          1           0       -3.322801    1.953557   -0.313537
     28          1           0       -5.268835    2.064408    1.279365
     29          1           0       -6.266986    1.179488    0.115960
     30          1           0       -5.681867    2.805262   -0.276222
     31          6           0       -2.506580   -0.700054   -0.334234
     32          6           0       -2.111203   -2.019310    0.330014
     33          6           0       -0.852418   -2.635137   -0.281550
     34          1           0       -2.665527   -0.871362   -1.407912
     35          1           0       -1.671985    0.009522   -0.251175
     36          1           0       -2.946907   -2.725764    0.245533
     37          1           0       -1.954396   -1.845843    1.402365
     38          1           0       -0.002723   -1.951695   -0.183965
     39          1           0       -1.000873   -2.836614   -1.347369
     40          1           0       -0.587842   -3.577468    0.208218
 ---------------------------------------------------------------------

 SCF Done:  E(RHF) =  -470.732976218     A.U. after   11 cycles
 E2 =    -0.1583207904D+01 EUMP2 =    -0.47231618412195D+03

 The electronic state is 1-A.
 Alpha  occ. eigenvalues --  -11.21635 -11.21633 -11.21616 -11.21567 -11.21448
 Alpha  occ. eigenvalues --  -11.21419 -11.21387 -11.21357 -11.21094 -11.21088
 Alpha  occ. eigenvalues --  -11.21071 -11.20993  -1.08476  -1.08430  -1.03592
 Alpha  occ. eigenvalues --   -1.03494  -0.96046  -0.95934  -0.87041  -0.86974
 Alpha  occ. eigenvalues --   -0.79632  -0.79582  -0.78285  -0.78248  -0.65218
 Alpha  occ. eigenvalues --   -0.64987  -0.61204  -0.60722  -0.59394  -0.59319
 Alpha  occ. eigenvalues --   -0.57619  -0.57575  -0.55453  -0.55105  -0.52712
 Alpha  occ. eigenvalues --   -0.52636  -0.52463  -0.52351  -0.49985  -0.49881
 Alpha  occ. eigenvalues --   -0.48026  -0.47812  -0.46758  -0.46525  -0.45891
 Alpha  occ. eigenvalues --   -0.45778  -0.45726  -0.45629  -0.43817  -0.43774
 Alpha virt. eigenvalues --    0.20568   0.23115   0.23717   0.24816   0.26043
 Alpha virt. eigenvalues --    0.26699   0.27274   0.27579   0.28167   0.29139
 Alpha virt. eigenvalues --    0.30596   0.31352   0.31549   0.31949   0.32174

 Mulliken charges:
               1
     1  C   -0.297918
     2  C   -0.299721
     3  C   -0.475652
     4  H    0.148469
     5  H    0.149745
     6  H    0.152079
     7  H    0.152124
     8  H    0.155237
     9  H    0.154887
    10  H    0.160380
    11  C   -0.299848
    12  C   -0.303398
    13  C   -0.476709
    14  H    0.150047
    15  H    0.150097
    16  H    0.153805
    17  H    0.152524
    18  H    0.154559
    19  H    0.158641
    20  H    0.159988
    21  C   -0.298313
    22  C   -0.299650
    23  C   -0.475736
    24  H    0.149876
    25  H    0.149596
    26  H    0.151987
    27  H    0.151764
    28  H    0.155250
    29  H    0.155264
    30  H    0.160368
    31  C   -0.298212
    32  C   -0.300334
    33  C   -0.481645
    34  H    0.149664
    35  H    0.148649
    36  H    0.152211
    37  H    0.151817
    38  H    0.162204
    39  H    0.154729
    40  H    0.161174
 Sum of Mulliken charges =  -0.00000

 Dipole moment (field-independent basis, Debye):
    X=             -0.0033    Y=             -0.0165    Z=             -0.0094  Tot=              0.0192
 Quadrupole moment (field-independent basis, Debye-Ang):
   XX=            -84.2417   YY=            -85.9010   ZZ=            -84.5425
   XY=              0.8917   XZ=              0.9444   YZ=             -0.2345

 Normal termination of Gaussian 16 at Wed May  5 16:39:27 2021.
