 Gaussian 16, Revision A.03,
 Gaussian 16:  EM64L-G16RevA.03 25-Dec-2016

 -------------
 #p 6-31g* mp2
 -------------

 ------------------------------------------------------
 Input file generated by CHIRIPA (05-May-2021 14:55:22)
 ------------------------------------------------------
 Symbolic Z-matrix:
 Charge =  0 Multiplicity = 1

                         Standard orientation:
 ---------------------------------------------------------------------
 Center     Atomic      Atomic             Coordinates (Angstroms)
 Number     Number       Type             X           Y           Z
 ---------------------------------------------------------------------
      1          6           0       -1.572644    2.487753    0.077622
      2          6           0       -0.984242    1.228874   -0.082152
      3          6           0       -1.775726    0.078270   -0.147067
      4          6           0       -3.158602    0.223872   -0.048353
      5          6           0       -3.774578    1.464187    0.111278
      6          6           0       -2.963482    2.601192    0.173658
      7          1           0       -0.950182    3.376287    0.127065
      8          1           0        0.095637    1.137762   -0.157015
      9          1           0       -1.346444   -0.908610   -0.270368
     10          1           0       -4.853833    1.523260    0.182950
     11          1           0       -3.423192    3.577565    0.297782
     12          7           0       -4.006891   -0.987022   -0.115734
     13          8           0       -5.222862   -0.831941   -0.026272
     14          8           0       -3.439748   -2.068274   -0.256733
     15          6           0        4.108595    0.172121    0.164535
     16          6           0        5.534883    0.413359   -0.330939
     17          6           0        6.009868    1.846602   -0.090116
     18          1           0        3.429107    0.874354   -0.337571
     19          1           0        4.057174    0.400932    1.238033
     20          1           0        5.583924    0.182836   -1.402885
     21          1           0        6.211027   -0.289658    0.172263
     22          1           0        5.989562    2.084784    0.978275
     23          1           0        5.358897    2.559961   -0.605824
     24          1           0        7.031818    1.996987   -0.451867
     25          6           0        3.619516   -1.256132   -0.069180
     26          6           0        2.193229   -1.497370    0.426293
     27          6           0        1.718242   -2.930613    0.185470
     28          1           0        3.670937   -1.484943   -1.142678
     29          1           0        4.299004   -1.958365    0.432925
     30          1           0        1.517085   -0.794354   -0.076909
     31          1           0        2.144187   -1.266847    1.498239
     32          1           0        2.369214   -3.643973    0.701178
     33          1           0        1.738548   -3.168795   -0.882920
     34          1           0        0.696292   -3.080999    0.547221
 ---------------------------------------------------------------------

 SCF Done:  E(RHF) =  -669.535430719     A.U. after   15 cycles
 E2 =    -0.2091693684D+01 EUMP2 =    -0.67162712440316D+03

 The electronic state is 1-A.
 Alpha  occ. eigenvalues --  -20.60729 -20.60724 -15.85781 -11.31132 -11.27703
 Alpha  occ. eigenvalues --  -11.27682 -11.27439 -11.26719 -11.26674 -11.22431
 Alpha  occ. eigenvalues --  -11.22185 -11.22113 -11.22027 -11.21612 -11.21544
 Alpha  occ. eigenvalues --   -1.59804  -1.39358  -1.19302  -1.09113  -1.08701
 Alpha  occ. eigenvalues --   -1.04707  -1.04157  -0.96572  -0.95538  -0.87582
 Alpha  occ. eigenvalues --   -0.86103  -0.82380  -0.80240  -0.78953  -0.77415
 Alpha  occ. eigenvalues --   -0.72000  -0.71127  -0.70416  -0.65765  -0.64954
 Alpha  occ. eigenvalues --   -0.64707  -0.62155  -0.61479  -0.59927  -0.58193
 Alpha  occ. eigenvalues --   -0.55849  -0.55205  -0.53245  -0.53034  -0.53030
 Alpha  occ. eigenvalues --   -0.52774  -0.50505  -0.48763  -0.48756  -0.48528
 Alpha  occ. eigenvalues --   -0.47277  -0.46475  -0.46384  -0.44767  -0.44411
 Alpha  occ. eigenvalues --   -0.37286  -0.36304
 Alpha virt. eigenvalues --    0.05109   0.11345   0.16603   0.19145   0.22619
 Alpha virt. eigenvalues --    0.23260   0.24399   0.26034   0.26437   0.28570
 Alpha virt. eigenvalues --    0.29225   0.30311   0.31170   0.31487   0.32470

 Mulliken charges:
               1
     1  C   -0.171022
     2  C   -0.223687
     3  C   -0.175000
     4  C    0.158684
     5  C   -0.170908
     6  C   -0.218671
     7  H    0.225689
     8  H    0.229162
     9  H    0.278513
    10  H    0.275350
    11  H    0.223164
    12  N    0.488069
    13  O   -0.460611
    14  O   -0.460763
    15  C   -0.298424
    16  C   -0.300102
    17  C   -0.475981
    18  H    0.142345
    19  H    0.150617
    20  H    0.153480
    21  H    0.154534
    22  H    0.155660
    23  H    0.153423
    24  H    0.162626
    25  C   -0.298202
    26  C   -0.305536
    27  C   -0.479469
    28  H    0.151768
    29  H    0.153826
    30  H    0.141936
    31  H    0.155259
    32  H    0.159421
    33  H    0.158156
    34  H    0.166696
 Sum of Mulliken charges =  -0.00000

 Dipole moment (field-independent basis, Debye):
    X=              3.1823    Y=              4.1305    Z=              0.2738  Tot=              5.2214
 Quadrupole moment (field-independent basis, Debye-Ang):
   XX=           -109.8667   YY=            -92.1022   ZZ=            -94.7626
   XY=            -16.4770   XZ=             -1.0594   YZ=             -0.2075

 Normal termination of Gaussian 16 at Thu May  6 15:51:05 2021.
