 Gaussian 16, Revision A.03,
 Gaussian 16:  EM64L-G16RevA.03 25-Dec-2016

 -------------
 #p 6-31g* mp2
 -------------

 ------------------------------------------------------
 Input file generated by CHIRIPA (05-May-2021 14:51:11)
 ------------------------------------------------------
 Symbolic Z-matrix:
 Charge =  0 Multiplicity = 1

                         Standard orientation:
 ---------------------------------------------------------------------
 Center     Atomic      Atomic             Coordinates (Angstroms)
 Number     Number       Type             X           Y           Z
 ---------------------------------------------------------------------
      1          6           0        2.698056    0.965775    0.008598
      2          6           0        2.876490   -0.431236   -0.586806
      3          6           0        4.326205   -0.914545   -0.536475
      4          1           0        3.340891    1.673114   -0.533047
      5          1           0        3.047721    0.960195    1.050279
      6          1           0        2.525307   -0.423368   -1.626625
      7          1           0        2.233011   -1.135297   -0.043805
      8          1           0        4.684493   -0.950895    0.497406
      9          1           0        4.978449   -0.234921   -1.094408
     10          1           0        4.430970   -1.915218   -0.967216
     11          6           0        1.254155    1.462788   -0.034495
     12          6           0        1.075721    2.859800    0.560909
     13          6           0       -0.373994    3.343108    0.510578
     14          1           0        0.904490    1.468368   -1.076175
     15          1           0        0.611320    0.755449    0.507150
     16          1           0        1.719200    3.563860    0.017908
     17          1           0        1.426904    2.851931    1.600729
     18          1           0       -1.026239    2.663485    1.068511
     19          1           0       -0.732282    3.379459   -0.523302
     20          1           0       -0.478759    4.343781    0.941319
     21          6           0       -1.591068   -1.647132    0.510762
     22          6           0       -0.578554   -2.580602   -0.153645
     23          6           0        0.183833   -3.440071    0.855252
     24          1           0       -1.067492   -0.998019    1.225929
     25          1           0       -2.302901   -2.246162    1.095445
     26          1           0        0.130326   -1.980093   -0.738019
     27          1           0       -1.104574   -3.227439   -0.867452
     28          1           0       -0.508025   -4.063565    1.430742
     29          1           0        0.733891   -2.809132    1.560910
     30          1           0        0.902250   -4.099802    0.358772
     31          6           0       -2.361143   -0.781431   -0.484865
     32          6           0       -3.373657    0.152039    0.179541
     33          6           0       -4.136044    1.011507   -0.829356
     34          1           0       -1.649310   -0.182402   -1.069548
     35          1           0       -2.884719   -1.430545   -1.200031
     36          1           0       -2.847637    0.798875    0.893349
     37          1           0       -4.082537   -0.448470    0.763917
     38          1           0       -4.686102    0.380569   -1.535013
     39          1           0       -3.444186    1.635002   -1.404846
     40          1           0       -4.854461    1.671239   -0.332876
 ---------------------------------------------------------------------

 SCF Done:  E(RHF) =  -470.732300896     A.U. after   11 cycles
 E2 =    -0.1586160649D+01 EUMP2 =    -0.47231846154431D+03

 The electronic state is 1-A.
 Alpha  occ. eigenvalues --  -11.21687 -11.21626 -11.21545 -11.21511 -11.21487
 Alpha  occ. eigenvalues --  -11.21423 -11.21361 -11.21283 -11.21155 -11.21100
 Alpha  occ. eigenvalues --  -11.21088 -11.21012  -1.08550  -1.08353  -1.03628
 Alpha  occ. eigenvalues --   -1.03465  -0.96067  -0.95931  -0.87067  -0.86962
 Alpha  occ. eigenvalues --   -0.79706  -0.79530  -0.78383  -0.78171  -0.65422
 Alpha  occ. eigenvalues --   -0.64772  -0.61221  -0.60738  -0.59413  -0.59288
 Alpha  occ. eigenvalues --   -0.57691  -0.57547  -0.55459  -0.55139  -0.52737
 Alpha  occ. eigenvalues --   -0.52639  -0.52513  -0.52309  -0.50116  -0.49776
 Alpha  occ. eigenvalues --   -0.48188  -0.47703  -0.46746  -0.46595  -0.46212
 Alpha  occ. eigenvalues --   -0.45945  -0.45432  -0.45257  -0.43851  -0.43734
 Alpha virt. eigenvalues --    0.19444   0.21627   0.23754   0.24497   0.25192
 Alpha virt. eigenvalues --    0.25922   0.26663   0.28096   0.28734   0.29743
 Alpha virt. eigenvalues --    0.30824   0.31375   0.31638   0.32021   0.32374

 Mulliken charges:
               1
     1  C   -0.297571
     2  C   -0.308438
     3  C   -0.474965
     4  H    0.149980
     5  H    0.149363
     6  H    0.151465
     7  H    0.161997
     8  H    0.155182
     9  H    0.155130
    10  H    0.160502
    11  C   -0.306466
    12  C   -0.299429
    13  C   -0.480134
    14  H    0.149672
    15  H    0.156846
    16  H    0.152481
    17  H    0.152071
    18  H    0.158802
    19  H    0.155475
    20  H    0.161033
    21  C   -0.300077
    22  C   -0.306993
    23  C   -0.476633
    24  H    0.149126
    25  H    0.149883
    26  H    0.159344
    27  H    0.152161
    28  H    0.155672
    29  H    0.153865
    30  H    0.160528
    31  C   -0.300969
    32  C   -0.302706
    33  C   -0.475848
    34  H    0.153349
    35  H    0.149407
    36  H    0.154539
    37  H    0.151566
    38  H    0.154758
    39  H    0.155903
    40  H    0.160130
 Sum of Mulliken charges =  -0.00000

 Dipole moment (field-independent basis, Debye):
    X=              0.0390    Y=              0.0222    Z=             -0.0119  Tot=              0.0464
 Quadrupole moment (field-independent basis, Debye-Ang):
   XX=            -85.7139   YY=            -84.7726   ZZ=            -84.3040
   XY=              1.4689   XZ=             -0.4324   YZ=              0.1183

 Normal termination of Gaussian 16 at Wed May  5 21:27:54 2021.
