 Gaussian 16, Revision A.03,
 Gaussian 16:  EM64L-G16RevA.03 25-Dec-2016

 -------------
 #p 6-31g* mp2
 -------------

 ------------------------------------------------------
 Input file generated by CHIRIPA (05-May-2021 14:51:10)
 ------------------------------------------------------
 Symbolic Z-matrix:
 Charge =  0 Multiplicity = 1

                         Standard orientation:
 ---------------------------------------------------------------------
 Center     Atomic      Atomic             Coordinates (Angstroms)
 Number     Number       Type             X           Y           Z
 ---------------------------------------------------------------------
      1          6           0       -3.429625    0.761580    0.119588
      2          6           0       -4.767281    1.474218   -0.082425
      3          6           0       -4.766133    2.900747    0.467854
      4          1           0       -3.189838    0.742412    1.191539
      5          1           0       -2.634999    1.343059   -0.368108
      6          1           0       -5.559350    0.890851    0.404325
      7          1           0       -5.004004    1.491523   -1.154002
      8          1           0       -3.996298    3.503192   -0.025113
      9          1           0       -4.554800    2.899107    1.542069
     10          1           0       -5.731993    3.391613    0.312856
     11          6           0       -3.415123   -0.665509   -0.425329
     12          6           0       -2.077466   -1.378146   -0.223317
     13          6           0       -2.078615   -2.804675   -0.773595
     14          1           0       -4.209749   -1.246987    0.062367
     15          1           0       -3.654910   -0.646340   -1.497280
     16          1           0       -1.840743   -1.395451    0.848261
     17          1           0       -1.285397   -0.794779   -0.710066
     18          1           0       -2.289947   -2.803035   -1.847810
     19          1           0       -2.848449   -3.407120   -0.280628
     20          1           0       -1.112754   -3.295542   -0.618597
     21          6           0        2.898781   -0.372217    0.604744
     22          6           0        2.420425   -1.733535    0.098806
     23          6           0        1.373124   -2.369441    1.013453
     24          1           0        3.314539   -0.489018    1.614916
     25          1           0        2.035092    0.300633    0.698078
     26          1           0        3.284948   -2.403192    0.005135
     27          1           0        2.005931   -1.613512   -0.910355
     28          1           0        0.493012   -1.723866    1.098518
     29          1           0        1.779295   -2.518032    2.019211
     30          1           0        1.045121   -3.341809    0.632960
     31          6           0        3.945967    0.276145   -0.299002
     32          6           0        4.424323    1.637463    0.206935
     33          6           0        5.471623    2.273370   -0.707712
     34          1           0        4.809655   -0.396704   -0.392337
     35          1           0        3.530210    0.392946   -1.309175
     36          1           0        4.838815    1.517440    1.216097
     37          1           0        3.559800    2.307121    0.300606
     38          1           0        5.065452    2.421961   -1.713469
     39          1           0        6.351735    1.627794   -0.792777
     40          1           0        5.799625    3.245737   -0.327218
 ---------------------------------------------------------------------

 SCF Done:  E(RHF) =  -470.732212449     A.U. after   11 cycles
 E2 =    -0.1583663118D+01 EUMP2 =    -0.47231587556718D+03

 The electronic state is 1-A.
 Alpha  occ. eigenvalues --  -11.21620 -11.21619 -11.21595 -11.21572 -11.21424
 Alpha  occ. eigenvalues --  -11.21391 -11.21363 -11.21331 -11.21088 -11.21068
 Alpha  occ. eigenvalues --  -11.21012 -11.20947  -1.08462  -1.08401  -1.03600
 Alpha  occ. eigenvalues --   -1.03453  -0.96064  -0.95879  -0.87031  -0.86949
 Alpha  occ. eigenvalues --   -0.79683  -0.79523  -0.78301  -0.78197  -0.65081
 Alpha  occ. eigenvalues --   -0.65050  -0.60992  -0.60935  -0.59538  -0.59168
 Alpha  occ. eigenvalues --   -0.57655  -0.57554  -0.55277  -0.55163  -0.52899
 Alpha  occ. eigenvalues --   -0.52551  -0.52423  -0.52228  -0.49960  -0.49855
 Alpha  occ. eigenvalues --   -0.48124  -0.47700  -0.46738  -0.46523  -0.45875
 Alpha  occ. eigenvalues --   -0.45745  -0.45727  -0.45549  -0.43887  -0.43651
 Alpha virt. eigenvalues --    0.21220   0.23104   0.23459   0.25253   0.26139
 Alpha virt. eigenvalues --    0.26280   0.26966   0.27441   0.27973   0.29110
 Alpha virt. eigenvalues --    0.29890   0.30828   0.31256   0.31840   0.32654

 Mulliken charges:
               1
     1  C   -0.298374
     2  C   -0.299633
     3  C   -0.475719
     4  H    0.149556
     5  H    0.149006
     6  H    0.152081
     7  H    0.151996
     8  H    0.155074
     9  H    0.155236
    10  H    0.160354
    11  C   -0.297348
    12  C   -0.302248
    13  C   -0.479988
    14  H    0.149749
    15  H    0.149609
    16  H    0.153500
    17  H    0.151453
    18  H    0.154625
    19  H    0.154922
    20  H    0.166238
    21  C   -0.298704
    22  C   -0.300123
    23  C   -0.484085
    24  H    0.149695
    25  H    0.149808
    26  H    0.151709
    27  H    0.151847
    28  H    0.165603
    29  H    0.154369
    30  H    0.160053
    31  C   -0.298232
    32  C   -0.299650
    33  C   -0.475684
    34  H    0.149548
    35  H    0.149387
    36  H    0.151966
    37  H    0.151892
    38  H    0.155080
    39  H    0.155192
    40  H    0.160237
 Sum of Mulliken charges =  -0.00000

 Dipole moment (field-independent basis, Debye):
    X=             -0.0236    Y=             -0.0022    Z=              0.0124  Tot=              0.0268
 Quadrupole moment (field-independent basis, Debye-Ang):
   XX=            -84.8352   YY=            -85.9403   ZZ=            -84.1262
   XY=             -0.4652   XZ=              0.5420   YZ=             -0.6074

 Normal termination of Gaussian 16 at Wed May  5 23:02:17 2021.
