 Gaussian 16, Revision A.03,
 Gaussian 16:  EM64L-G16RevA.03 25-Dec-2016

 -------------
 #p 6-31g* mp2
 -------------

 ------------------------------------------------------
 Input file generated by CHIRIPA (05-May-2021 14:55:21)
 ------------------------------------------------------
 Symbolic Z-matrix:
 Charge =  0 Multiplicity = 1

                         Standard orientation:
 ---------------------------------------------------------------------
 Center     Atomic      Atomic             Coordinates (Angstroms)
 Number     Number       Type             X           Y           Z
 ---------------------------------------------------------------------
      1          6           0        1.077442   -2.602934    1.317528
      2          6           0        1.459429   -1.414616    1.948801
      3          6           0        1.866752   -0.309593    1.195435
      4          6           0        1.880130   -0.428328   -0.193455
      5          6           0        1.505363   -1.598607   -0.851699
      6          6           0        1.101586   -2.690982   -0.078247
      7          1           0        0.762401   -3.456430    1.910562
      8          1           0        1.441667   -1.343368    3.032615
      9          1           0        2.167606    0.622428    1.658299
     10          1           0        1.533475   -1.639408   -1.933809
     11          1           0        0.805468   -3.612582   -0.571210
     12          7           0        2.309467    0.734816   -1.001642
     13          8           0        2.312468    0.604695   -2.223810
     14          8           0        2.634852    1.754584   -0.397627
     15          6           0       -2.671274    0.136877    0.237985
     16          6           0       -3.388364   -0.475260   -0.965782
     17          6           0       -4.094388   -1.788776   -0.628146
     18          1           0       -1.939888   -0.584738    0.626945
     19          1           0       -3.400172    0.307531    1.042338
     20          1           0       -2.658582   -0.643427   -1.768125
     21          1           0       -4.117994    0.247971   -1.352039
     22          1           0       -4.843401   -1.633286    0.155054
     23          1           0       -3.375697   -2.529749   -0.263396
     24          1           0       -4.600432   -2.208953   -1.502921
     25          6           0       -1.960712    1.450394   -0.083731
     26          6           0       -1.243623    2.062531    1.120036
     27          6           0       -0.537598    3.376047    0.782401
     28          1           0       -1.231816    1.279740   -0.888084
     29          1           0       -2.692099    2.172009   -0.472691
     30          1           0       -0.513993    1.339300    1.506293
     31          1           0       -1.973404    2.230698    1.922380
     32          1           0       -1.256289    4.117020    0.417651
     33          1           0        0.211414    3.220557   -0.000800
     34          1           0       -0.031554    3.796224    1.657175
 ---------------------------------------------------------------------

 SCF Done:  E(RHF) =  -669.535905113     A.U. after   15 cycles
 E2 =    -0.2094885857D+01 EUMP2 =    -0.67163079096928D+03

 The electronic state is 1-A.
 Alpha  occ. eigenvalues --  -20.61020 -20.61011 -15.86039 -11.31373 -11.27948
 Alpha  occ. eigenvalues --  -11.27930 -11.27688 -11.26953 -11.26942 -11.21624
 Alpha  occ. eigenvalues --  -11.21308 -11.21267 -11.21255 -11.21143 -11.20327
 Alpha  occ. eigenvalues --   -1.60077  -1.39631  -1.19557  -1.08951  -1.08281
 Alpha  occ. eigenvalues --   -1.04953  -1.03346  -0.95814  -0.95746  -0.86783
 Alpha  occ. eigenvalues --   -0.86345  -0.82620  -0.79424  -0.78086  -0.77672
 Alpha  occ. eigenvalues --   -0.72261  -0.71411  -0.70655  -0.65207  -0.64980
 Alpha  occ. eigenvalues --   -0.64886  -0.62300  -0.60742  -0.59183  -0.57389
 Alpha  occ. eigenvalues --   -0.55447  -0.55059  -0.53292  -0.53029  -0.52457
 Alpha  occ. eigenvalues --   -0.52192  -0.49719  -0.49026  -0.49014  -0.47742
 Alpha  occ. eigenvalues --   -0.46491  -0.45617  -0.45541  -0.44931  -0.43598
 Alpha  occ. eigenvalues --   -0.37508  -0.36484
 Alpha virt. eigenvalues --    0.04801   0.11057   0.16271   0.21077   0.22748
 Alpha virt. eigenvalues --    0.24172   0.26547   0.26958   0.27735   0.27791
 Alpha virt. eigenvalues --    0.28587   0.30889   0.31666   0.31841   0.32239

 Mulliken charges:
               1
     1  C   -0.170631
     2  C   -0.218392
     3  C   -0.171665
     4  C    0.160527
     5  C   -0.171391
     6  C   -0.218612
     7  H    0.226949
     8  H    0.225092
     9  H    0.277747
    10  H    0.276306
    11  H    0.224608
    12  N    0.487382
    13  O   -0.458753
    14  O   -0.458075
    15  C   -0.300207
    16  C   -0.299094
    17  C   -0.474890
    18  H    0.149372
    19  H    0.147665
    20  H    0.151707
    21  H    0.153450
    22  H    0.155308
    23  H    0.149797
    24  H    0.160168
    25  C   -0.297990
    26  C   -0.304534
    27  C   -0.481925
    28  H    0.150029
    29  H    0.150914
    30  H    0.147291
    31  H    0.148201
    32  H    0.152176
    33  H    0.175266
    34  H    0.156204
 Sum of Mulliken charges =  -0.00000

 Dipole moment (field-independent basis, Debye):
    X=             -1.2941    Y=             -4.1160    Z=              2.7626  Tot=              5.1233
 Quadrupole moment (field-independent basis, Debye-Ang):
   XX=           -100.8810   YY=            -90.8738   ZZ=            -92.5423
   XY=             -7.6087   XZ=              6.4204   YZ=              1.9344

 Normal termination of Gaussian 16 at Wed May  5 17:27:21 2021.
