 Gaussian 16, Revision A.03,
 Gaussian 16:  EM64L-G16RevA.03 25-Dec-2016

 -------------
 #p 6-31g* mp2
 -------------

 ------------------------------------------------------
 Input file generated by CHIRIPA (05-May-2021 14:57:23)
 ------------------------------------------------------
 Symbolic Z-matrix:
 Charge =  0 Multiplicity = 1

                         Standard orientation:
 ---------------------------------------------------------------------
 Center     Atomic      Atomic             Coordinates (Angstroms)
 Number     Number       Type             X           Y           Z
 ---------------------------------------------------------------------
      1          6           0        4.161827    1.287119    0.080591
      2          6           0        3.649606    0.919362   -1.167971
      3          6           0        2.647449   -0.050431   -1.266611
      4          6           0        2.178507   -0.634674   -0.091007
      5          6           0        2.668612   -0.289622    1.167574
      6          6           0        3.670562    0.682519    1.242330
      7          1           0        4.940246    2.041389    0.147940
      8          1           0        4.029232    1.387225   -2.071870
      9          1           0        2.233051   -0.353977   -2.220316
     10          1           0        2.270186   -0.773685    2.050952
     11          1           0        4.066488    0.966148    2.213330
     12          7           0        1.117679   -1.662593   -0.182791
     13          8           0        0.721423   -2.162390    0.867838
     14          8           0        0.702544   -1.949015   -1.303622
     15          6           0       -1.913356    2.948575    0.001859
     16          6           0       -2.271745    2.266075   -1.165305
     17          6           0       -2.517877    0.890171   -1.136060
     18          6           0       -2.395882    0.225183    0.083037
     19          6           0       -2.040557    0.877107    1.262879
     20          6           0       -1.799107    2.253138    1.210096
     21          1           0       -1.723973    4.017460   -0.030001
     22          1           0       -2.361227    2.803581   -2.105053
     23          1           0       -2.796872    0.337037   -2.024667
     24          1           0       -1.959316    0.314112    2.184756
     25          1           0       -1.520939    2.780581    2.118101
     26          7           0       -2.653972   -1.231493    0.126456
     27          8           0       -2.539773   -1.794400    1.213071
     28          8           0       -2.965576   -1.782746   -0.926948
 ---------------------------------------------------------------------

 SCF Done:  E(RHF) =  -868.335311605     A.U. after   16 cycles
 E2 =    -0.2603013543D+01 EUMP2 =    -0.87093832514788D+03

 The electronic state is 1-A.
 Alpha  occ. eigenvalues --  -20.60510 -20.60466 -20.59521 -20.59477 -15.85535
 Alpha  occ. eigenvalues --  -15.84570 -11.31151 -11.30497 -11.27752 -11.27749
 Alpha  occ. eigenvalues --  -11.27545 -11.27142 -11.27119 -11.27014 -11.26827
 Alpha  occ. eigenvalues --  -11.26816 -11.26299 -11.26274  -1.59576  -1.58539
 Alpha  occ. eigenvalues --   -1.39114  -1.38085  -1.19350  -1.18733  -1.08700
 Alpha  occ. eigenvalues --   -1.08024  -1.04791  -1.04216  -0.95487  -0.94762
 Alpha  occ. eigenvalues --   -0.86177  -0.85583  -0.82315  -0.81603  -0.77331
 Alpha  occ. eigenvalues --   -0.76533  -0.71721  -0.71090  -0.70804  -0.70459
 Alpha  occ. eigenvalues --   -0.69833  -0.69701  -0.64995  -0.64795  -0.64368
 Alpha  occ. eigenvalues --   -0.64228  -0.62135  -0.61548  -0.55285  -0.54715
 Alpha  occ. eigenvalues --   -0.53112  -0.52886  -0.52520  -0.52314  -0.48495
 Alpha  occ. eigenvalues --   -0.48491  -0.47592  -0.47518  -0.44615  -0.43166
 Alpha  occ. eigenvalues --   -0.37348  -0.36755  -0.36413  -0.35843
 Alpha virt. eigenvalues --    0.05185   0.06037   0.11231   0.11808   0.16637
 Alpha virt. eigenvalues --    0.17415   0.21347   0.21857   0.27231   0.27724
 Alpha virt. eigenvalues --    0.28252   0.28834   0.30845   0.31391   0.32462

 Mulliken charges:
               1
     1  C   -0.171950
     2  C   -0.218886
     3  C   -0.171060
     4  C    0.159999
     5  C   -0.172300
     6  C   -0.219149
     7  H    0.224263
     8  H    0.222196
     9  H    0.275632
    10  H    0.276005
    11  H    0.222146
    12  N    0.482400
    13  O   -0.451168
    14  O   -0.457657
    15  C   -0.172690
    16  C   -0.220033
    17  C   -0.169242
    18  C    0.157045
    19  C   -0.172757
    20  C   -0.219225
    21  H    0.221150
    22  H    0.220084
    23  H    0.277486
    24  H    0.276805
    25  H    0.218948
    26  N    0.491743
    27  O   -0.452655
    28  O   -0.457130
 Sum of Mulliken charges =  -0.00000

 Dipole moment (field-independent basis, Debye):
    X=              4.5895    Y=              8.3251    Z=              0.1766  Tot=              9.5080
 Quadrupole moment (field-independent basis, Debye-Ang):
   XX=            -94.6363   YY=           -108.6592   ZZ=            -95.1392
   XY=             -6.0223   XZ=              2.0085   YZ=             -0.8849

 Normal termination of Gaussian 16 at Wed May  5 22:38:48 2021.
