 Gaussian 16, Revision A.03,
 Gaussian 16:  EM64L-G16RevA.03 25-Dec-2016

 -------------
 #p 6-31g* mp2
 -------------

 ------------------------------------------------------
 Input file generated by CHIRIPA (05-May-2021 14:57:25)
 ------------------------------------------------------
 Symbolic Z-matrix:
 Charge =  0 Multiplicity = 1

                         Standard orientation:
 ---------------------------------------------------------------------
 Center     Atomic      Atomic             Coordinates (Angstroms)
 Number     Number       Type             X           Y           Z
 ---------------------------------------------------------------------
      1          6           0       -2.242817    2.329208   -0.111074
      2          6           0       -2.160746    1.469868   -1.211673
      3          6           0       -2.679721    0.173654   -1.140654
      4          6           0       -3.276741   -0.232185    0.051887
      5          6           0       -3.373800    0.600554    1.165626
      6          6           0       -2.848015    1.892579    1.071977
      7          1           0       -1.837019    3.334511   -0.175033
      8          1           0       -1.691292    1.806261   -2.131727
      9          1           0       -2.629676   -0.512305   -1.977537
     10          1           0       -3.847578    0.236777    2.069296
     11          1           0       -2.913167    2.557786    1.928307
     12          7           0       -3.829761   -1.602210    0.139050
     13          8           0       -4.350838   -1.935741    1.201064
     14          8           0       -3.731671   -2.316565   -0.856296
     15          6           0        1.326231    1.668255   -0.420768
     16          6           0        2.532277    2.086722    0.150946
     17          6           0        3.569364    1.174621    0.367909
     18          6           0        3.365354   -0.154275   -0.000470
     19          6           0        2.175312   -0.601876   -0.572087
     20          6           0        1.151904    0.327656   -0.779827
     21          1           0        0.525910    2.383567   -0.585728
     22          1           0        2.670467    3.127222    0.430780
     23          1           0        4.513257    1.471520    0.808743
     24          1           0        2.067113   -1.645703   -0.840670
     25          1           0        0.216343   -0.000168   -1.224013
     26          7           0        4.456029   -1.129102    0.224337
     27          8           0        4.251345   -2.294286   -0.108960
     28          8           0        5.494934   -0.709529    0.729581
 ---------------------------------------------------------------------

 SCF Done:  E(RHF) =  -868.333962335     A.U. after   16 cycles
 E2 =    -0.2604379889D+01 EUMP2 =    -0.87093834222361D+03

 The electronic state is 1-A.
 Alpha  occ. eigenvalues --  -20.61633 -20.61621 -20.60895 -20.60884 -15.86694
 Alpha  occ. eigenvalues --  -15.85946 -11.32355 -11.31390 -11.28978 -11.28873
 Alpha  occ. eigenvalues --  -11.28782 -11.28093 -11.27983 -11.27964 -11.27923
 Alpha  occ. eigenvalues --  -11.27753 -11.27064 -11.26899  -1.60699  -1.59966
 Alpha  occ. eigenvalues --   -1.40245  -1.39517  -1.20575  -1.19574  -1.09941
 Alpha  occ. eigenvalues --   -1.08970  -1.06026  -1.04977  -0.96718  -0.95793
 Alpha  occ. eigenvalues --   -0.87411  -0.86393  -0.83538  -0.82615  -0.78512
 Alpha  occ. eigenvalues --   -0.77638  -0.72909  -0.72166  -0.72028  -0.71802
 Alpha  occ. eigenvalues --   -0.71290  -0.70708  -0.66223  -0.66025  -0.65227
 Alpha  occ. eigenvalues --   -0.65048  -0.63316  -0.62345  -0.56587  -0.55586
 Alpha  occ. eigenvalues --   -0.54336  -0.54083  -0.53296  -0.52980  -0.49687
 Alpha  occ. eigenvalues --   -0.49643  -0.48933  -0.48914  -0.45585  -0.44904
 Alpha  occ. eigenvalues --   -0.38608  -0.37629  -0.37462  -0.36568
 Alpha virt. eigenvalues --    0.03919   0.04918   0.09898   0.11033   0.15227
 Alpha virt. eigenvalues --    0.16399   0.18981   0.22282   0.25316   0.25743
 Alpha virt. eigenvalues --    0.28045   0.29420   0.30051   0.30778   0.32685

 Mulliken charges:
               1
     1  C   -0.174846
     2  C   -0.227581
     3  C   -0.178212
     4  C    0.162511
     5  C   -0.168448
     6  C   -0.215687
     7  H    0.224398
     8  H    0.226023
     9  H    0.278704
    10  H    0.280683
    11  H    0.228308
    12  N    0.487897
    13  O   -0.455563
    14  O   -0.458208
    15  C   -0.169432
    16  C   -0.219782
    17  C   -0.170933
    18  C    0.158954
    19  C   -0.171974
    20  C   -0.219577
    21  H    0.213733
    22  H    0.220772
    23  H    0.275825
    24  H    0.278470
    25  H    0.224944
    26  N    0.487889
    27  O   -0.458394
    28  O   -0.460475
 Sum of Mulliken charges =  -0.00000

 Dipole moment (field-independent basis, Debye):
    X=             -2.2377    Y=              8.0561    Z=             -0.8972  Tot=              8.4091
 Quadrupole moment (field-independent basis, Debye-Ang):
   XX=           -141.4629   YY=           -106.4082   ZZ=           -100.3361
   XY=             -2.1689   XZ=             -2.2726   YZ=              3.2757

 Normal termination of Gaussian 16 at Fri May  7 12:38:27 2021.
