 Gaussian 16, Revision A.03,
 Gaussian 16:  EM64L-G16RevA.03 25-Dec-2016

 -------------
 #p 6-31g* mp2
 -------------

 ------------------------------------------------------
 Input file generated by CHIRIPA (05-May-2021 14:57:23)
 ------------------------------------------------------
 Symbolic Z-matrix:
 Charge =  0 Multiplicity = 1

                         Standard orientation:
 ---------------------------------------------------------------------
 Center     Atomic      Atomic             Coordinates (Angstroms)
 Number     Number       Type             X           Y           Z
 ---------------------------------------------------------------------
      1          6           0       -4.212794   -1.507859    1.064371
      2          6           0       -4.055497   -1.500280   -0.325493
      3          6           0       -3.352483   -0.468670   -0.954857
      4          6           0       -2.817511    0.543994   -0.160119
      5          6           0       -2.957238    0.564471    1.226728
      6          6           0       -3.664130   -0.477276    1.834688
      7          1           0       -4.760419   -2.313175    1.544963
      8          1           0       -4.480517   -2.299337   -0.926251
      9          1           0       -3.215714   -0.438071   -2.028997
     10          1           0       -2.522177    1.374783    1.799035
     11          1           0       -3.784718   -0.480569    2.914268
     12          7           0       -2.071209    1.641479   -0.815069
     13          8           0       -1.609506    2.522009   -0.092481
     14          8           0       -1.962092    1.600376   -2.038605
     15          6           0        5.200978    0.662118    0.505070
     16          6           0        5.100886   -0.496612   -0.272006
     17          6           0        3.853618   -1.073342   -0.529403
     18          6           0        2.721978   -0.462230    0.008392
     19          6           0        2.789073    0.692566    0.786359
     20          6           0        4.046786    1.251969    1.030845
     21          1           0        6.173942    1.103405    0.700008
     22          1           0        5.995552   -0.956866   -0.681620
     23          1           0        3.747340   -1.970105   -1.127684
     24          1           0        1.879382    1.128537    1.181085
     25          1           0        4.121501    2.151884    1.634679
     26          7           0        1.396022   -1.063616   -0.257269
     27          8           0        0.414110   -0.505950    0.228008
     28          8           0        1.363757   -2.081262   -0.945742
 ---------------------------------------------------------------------

 SCF Done:  E(RHF) =  -868.339325539     A.U. after   16 cycles
 E2 =    -0.2600140270D+01 EUMP2 =    -0.87093946580949D+03

 The electronic state is 1-A.
 Alpha  occ. eigenvalues --  -20.60695 -20.60663 -20.59683 -20.59653 -15.85726
 Alpha  occ. eigenvalues --  -15.84716 -11.30913 -11.29858 -11.27505 -11.27427
 Alpha  occ. eigenvalues --  -11.27227 -11.26493 -11.26490 -11.26440 -11.26436
 Alpha  occ. eigenvalues --  -11.26265 -11.25539 -11.25491  -1.59743  -1.58719
 Alpha  occ. eigenvalues --   -1.39306  -1.38295  -1.19083  -1.18039  -1.08519
 Alpha  occ. eigenvalues --   -1.07499  -1.04463  -1.03474  -0.95381  -0.94377
 Alpha  occ. eigenvalues --   -0.85873  -0.84897  -0.82228  -0.81252  -0.77279
 Alpha  occ. eigenvalues --   -0.76296  -0.72029  -0.71060  -0.70986  -0.70212
 Alpha  occ. eigenvalues --   -0.69882  -0.69263  -0.64747  -0.64476  -0.63761
 Alpha  occ. eigenvalues --   -0.63553  -0.61808  -0.60869  -0.54996  -0.54058
 Alpha  occ. eigenvalues --   -0.52801  -0.52561  -0.51747  -0.51630  -0.48709
 Alpha  occ. eigenvalues --   -0.48675  -0.47727  -0.47710  -0.44755  -0.43768
 Alpha  occ. eigenvalues --   -0.37069  -0.36057  -0.35964  -0.35035
 Alpha virt. eigenvalues --    0.05206   0.06346   0.11601   0.12608   0.16758
 Alpha virt. eigenvalues --    0.17798   0.21710   0.22490   0.27625   0.28326
 Alpha virt. eigenvalues --    0.28598   0.29391   0.31217   0.31946   0.32845

 Mulliken charges:
               1
     1  C   -0.170223
     2  C   -0.217115
     3  C   -0.165011
     4  C    0.177003
     5  C   -0.164859
     6  C   -0.218213
     7  H    0.220502
     8  H    0.219507
     9  H    0.272974
    10  H    0.268391
    11  H    0.217168
    12  N    0.492673
    13  O   -0.470165
    14  O   -0.463930
    15  C   -0.170276
    16  C   -0.218932
    17  C   -0.170518
    18  C    0.157864
    19  C   -0.168638
    20  C   -0.218828
    21  H    0.225026
    22  H    0.222374
    23  H    0.274249
    24  H    0.280483
    25  H    0.224377
    26  N    0.492952
    27  O   -0.467807
    28  O   -0.461026
 Sum of Mulliken charges =  -0.00000

 Dipole moment (field-independent basis, Debye):
    X=              2.2612    Y=             -1.7751    Z=              3.1744  Tot=              4.2826
 Quadrupole moment (field-independent basis, Debye-Ang):
   XX=            -65.6374   YY=           -108.8921   ZZ=           -101.1277
   XY=             12.2129   XZ=             -3.7161   YZ=              6.0596

 Normal termination of Gaussian 16 at Fri May  7 11:00:35 2021.
