 Gaussian 16, Revision A.03,
 Gaussian 16:  EM64L-G16RevA.03 25-Dec-2016

 -------------
 #p 6-31g* mp2
 -------------

 ------------------------------------------------------
 Input file generated by CHIRIPA (05-May-2021 14:51:13)
 ------------------------------------------------------
 Symbolic Z-matrix:
 Charge =  0 Multiplicity = 1

                         Standard orientation:
 ---------------------------------------------------------------------
 Center     Atomic      Atomic             Coordinates (Angstroms)
 Number     Number       Type             X           Y           Z
 ---------------------------------------------------------------------
      1          6           0       -2.642421    0.874768   -0.690318
      2          6           0       -2.199721    1.971790    0.278467
      3          6           0       -1.308531    3.022132   -0.385126
      4          1           0       -1.753365    0.388302   -1.114437
      5          1           0       -3.179275    1.333491   -1.532194
      6          1           0       -1.665066    1.511002    1.118963
      7          1           0       -3.089935    2.455573    0.700474
      8          1           0       -1.836427    3.508583   -1.211740
      9          1           0       -0.403462    2.558645   -0.790873
     10          1           0       -1.003682    3.796786    0.325395
     11          6           0       -3.533931   -0.182680   -0.041672
     12          6           0       -3.976630   -1.279702   -1.010458
     13          6           0       -4.867820   -2.330044   -0.346865
     14          1           0       -2.997077   -0.641403    0.800204
     15          1           0       -4.422986    0.303786    0.382446
     16          1           0       -3.086417   -1.763485   -1.432465
     17          1           0       -4.511286   -0.818914   -1.850954
     18          1           0       -5.772889   -1.866558    0.058882
     19          1           0       -4.339924   -2.816495    0.479750
     20          1           0       -5.172669   -3.104698   -1.057385
     21          6           0        2.705229   -0.592446    0.979241
     22          6           0        1.348443    0.088798    1.160965
     23          6           0        0.594308   -0.414717    2.392040
     24          1           0        2.555742   -1.678010    0.900830
     25          1           0        3.315052   -0.425003    1.877837
     26          1           0        0.741874   -0.078710    0.261726
     27          1           0        1.501162    1.172883    1.238760
     28          1           0        1.176403   -0.233177    3.301332
     29          1           0        0.412801   -1.491883    2.318746
     30          1           0       -0.372824    0.085528    2.502811
     31          6           0        3.471122   -0.099641   -0.247250
     32          6           0        4.827908   -0.780886   -0.428974
     33          6           0        5.582043   -0.277370   -1.660049
     34          1           0        2.861300   -0.267085   -1.145846
     35          1           0        3.620610    0.985922   -0.168840
     36          1           0        4.675190   -1.864971   -0.506769
     37          1           0        5.434478   -0.613377    0.470264
     38          1           0        5.763551    0.799795   -1.586756
     39          1           0        4.999949   -0.458910   -2.569341
     40          1           0        6.549175   -0.777616   -1.770820
 ---------------------------------------------------------------------

 SCF Done:  E(RHF) =  -470.733089556     A.U. after   11 cycles
 E2 =    -0.1583852232D+01 EUMP2 =    -0.47231694178857D+03

 The electronic state is 1-A.
 Alpha  occ. eigenvalues --  -11.21678 -11.21637 -11.21599 -11.21540 -11.21461
 Alpha  occ. eigenvalues --  -11.21400 -11.21389 -11.21329 -11.21151 -11.21095
 Alpha  occ. eigenvalues --  -11.21066 -11.21009  -1.08499  -1.08400  -1.03615
 Alpha  occ. eigenvalues --   -1.03478  -0.96042  -0.95950  -0.87061  -0.86963
 Alpha  occ. eigenvalues --   -0.79660  -0.79565  -0.78302  -0.78228  -0.65178
 Alpha  occ. eigenvalues --   -0.65013  -0.61027  -0.60943  -0.59414  -0.59267
 Alpha  occ. eigenvalues --   -0.57654  -0.57540  -0.55339  -0.55213  -0.52771
 Alpha  occ. eigenvalues --   -0.52636  -0.52483  -0.52365  -0.49998  -0.49871
 Alpha  occ. eigenvalues --   -0.48003  -0.47880  -0.46691  -0.46576  -0.45913
 Alpha  occ. eigenvalues --   -0.45786  -0.45711  -0.45581  -0.43826  -0.43758
 Alpha virt. eigenvalues --    0.19803   0.23161   0.23780   0.24415   0.25634
 Alpha virt. eigenvalues --    0.26132   0.26603   0.27841   0.28679   0.29334
 Alpha virt. eigenvalues --    0.30474   0.30967   0.31498   0.31827   0.32525

 Mulliken charges:
               1
     1  C   -0.299522
     2  C   -0.306905
     3  C   -0.476657
     4  H    0.150424
     5  H    0.149579
     6  H    0.159750
     7  H    0.151617
     8  H    0.154584
     9  H    0.157554
    10  H    0.159433
    11  C   -0.299613
    12  C   -0.299506
    13  C   -0.475729
    14  H    0.150586
    15  H    0.149664
    16  H    0.151498
    17  H    0.151968
    18  H    0.155228
    19  H    0.155279
    20  H    0.160149
    21  C   -0.298398
    22  C   -0.303264
    23  C   -0.481576
    24  H    0.149699
    25  H    0.149914
    26  H    0.154041
    27  H    0.154077
    28  H    0.155996
    29  H    0.155235
    30  H    0.164591
    31  C   -0.298445
    32  C   -0.299681
    33  C   -0.475769
    34  H    0.149198
    35  H    0.149978
    36  H    0.151986
    37  H    0.152073
    38  H    0.155336
    39  H    0.155241
    40  H    0.160386
 Sum of Mulliken charges =  -0.00000

 Dipole moment (field-independent basis, Debye):
    X=              0.0365    Y=             -0.0041    Z=              0.0168  Tot=              0.0403
 Quadrupole moment (field-independent basis, Debye-Ang):
   XX=            -84.7530   YY=            -84.7799   ZZ=            -85.2228
   XY=             -0.8077   XZ=              1.2433   YZ=              0.8058

 Normal termination of Gaussian 16 at Wed May  5 15:21:47 2021.
