 Gaussian 16, Revision A.03,
 Gaussian 16:  EM64L-G16RevA.03 25-Dec-2016

 -------------
 #p 6-31g* mp2
 -------------

 ------------------------------------------------------
 Input file generated by CHIRIPA (05-May-2021 14:55:25)
 ------------------------------------------------------
 Symbolic Z-matrix:
 Charge =  0 Multiplicity = 1

                         Standard orientation:
 ---------------------------------------------------------------------
 Center     Atomic      Atomic             Coordinates (Angstroms)
 Number     Number       Type             X           Y           Z
 ---------------------------------------------------------------------
      1          6           0        1.249941    1.313453    2.082378
      2          6           0        1.778931    1.863145    0.909975
      3          6           0        2.283429    1.035517   -0.097527
      4          6           0        2.243025   -0.343639    0.101439
      5          6           0        1.722409   -0.921497    1.258301
      6          6           0        1.223415   -0.074666    2.252499
      7          1           0        0.860173    1.963834    2.859862
      8          1           0        1.800824    2.940820    0.775130
      9          1           0        2.698629    1.434434   -1.015074
     10          1           0        1.714205   -1.999541    1.363999
     11          1           0        0.813189   -0.504356    3.161964
     12          7           0        2.774201   -1.229977   -0.958116
     13          8           0        2.727105   -2.441836   -0.758579
     14          8           0        3.227574   -0.696046   -1.968070
     15          6           0       -2.128871    0.673733   -0.449440
     16          6           0       -2.421041    2.120750   -0.847889
     17          6           0       -1.150411    2.950060   -1.036406
     18          1           0       -1.543698    0.667152    0.480332
     19          1           0       -1.497507    0.209077   -1.219420
     20          1           0       -3.052811    2.582119   -0.078070
     21          1           0       -3.005750    2.123882   -1.776718
     22          1           0       -0.519538    2.515875   -1.818764
     23          1           0       -0.566866    2.976716   -0.110465
     24          1           0       -1.382468    3.981094   -1.320973
     25          6           0       -3.389160   -0.167980   -0.257291
     26          6           0       -3.096989   -1.614998    0.141159
     27          6           0       -4.367619   -2.444306    0.329676
     28          1           0       -4.020523    0.296676    0.512690
     29          1           0       -3.974331   -0.161399   -1.187062
     30          1           0       -2.512280   -1.618129    1.069986
     31          1           0       -2.465219   -2.076366   -0.628661
     32          1           0       -4.951163   -2.470962   -0.596266
     33          1           0       -4.998491   -2.010122    1.112033
     34          1           0       -4.135563   -3.475341    0.614242
 ---------------------------------------------------------------------

 SCF Done:  E(RHF) =  -669.534561447     A.U. after   15 cycles
 E2 =    -0.2094209722D+01 EUMP2 =    -0.67162877116936D+03

 The electronic state is 1-A.
 Alpha  occ. eigenvalues --  -20.60812 -20.60807 -15.85865 -11.31250 -11.27807
 Alpha  occ. eigenvalues --  -11.27790 -11.27563 -11.26860 -11.26814 -11.21859
 Alpha  occ. eigenvalues --  -11.21739 -11.21533 -11.21457 -11.21407 -11.21185
 Alpha  occ. eigenvalues --   -1.59887  -1.39440  -1.19424  -1.08832  -1.08592
 Alpha  occ. eigenvalues --   -1.04832  -1.03733  -0.96190  -0.95650  -0.87225
 Alpha  occ. eigenvalues --   -0.86228  -0.82480  -0.79810  -0.78402  -0.77518
 Alpha  occ. eigenvalues --   -0.72084  -0.71208  -0.70531  -0.65257  -0.65078
 Alpha  occ. eigenvalues --   -0.64841  -0.62189  -0.61141  -0.59559  -0.57802
 Alpha  occ. eigenvalues --   -0.55509  -0.55324  -0.53261  -0.52982  -0.52860
 Alpha  occ. eigenvalues --   -0.52560  -0.50139  -0.48844  -0.48837  -0.48097
 Alpha  occ. eigenvalues --   -0.46837  -0.45899  -0.45861  -0.44841  -0.43972
 Alpha  occ. eigenvalues --   -0.37353  -0.36342
 Alpha virt. eigenvalues --    0.04994   0.11105   0.16452   0.20951   0.22784
 Alpha virt. eigenvalues --    0.24063   0.26322   0.26471   0.27267   0.28041
 Alpha virt. eigenvalues --    0.28551   0.30486   0.31190   0.31735   0.31978

 Mulliken charges:
               1
     1  C   -0.172716
     2  C   -0.215022
     3  C   -0.169938
     4  C    0.159246
     5  C   -0.169925
     6  C   -0.218094
     7  H    0.225875
     8  H    0.225396
     9  H    0.275945
    10  H    0.275986
    11  H    0.223770
    12  N    0.487805
    13  O   -0.460140
    14  O   -0.460360
    15  C   -0.302273
    16  C   -0.299062
    17  C   -0.477627
    18  H    0.151387
    19  H    0.152083
    20  H    0.149415
    21  H    0.153893
    22  H    0.156391
    23  H    0.150363
    24  H    0.158580
    25  C   -0.298324
    26  C   -0.299205
    27  C   -0.475795
    28  H    0.147128
    29  H    0.151006
    30  H    0.146670
    31  H    0.156272
    32  H    0.156727
    33  H    0.153631
    34  H    0.160911
 Sum of Mulliken charges =  -0.00000

 Dipole moment (field-independent basis, Debye):
    X=             -1.7838    Y=              3.0551    Z=              3.7076  Tot=              5.1247
 Quadrupole moment (field-independent basis, Debye-Ang):
   XX=           -104.4649   YY=            -94.6400   ZZ=            -91.9393
   XY=              8.3784   XZ=              7.7918   YZ=             -2.9949

 Normal termination of Gaussian 16 at Thu May  6 14:24:11 2021.
