 Gaussian 16, Revision A.03,
 Gaussian 16:  EM64L-G16RevA.03 25-Dec-2016

 -------------
 #p 6-31g* mp2
 -------------

 ------------------------------------------------------
 Input file generated by CHIRIPA (05-May-2021 14:51:12)
 ------------------------------------------------------
 Symbolic Z-matrix:
 Charge =  0 Multiplicity = 1

                         Standard orientation:
 ---------------------------------------------------------------------
 Center     Atomic      Atomic             Coordinates (Angstroms)
 Number     Number       Type             X           Y           Z
 ---------------------------------------------------------------------
      1          6           0       -3.399100   -0.029227   -0.226634
      2          6           0       -4.921529   -0.161361   -0.174309
      3          6           0       -5.404585   -1.571418   -0.515177
      4          1           0       -3.047650   -0.306212   -1.229982
      5          1           0       -2.951264   -0.749997    0.471454
      6          1           0       -5.366408    0.560401   -0.871272
      7          1           0       -5.269414    0.116154    0.828974
      8          1           0       -4.988122   -2.301424    0.186429
      9          1           0       -5.085667   -1.854653   -1.523478
     10          1           0       -6.495818   -1.643411   -0.471736
     11          6           0       -2.900872    1.374690    0.111764
     12          6           0       -1.378444    1.506824    0.059438
     13          6           0       -0.895387    2.916881    0.400306
     14          1           0       -3.348708    2.095460   -0.586325
     15          1           0       -3.252322    1.651675    1.115112
     16          1           0       -1.030559    1.229308   -0.943845
     17          1           0       -0.933564    0.785061    0.756401
     18          1           0       -1.214305    3.200116    1.408607
     19          1           0       -1.311850    3.646887   -0.301300
     20          1           0        0.195846    2.988874    0.356865
     21          6           0        3.896011   -0.721955   -0.098950
     22          6           0        4.579444    0.639667   -0.228908
     23          6           0        6.071633    0.524668   -0.541865
     24          1           0        4.394108   -1.301249    0.690519
     25          1           0        4.033435   -1.284041   -1.033065
     26          1           0        4.439587    1.199563    0.704673
     27          1           0        4.079540    1.215861   -1.018028
     28          1           0        6.227535   -0.011316   -1.483681
     29          1           0        6.589628   -0.027707    0.248809
     30          1           0        6.540323    1.509723   -0.630502
     31          6           0        2.403961   -0.623508    0.213821
     32          6           0        1.720528   -1.985129    0.343778
     33          6           0        0.228339   -1.870131    0.656736
     34          1           0        2.266538   -0.061422    1.147936
     35          1           0        1.905864   -0.044213   -0.575648
     36          1           0        2.220432   -2.561324    1.132899
     37          1           0        1.860385   -2.545025   -0.589802
     38          1           0       -0.289655   -1.317757   -0.133938
     39          1           0        0.072438   -1.334147    1.598552
     40          1           0       -0.240352   -2.855186    0.745373
 ---------------------------------------------------------------------

 SCF Done:  E(RHF) =  -470.731818501     A.U. after   11 cycles
 E2 =    -0.1584376378D+01 EUMP2 =    -0.47231619487835D+03

 The electronic state is 1-A.
 Alpha  occ. eigenvalues --  -11.21607 -11.21585 -11.21559 -11.21437 -11.21403
 Alpha  occ. eigenvalues --  -11.21343 -11.21334 -11.21275 -11.21074 -11.21037
 Alpha  occ. eigenvalues --  -11.20987 -11.20985  -1.08446  -1.08352  -1.03554
 Alpha  occ. eigenvalues --   -1.03437  -0.95981  -0.95916  -0.87021  -0.86919
 Alpha  occ. eigenvalues --   -0.79748  -0.79445  -0.78370  -0.78018  -0.65064
 Alpha  occ. eigenvalues --   -0.65000  -0.60945  -0.60863  -0.59449  -0.59199
 Alpha  occ. eigenvalues --   -0.57595  -0.57530  -0.55268  -0.55205  -0.52699
 Alpha  occ. eigenvalues --   -0.52668  -0.52445  -0.52271  -0.49935  -0.49853
 Alpha  occ. eigenvalues --   -0.48249  -0.47657  -0.46699  -0.46514  -0.46028
 Alpha  occ. eigenvalues --   -0.45790  -0.45563  -0.45116  -0.43775  -0.43709
 Alpha virt. eigenvalues --    0.21731   0.22967   0.23768   0.24638   0.25149
 Alpha virt. eigenvalues --    0.25904   0.26761   0.27171   0.28570   0.29576
 Alpha virt. eigenvalues --    0.30476   0.31565   0.31591   0.31891   0.32100

 Mulliken charges:
               1
     1  C   -0.301912
     2  C   -0.299490
     3  C   -0.475610
     4  H    0.148415
     5  H    0.154527
     6  H    0.151717
     7  H    0.151805
     8  H    0.155292
     9  H    0.154966
    10  H    0.160042
    11  C   -0.297319
    12  C   -0.306532
    13  C   -0.475853
    14  H    0.148739
    15  H    0.149041
    16  H    0.149103
    17  H    0.162877
    18  H    0.154464
    19  H    0.154353
    20  H    0.160635
    21  C   -0.298203
    22  C   -0.299669
    23  C   -0.475688
    24  H    0.149680
    25  H    0.149516
    26  H    0.151862
    27  H    0.151823
    28  H    0.155189
    29  H    0.155205
    30  H    0.160282
    31  C   -0.300036
    32  C   -0.300020
    33  C   -0.481102
    34  H    0.149205
    35  H    0.151618
    36  H    0.151459
    37  H    0.151743
    38  H    0.165021
    39  H    0.153406
    40  H    0.159450
 Sum of Mulliken charges =  -0.00000

 Dipole moment (field-independent basis, Debye):
    X=              0.0126    Y=             -0.0304    Z=              0.0101  Tot=              0.0345
 Quadrupole moment (field-independent basis, Debye-Ang):
   XX=            -86.3407   YY=            -85.8671   ZZ=            -82.8939
   XY=             -0.5051   XZ=              0.3316   YZ=             -0.4258

 Normal termination of Gaussian 16 at Thu May  6 05:30:07 2021.
