 Gaussian 16, Revision A.03,
 Gaussian 16:  EM64L-G16RevA.03 25-Dec-2016

 -------------
 #p 6-31g* mp2
 -------------

 ------------------------------------------------------
 Input file generated by CHIRIPA (05-May-2021 14:51:11)
 ------------------------------------------------------
 Symbolic Z-matrix:
 Charge =  0 Multiplicity = 1

                         Standard orientation:
 ---------------------------------------------------------------------
 Center     Atomic      Atomic             Coordinates (Angstroms)
 Number     Number       Type             X           Y           Z
 ---------------------------------------------------------------------
      1          6           0        3.587244    0.450039   -0.105533
      2          6           0        3.542187   -1.053113   -0.382098
      3          6           0        4.932847   -1.686410   -0.434954
      4          1           0        4.186329    0.941864   -0.884090
      5          1           0        4.107355    0.625220    0.846408
      6          1           0        3.021097   -1.225495   -1.332554
      7          1           0        2.942980   -1.541393    0.397101
      8          1           0        5.457477   -1.543767    0.515318
      9          1           0        5.536038   -1.226075   -1.224164
     10          1           0        4.877222   -2.761231   -0.633767
     11          6           0        2.204690    1.097463   -0.049731
     12          6           0        2.249748    2.600616    0.226834
     13          6           0        0.859088    3.233912    0.279690
     14          1           0        1.684579    0.922282   -1.001671
     15          1           0        1.605606    0.605638    0.728827
     16          1           0        2.848954    3.088895   -0.552365
     17          1           0        2.770837    2.772998    1.177290
     18          1           0        0.255897    2.773577    1.068901
     19          1           0        0.334458    3.091270   -0.670582
     20          1           0        0.914712    4.308733    0.478503
     21          6           0       -3.521324   -0.636751   -0.339012
     22          6           0       -4.351562    0.537050    0.181452
     23          6           0       -5.599366    0.798749   -0.662522
     24          1           0       -3.227377   -0.437266   -1.378602
     25          1           0       -4.147558   -1.539429   -0.358980
     26          1           0       -3.723554    1.436943    0.201739
     27          1           0       -4.643406    0.334833    1.219986
     28          1           0       -6.248867   -0.082519   -0.673421
     29          1           0       -5.323788    1.025854   -1.697452
     30          1           0       -6.178113    1.641934   -0.272712
     31          6           0       -2.270611   -0.910751    0.494276
     32          6           0       -1.440373   -2.084552   -0.026189
     33          6           0       -0.192568   -2.346250    0.817786
     34          1           0       -1.644377   -0.008074    0.514244
     35          1           0       -2.564558   -1.110237    1.533865
     36          1           0       -1.148529   -1.882336   -1.064723
     37          1           0       -2.068381   -2.984446   -0.046476
     38          1           0       -0.468146   -2.573356    1.852716
     39          1           0        0.456932   -1.464984    0.828684
     40          1           0        0.386178   -3.189436    0.427975
 ---------------------------------------------------------------------

 SCF Done:  E(RHF) =  -470.732801071     A.U. after   11 cycles
 E2 =    -0.1583836963D+01 EUMP2 =    -0.47231663803427D+03

 The electronic state is 1-A.
 Alpha  occ. eigenvalues --  -11.21661 -11.21566 -11.21553 -11.21550 -11.21459
 Alpha  occ. eigenvalues --  -11.21382 -11.21365 -11.21305 -11.21143 -11.21051
 Alpha  occ. eigenvalues --  -11.21044 -11.20966  -1.08478  -1.08381  -1.03555
 Alpha  occ. eigenvalues --   -1.03483  -0.96017  -0.95934  -0.87029  -0.86958
 Alpha  occ. eigenvalues --   -0.79636  -0.79552  -0.78344  -0.78146  -0.65162
 Alpha  occ. eigenvalues --   -0.64970  -0.60964  -0.60876  -0.59408  -0.59279
 Alpha  occ. eigenvalues --   -0.57682  -0.57496  -0.55350  -0.55193  -0.52720
 Alpha  occ. eigenvalues --   -0.52631  -0.52450  -0.52341  -0.49969  -0.49912
 Alpha  occ. eigenvalues --   -0.47954  -0.47889  -0.46759  -0.46649  -0.45956
 Alpha  occ. eigenvalues --   -0.45763  -0.45715  -0.45207  -0.43814  -0.43731
 Alpha virt. eigenvalues --    0.21028   0.23079   0.23792   0.23989   0.25492
 Alpha virt. eigenvalues --    0.26578   0.26841   0.27471   0.28376   0.29738
 Alpha virt. eigenvalues --    0.30706   0.31526   0.31689   0.31841   0.32085

 Mulliken charges:
               1
     1  C   -0.298229
     2  C   -0.303947
     3  C   -0.475550
     4  H    0.149676
     5  H    0.149455
     6  H    0.151418
     7  H    0.158293
     8  H    0.155067
     9  H    0.154855
    10  H    0.160231
    11  C   -0.304303
    12  C   -0.299000
    13  C   -0.476801
    14  H    0.149240
    15  H    0.154437
    16  H    0.152345
    17  H    0.152299
    18  H    0.155789
    19  H    0.154870
    20  H    0.160837
    21  C   -0.298114
    22  C   -0.299862
    23  C   -0.475653
    24  H    0.149481
    25  H    0.149411
    26  H    0.152504
    27  H    0.151733
    28  H    0.155055
    29  H    0.155084
    30  H    0.160206
    31  C   -0.300310
    32  C   -0.298642
    33  C   -0.484946
    34  H    0.151221
    35  H    0.149180
    36  H    0.151766
    37  H    0.151512
    38  H    0.153918
    39  H    0.165161
    40  H    0.160314
 Sum of Mulliken charges =  -0.00000

 Dipole moment (field-independent basis, Debye):
    X=              0.0330    Y=              0.0220    Z=              0.0071  Tot=              0.0403
 Quadrupole moment (field-independent basis, Debye-Ang):
   XX=            -86.3364   YY=            -84.8318   ZZ=            -83.6888
   XY=              1.1901   XZ=             -0.7283   YZ=             -0.4279

 Normal termination of Gaussian 16 at Thu May  6 00:40:41 2021.
