 Gaussian 16, Revision A.03,
 Gaussian 16:  EM64L-G16RevA.03 25-Dec-2016

 -------------
 #p 6-31g* mp2
 -------------

 ------------------------------------------------------
 Input file generated by CHIRIPA (05-May-2021 14:53:13)
 ------------------------------------------------------
 Symbolic Z-matrix:
 Charge =  0 Multiplicity = 1

                         Standard orientation:
 ---------------------------------------------------------------------
 Center     Atomic      Atomic             Coordinates (Angstroms)
 Number     Number       Type             X           Y           Z
 ---------------------------------------------------------------------
      1          6           0       -4.667955   -0.372490   -0.141082
      2          6           0       -5.699932    0.702830   -0.482689
      3          6           0       -6.989475    0.121464   -1.063109
      4          1           0       -4.436449   -0.950270   -1.046356
      5          1           0       -5.108332   -1.078707    0.576358
      6          1           0       -5.257271    1.407594   -1.198214
      7          1           0       -5.928866    1.278241    0.423461
      8          1           0       -7.456651   -0.566430   -0.350965
      9          1           0       -6.781241   -0.436343   -1.981853
     10          1           0       -7.713192    0.907541   -1.300125
     11          6           0       -3.373372    0.193132    0.440169
     12          6           0       -2.341394   -0.882188    0.781776
     13          6           0       -1.051852   -0.300821    1.362195
     14          1           0       -2.932994    0.899349   -0.277271
     15          1           0       -3.604878    0.770912    1.345443
     16          1           0       -2.112461   -1.457599   -0.124374
     17          1           0       -2.784056   -1.586951    1.497301
     18          1           0       -1.260086    0.256985    2.280940
     19          1           0       -0.584675    0.387072    0.650051
     20          1           0       -0.328135   -1.086898    1.599212
     21          6           0        3.069637    2.583040    0.097068
     22          6           0        2.455825    1.780429    1.064320
     23          6           0        2.489167    0.386982    0.955974
     24          6           0        3.148056   -0.172884   -0.137510
     25          6           0        3.769025    0.599894   -1.117561
     26          6           0        3.723126    1.991253   -0.988870
     27          1           0        3.038859    3.664692    0.189136
     28          1           0        1.947594    2.237267    1.908740
     29          1           0        2.022280   -0.258092    1.690354
     30          1           0        4.268051    0.115507   -1.948079
     31          1           0        4.200692    2.612085   -1.741561
     32          7           0        3.190001   -1.646959   -0.262980
     33          8           0        3.776903   -2.115727   -1.235831
     34          8           0        2.635181   -2.305660    0.613903
 ---------------------------------------------------------------------

 SCF Done:  E(RHF) =  -669.535321680     A.U. after   15 cycles
 E2 =    -0.2091944008D+01 EUMP2 =    -0.67162726568814D+03

 The electronic state is 1-A.
 Alpha  occ. eigenvalues --  -20.60785 -20.60779 -15.85828 -11.31142 -11.27740
 Alpha  occ. eigenvalues --  -11.27689 -11.27480 -11.26735 -11.26710 -11.21646
 Alpha  occ. eigenvalues --  -11.21598 -11.21449 -11.21375 -11.21199 -11.21091
 Alpha  occ. eigenvalues --   -1.59852  -1.39408  -1.19335  -1.08735  -1.08467
 Alpha  occ. eigenvalues --   -1.04734  -1.03575  -0.96062  -0.95569  -0.87097
 Alpha  occ. eigenvalues --   -0.86122  -0.82407  -0.79661  -0.78280  -0.77448
 Alpha  occ. eigenvalues --   -0.72050  -0.71171  -0.70449  -0.65098  -0.64985
 Alpha  occ. eigenvalues --   -0.64738  -0.62106  -0.60973  -0.59387  -0.57644
 Alpha  occ. eigenvalues --   -0.55374  -0.55237  -0.53171  -0.52970  -0.52500
 Alpha  occ. eigenvalues --   -0.52439  -0.49986  -0.48808  -0.48802  -0.47958
 Alpha  occ. eigenvalues --   -0.46667  -0.45825  -0.45742  -0.44823  -0.43820
 Alpha  occ. eigenvalues --   -0.37322  -0.36280
 Alpha virt. eigenvalues --    0.05055   0.11313   0.16505   0.21180   0.22846
 Alpha virt. eigenvalues --    0.24228   0.26345   0.26661   0.27359   0.27960
 Alpha virt. eigenvalues --    0.28702   0.29947   0.31329   0.31612   0.31982

 Mulliken charges:
               1
     1  C   -0.298529
     2  C   -0.299503
     3  C   -0.475753
     4  H    0.151176
     5  H    0.150363
     6  H    0.151113
     7  H    0.151112
     8  H    0.155639
     9  H    0.155869
    10  H    0.159850
    11  C   -0.298543
    12  C   -0.298698
    13  C   -0.488550
    14  H    0.148111
    15  H    0.147704
    16  H    0.156864
    17  H    0.153774
    18  H    0.149322
    19  H    0.155665
    20  H    0.170593
    21  C   -0.170758
    22  C   -0.221066
    23  C   -0.166504
    24  C    0.156017
    25  C   -0.170928
    26  C   -0.219129
    27  H    0.225496
    28  H    0.224429
    29  H    0.279879
    30  H    0.275354
    31  H    0.223150
    32  N    0.488663
    33  O   -0.460197
    34  O   -0.461983
 Sum of Mulliken charges =  -0.00000

 Dipole moment (field-independent basis, Debye):
    X=             -0.1561    Y=              5.1225    Z=              0.4201  Tot=              5.1421
 Quadrupole moment (field-independent basis, Debye-Ang):
   XX=            -95.8281   YY=            -97.1923   ZZ=            -90.9048
   XY=             16.7823   XZ=             -1.8522   YZ=             -1.4394

 Normal termination of Gaussian 16 at Wed May  5 23:24:11 2021.
