 Gaussian 16, Revision A.03,
 Gaussian 16:  EM64L-G16RevA.03 25-Dec-2016

 -------------
 #p 6-31g* mp2
 -------------

 ------------------------------------------------------
 Input file generated by CHIRIPA (05-May-2021 14:55:25)
 ------------------------------------------------------
 Symbolic Z-matrix:
 Charge =  0 Multiplicity = 1

                         Standard orientation:
 ---------------------------------------------------------------------
 Center     Atomic      Atomic             Coordinates (Angstroms)
 Number     Number       Type             X           Y           Z
 ---------------------------------------------------------------------
      1          6           0       -4.135373    2.408960   -0.012007
      2          6           0       -4.260017    1.568122   -1.122851
      3          6           0       -3.686267    0.293244   -1.116262
      4          6           0       -2.991655   -0.110359    0.022996
      5          6           0       -2.850094    0.704270    1.145328
      6          6           0       -3.432049    1.975116    1.116548
      7          1           0       -4.584263    3.397750   -0.025745
      8          1           0       -4.805661    1.902402   -2.000675
      9          1           0       -3.767432   -0.378104   -1.962502
     10          1           0       -2.300199    0.343125    2.005913
     11          1           0       -3.333642    2.625984    1.980685
     12          7           0       -2.379908   -1.457881    0.041718
     13          8           0       -1.772994   -1.789885    1.057625
     14          8           0       -2.518918   -2.156549   -0.959869
     15          6           0        3.558188   -0.723201   -0.319877
     16          6           0        2.463673   -1.240491    0.614164
     17          6           0        1.671791   -2.401144    0.011170
     18          1           0        3.102463   -0.404872   -1.267468
     19          1           0        4.242450   -1.547702   -0.563554
     20          1           0        1.782468   -0.414930    0.857113
     21          1           0        2.922034   -1.557447    1.559713
     22          1           0        2.334147   -3.242971   -0.215132
     23          1           0        1.188108   -2.093963   -0.921724
     24          1           0        0.894657   -2.755377    0.695597
     25          6           0        4.358555    0.437176    0.268907
     26          6           0        5.453070    0.954466   -0.665135
     27          6           0        6.244952    2.115119   -0.062141
     28          1           0        3.674293    1.261677    0.512584
     29          1           0        4.814279    0.118848    1.216497
     30          1           0        4.994709    1.271423   -1.610683
     31          1           0        6.134275    0.128905   -0.908084
     32          1           0        6.728635    1.807938    0.870753
     33          1           0        5.582596    2.956947    0.164161
     34          1           0        7.022086    2.469351   -0.746568
 ---------------------------------------------------------------------

 SCF Done:  E(RHF) =  -669.536131608     A.U. after   15 cycles
 E2 =    -0.2091195361D+01 EUMP2 =    -0.67162732696873D+03

 The electronic state is 1-A.
 Alpha  occ. eigenvalues --  -20.60934 -20.60920 -15.85954 -11.31289 -11.27852
 Alpha  occ. eigenvalues --  -11.27848 -11.27591 -11.26861 -11.26852 -11.21262
 Alpha  occ. eigenvalues --  -11.20929 -11.20833 -11.20722 -11.20651 -11.19580
 Alpha  occ. eigenvalues --   -1.59981  -1.39539  -1.19457  -1.08859  -1.07833
 Alpha  occ. eigenvalues --   -1.04855  -1.02825  -0.95703  -0.95240  -0.86266
 Alpha  occ. eigenvalues --   -0.86243  -0.82533  -0.78926  -0.77617  -0.77583
 Alpha  occ. eigenvalues --   -0.72181  -0.71296  -0.70565  -0.65112  -0.64857
 Alpha  occ. eigenvalues --   -0.64480  -0.62201  -0.60241  -0.58664  -0.56828
 Alpha  occ. eigenvalues --   -0.55358  -0.54558  -0.53187  -0.52947  -0.51883
 Alpha  occ. eigenvalues --   -0.51672  -0.49249  -0.48932  -0.48887  -0.47210
 Alpha  occ. eigenvalues --   -0.46000  -0.45152  -0.45086  -0.44923  -0.43027
 Alpha  occ. eigenvalues --   -0.37435  -0.36457
 Alpha virt. eigenvalues --    0.04927   0.11196   0.16409   0.21323   0.23382
 Alpha virt. eigenvalues --    0.25056   0.27119   0.27281   0.27970   0.28244
 Alpha virt. eigenvalues --    0.28850   0.30892   0.32002   0.32219   0.32520

 Mulliken charges:
               1
     1  C   -0.170653
     2  C   -0.218577
     3  C   -0.170875
     4  C    0.158302
     5  C   -0.170997
     6  C   -0.218564
     7  H    0.225979
     8  H    0.223807
     9  H    0.275867
    10  H    0.275872
    11  H    0.223855
    12  N    0.489119
    13  O   -0.459886
    14  O   -0.458976
    15  C   -0.297218
    16  C   -0.298604
    17  C   -0.481395
    18  H    0.147613
    19  H    0.148811
    20  H    0.147168
    21  H    0.148884
    22  H    0.148007
    23  H    0.153046
    24  H    0.185429
    25  C   -0.297131
    26  C   -0.299009
    27  C   -0.475185
    28  H    0.146369
    29  H    0.148828
    30  H    0.150823
    31  H    0.152009
    32  H    0.154849
    33  H    0.153401
    34  H    0.159035
 Sum of Mulliken charges =  -0.00000

 Dipole moment (field-independent basis, Debye):
    X=             -2.4404    Y=              4.6512    Z=             -0.0318  Tot=              5.2526
 Quadrupole moment (field-independent basis, Debye-Ang):
   XX=            -82.7867   YY=            -96.4059   ZZ=            -90.5502
   XY=            -15.0232   XZ=              2.1785   YZ=              0.3915

 Normal termination of Gaussian 16 at Thu May  6 09:32:56 2021.
