 Gaussian 16, Revision A.03,
 Gaussian 16:  EM64L-G16RevA.03 25-Dec-2016

 -------------
 #p 6-31g* mp2
 -------------

 ------------------------------------------------------
 Input file generated by CHIRIPA (05-May-2021 14:51:12)
 ------------------------------------------------------
 Symbolic Z-matrix:
 Charge =  0 Multiplicity = 1

                         Standard orientation:
 ---------------------------------------------------------------------
 Center     Atomic      Atomic             Coordinates (Angstroms)
 Number     Number       Type             X           Y           Z
 ---------------------------------------------------------------------
      1          6           0       -3.403376   -0.175738   -0.291008
      2          6           0       -4.869818   -0.603961   -0.226535
      3          6           0       -5.071037   -2.078511   -0.577259
      4          1           0       -3.015200   -0.370358   -1.300160
      5          1           0       -2.815672   -0.800458    0.395813
      6          1           0       -5.454804    0.022303   -0.912247
      7          1           0       -5.254603   -0.408120    0.782525
      8          1           0       -4.512251   -2.718462    0.113265
      9          1           0       -4.713591   -2.285593   -1.591138
     10          1           0       -6.126525   -2.363221   -0.524883
     11          6           0       -3.186104    1.295784    0.057050
     12          6           0       -1.719662    1.724007   -0.007423
     13          6           0       -1.518444    3.198558    0.343300
     14          1           0       -3.773808    1.920504   -0.629772
     15          1           0       -3.574280    1.490405    1.066201
     16          1           0       -1.334877    1.528167   -1.016484
     17          1           0       -1.134676    1.097744    0.678289
     18          1           0       -1.875889    3.405640    1.357179
     19          1           0       -2.077229    3.838509   -0.347223
     20          1           0       -0.462955    3.483268    0.290924
     21          6           0        2.811825   -1.111190    0.332480
     22          6           0        1.371386   -0.625239    0.496700
     23          6           0        0.417202   -1.739329    0.928131
     24          1           0        2.836017   -1.923401   -0.406894
     25          1           0        3.156337   -1.542880    1.282401
     26          1           0        1.030162   -0.193340   -0.452851
     27          1           0        1.350649    0.186039    1.235628
     28          1           0        0.730557   -2.165155    1.886819
     29          1           0        0.408250   -2.546689    0.188746
     30          1           0       -0.607009   -1.369953    1.039540
     31          6           0        3.777654   -0.008856   -0.098521
     32          6           0        5.218095   -0.494809   -0.262741
     33          6           0        6.172278    0.619282   -0.694172
     34          1           0        3.433143    0.422833   -1.048442
     35          1           0        3.753464    0.803354    0.640853
     36          1           0        5.238831   -1.306086   -1.001669
     37          1           0        5.559317   -0.926707    0.686810
     38          1           0        6.181230    1.426642    0.045213
     39          1           0        5.858923    1.045108   -1.652860
     40          1           0        7.196489    0.249907   -0.805582
 ---------------------------------------------------------------------

 SCF Done:  E(RHF) =  -470.732367991     A.U. after   11 cycles
 E2 =    -0.1584146218D+01 EUMP2 =    -0.47231651420896D+03

 The electronic state is 1-A.
 Alpha  occ. eigenvalues --  -11.21596 -11.21595 -11.21557 -11.21531 -11.21392
 Alpha  occ. eigenvalues --  -11.21389 -11.21331 -11.21329 -11.21067 -11.21059
 Alpha  occ. eigenvalues --  -11.21042 -11.21030  -1.08454  -1.08384  -1.03561
 Alpha  occ. eigenvalues --   -1.03467  -0.95979  -0.95958  -0.87000  -0.86968
 Alpha  occ. eigenvalues --   -0.79720  -0.79452  -0.78339  -0.78130  -0.65094
 Alpha  occ. eigenvalues --   -0.65036  -0.60968  -0.60867  -0.59484  -0.59210
 Alpha  occ. eigenvalues --   -0.57591  -0.57578  -0.55279  -0.55235  -0.52771
 Alpha  occ. eigenvalues --   -0.52603  -0.52397  -0.52365  -0.49913  -0.49905
 Alpha  occ. eigenvalues --   -0.48090  -0.47719  -0.46689  -0.46542  -0.45880
 Alpha  occ. eigenvalues --   -0.45762  -0.45609  -0.45555  -0.43771  -0.43719
 Alpha virt. eigenvalues --    0.21368   0.23107   0.23758   0.24316   0.25651
 Alpha virt. eigenvalues --    0.26292   0.26841   0.27445   0.28294   0.29176
 Alpha virt. eigenvalues --    0.30663   0.30888   0.31661   0.31902   0.32436

 Mulliken charges:
               1
     1  C   -0.304520
     2  C   -0.298985
     3  C   -0.475745
     4  H    0.149495
     5  H    0.155028
     6  H    0.151971
     7  H    0.151822
     8  H    0.155461
     9  H    0.155120
    10  H    0.160202
    11  C   -0.297970
    12  C   -0.306748
    13  C   -0.475694
    14  H    0.149354
    15  H    0.149070
    16  H    0.151256
    17  H    0.161957
    18  H    0.154720
    19  H    0.154923
    20  H    0.160490
    21  C   -0.298418
    22  C   -0.300774
    23  C   -0.484490
    24  H    0.149554
    25  H    0.149275
    26  H    0.155431
    27  H    0.150949
    28  H    0.154666
    29  H    0.155567
    30  H    0.167255
    31  C   -0.298174
    32  C   -0.299617
    33  C   -0.475687
    34  H    0.149398
    35  H    0.149495
    36  H    0.151928
    37  H    0.151916
    38  H    0.155149
    39  H    0.155137
    40  H    0.160235
 Sum of Mulliken charges =  -0.00000

 Dipole moment (field-independent basis, Debye):
    X=             -0.0019    Y=             -0.0028    Z=             -0.0059  Tot=              0.0068
 Quadrupole moment (field-independent basis, Debye-Ang):
   XX=            -85.6378   YY=            -86.3418   ZZ=            -82.9761
   XY=             -0.8072   XZ=              0.4521   YZ=             -0.0243

 Normal termination of Gaussian 16 at Thu May  6 02:19:34 2021.
