 Gaussian 16, Revision A.03,
 Gaussian 16:  EM64L-G16RevA.03 25-Dec-2016

 -------------
 #p 6-31g* mp2
 -------------

 ------------------------------------------------------
 Input file generated by CHIRIPA (05-May-2021 14:51:10)
 ------------------------------------------------------
 Symbolic Z-matrix:
 Charge =  0 Multiplicity = 1

                         Standard orientation:
 ---------------------------------------------------------------------
 Center     Atomic      Atomic             Coordinates (Angstroms)
 Number     Number       Type             X           Y           Z
 ---------------------------------------------------------------------
      1          6           0        3.034674    1.367056   -0.237075
      2          6           0        1.666905    1.827968    0.267656
      3          6           0        1.273810    3.206116   -0.265240
      4          1           0        3.794100    2.105109    0.055321
      5          1           0        3.024737    1.347246   -1.335667
      6          1           0        1.678983    1.845576    1.364998
      7          1           0        0.910676    1.088636   -0.025810
      8          1           0        1.233906    3.199089   -1.359297
      9          1           0        2.006579    3.960329    0.039414
     10          1           0        0.292753    3.516030    0.108044
     11          6           0        3.441623   -0.008971    0.287014
     12          6           0        4.809392   -0.469883   -0.217717
     13          6           0        5.202487   -1.848031    0.315179
     14          1           0        3.451560    0.010839    1.385606
     15          1           0        2.682197   -0.747024   -0.005382
     16          1           0        5.565621    0.269449    0.075749
     17          1           0        4.797314   -0.487491   -1.315059
     18          1           0        4.469719   -2.602244    0.010525
     19          1           0        5.242391   -1.841004    1.409236
     20          1           0        6.183544   -2.157945   -0.058105
     21          6           0       -3.990217   -0.670914   -0.158235
     22          6           0       -4.683903    0.590164    0.357967
     23          6           0       -6.188124    0.591680    0.083907
     24          1           0       -4.167643   -0.763225   -1.238486
     25          1           0       -4.450142   -1.551925    0.310471
     26          1           0       -4.221885    1.468612   -0.110525
     27          1           0       -4.504645    0.679585    1.437081
     28          1           0       -6.668236   -0.266552    0.565086
     29          1           0       -6.383869    0.526958   -0.991312
     30          1           0       -6.664018    1.502204    0.461176
     31          6           0       -2.486081   -0.687171    0.108296
     32          6           0       -1.792394   -1.948249   -0.407906
     33          6           0       -0.288172   -1.949764   -0.133845
     34          1           0       -2.026156    0.193840   -0.360410
     35          1           0       -2.308655   -0.594860    1.188547
     36          1           0       -1.971652   -2.037670   -1.487020
     37          1           0       -2.254413   -2.826696    0.060586
     38          1           0       -0.092428   -1.885043    0.941373
     39          1           0        0.191939   -1.091534   -0.615025
     40          1           0        0.187721   -2.860288   -0.511115
 ---------------------------------------------------------------------

 SCF Done:  E(RHF) =  -470.732824200     A.U. after   11 cycles
 E2 =    -0.1583541319D+01 EUMP2 =    -0.47231636551981D+03

 The electronic state is 1-A.
 Alpha  occ. eigenvalues --  -11.21647 -11.21618 -11.21535 -11.21525 -11.21437
 Alpha  occ. eigenvalues --  -11.21377 -11.21332 -11.21248 -11.21119 -11.21083
 Alpha  occ. eigenvalues --  -11.21044 -11.21016  -1.08468  -1.08363  -1.03570
 Alpha  occ. eigenvalues --   -1.03472  -0.96025  -0.95920  -0.87042  -0.86941
 Alpha  occ. eigenvalues --   -0.79663  -0.79527  -0.78327  -0.78110  -0.65157
 Alpha  occ. eigenvalues --   -0.64960  -0.61023  -0.60832  -0.59410  -0.59267
 Alpha  occ. eigenvalues --   -0.57644  -0.57521  -0.55333  -0.55199  -0.52725
 Alpha  occ. eigenvalues --   -0.52651  -0.52434  -0.52341  -0.49988  -0.49865
 Alpha  occ. eigenvalues --   -0.48085  -0.47814  -0.46787  -0.46516  -0.46006
 Alpha  occ. eigenvalues --   -0.45757  -0.45677  -0.45206  -0.43816  -0.43720
 Alpha virt. eigenvalues --    0.21164   0.22987   0.23779   0.24547   0.25610
 Alpha virt. eigenvalues --    0.26573   0.27058   0.27274   0.28197   0.29545
 Alpha virt. eigenvalues --    0.30311   0.31613   0.31711   0.31861   0.31980

 Mulliken charges:
               1
     1  C   -0.297792
     2  C   -0.306908
     3  C   -0.475393
     4  H    0.149426
     5  H    0.148488
     6  H    0.151875
     7  H    0.158889
     8  H    0.154411
     9  H    0.155194
    10  H    0.160092
    11  C   -0.305020
    12  C   -0.299238
    13  C   -0.475614
    14  H    0.148906
    15  H    0.158463
    16  H    0.151565
    17  H    0.151478
    18  H    0.155336
    19  H    0.155003
    20  H    0.159891
    21  C   -0.298313
    22  C   -0.299690
    23  C   -0.475730
    24  H    0.149652
    25  H    0.149717
    26  H    0.152028
    27  H    0.152032
    28  H    0.155204
    29  H    0.155205
    30  H    0.160346
    31  C   -0.299632
    32  C   -0.300582
    33  C   -0.480439
    34  H    0.150516
    35  H    0.150130
    36  H    0.151777
    37  H    0.152201
    38  H    0.156785
    39  H    0.159781
    40  H    0.159961
 Sum of Mulliken charges =  -0.00000

 Dipole moment (field-independent basis, Debye):
    X=             -0.0416    Y=             -0.0329    Z=              0.0133  Tot=              0.0547
 Quadrupole moment (field-independent basis, Debye-Ang):
   XX=            -86.1060   YY=            -85.4551   ZZ=            -83.4110
   XY=              0.8111   XZ=             -0.0469   YZ=              0.2591

 Normal termination of Gaussian 16 at Thu May  6 00:37:41 2021.
