 Gaussian 16, Revision A.03,
 Gaussian 16:  EM64L-G16RevA.03 25-Dec-2016

 -------------
 #p 6-31g* mp2
 -------------

 ------------------------------------------------------
 Input file generated by CHIRIPA (05-May-2021 14:51:14)
 ------------------------------------------------------
 Symbolic Z-matrix:
 Charge =  0 Multiplicity = 1

                         Standard orientation:
 ---------------------------------------------------------------------
 Center     Atomic      Atomic             Coordinates (Angstroms)
 Number     Number       Type             X           Y           Z
 ---------------------------------------------------------------------
      1          6           0       -4.173293   -0.483617   -0.320060
      2          6           0       -2.921962   -0.426787    0.556825
      3          6           0       -1.683533   -0.987041   -0.143320
      4          1           0       -4.358001   -1.524998   -0.617302
      5          1           0       -3.989173    0.077893   -1.246451
      6          1           0       -3.108869   -0.987075    1.481897
      7          1           0       -2.740321    0.614555    0.852172
      8          1           0       -1.469234   -0.423030   -1.056867
      9          1           0       -1.839877   -2.033760   -0.423564
     10          1           0       -0.800586   -0.936705    0.501451
     11          6           0       -5.419607    0.072919    0.366014
     12          6           0       -6.670938    0.016090   -0.510870
     13          6           0       -7.909367    0.576344    0.189275
     14          1           0       -5.603727   -0.488590    1.292406
     15          1           0       -5.234899    1.114301    0.663257
     16          1           0       -6.852579   -1.025252   -0.806217
     17          1           0       -6.484031    0.576378   -1.435943
     18          1           0       -7.753024    1.623063    0.469519
     19          1           0       -8.123666    0.012333    1.102822
     20          1           0       -8.792315    0.526008   -0.455496
     21          6           0        4.072463   -0.038044   -0.017130
     22          6           0        3.051076    1.094596   -0.126132
     23          6           0        1.607176    0.591824   -0.113092
     24          1           0        3.920191   -0.741661   -0.846999
     25          1           0        3.887679   -0.601258    0.908094
     26          1           0        3.238600    1.656355   -1.050185
     27          1           0        3.205921    1.795699    0.703985
     28          1           0        1.396634    0.048976    0.814048
     29          1           0        1.429499   -0.091160   -0.950089
     30          1           0        0.893670    1.417983   -0.192011
     31          6           0        5.520437    0.448741   -0.028824
     32          6           0        6.541825   -0.683898    0.080176
     33          6           0        7.985724   -0.181127    0.067138
     34          1           0        5.705221    1.011954   -0.954049
     35          1           0        5.672709    1.152358    0.801044
     36          1           0        6.386980   -1.385002   -0.749939
     37          1           0        6.354300   -1.245658    1.004231
     38          1           0        8.163402    0.501857    0.904135
     39          1           0        8.196266    0.361721   -0.860003
     40          1           0        8.699231   -1.007286    0.146056
 ---------------------------------------------------------------------

 SCF Done:  E(RHF) =  -470.732526409     A.U. after   11 cycles
 E2 =    -0.1582649882D+01 EUMP2 =    -0.47231517629071D+03

 The electronic state is 1-A.
 Alpha  occ. eigenvalues --  -11.21591 -11.21566 -11.21557 -11.21503 -11.21390
 Alpha  occ. eigenvalues --  -11.21348 -11.21330 -11.21285 -11.21064 -11.21045
 Alpha  occ. eigenvalues --  -11.21027 -11.20858  -1.08415  -1.08364  -1.03534
 Alpha  occ. eigenvalues --   -1.03433  -0.96038  -0.95832  -0.87118  -0.86789
 Alpha  occ. eigenvalues --   -0.79679  -0.79423  -0.78231  -0.78175  -0.65045
 Alpha  occ. eigenvalues --   -0.64998  -0.60925  -0.60849  -0.59370  -0.59262
 Alpha  occ. eigenvalues --   -0.57647  -0.57451  -0.55286  -0.55168  -0.52975
 Alpha  occ. eigenvalues --   -0.52566  -0.52347  -0.52069  -0.49946  -0.49791
 Alpha  occ. eigenvalues --   -0.47945  -0.47767  -0.46630  -0.46526  -0.45770
 Alpha  occ. eigenvalues --   -0.45728  -0.45686  -0.45641  -0.43822  -0.43594
 Alpha virt. eigenvalues --    0.22431   0.22970   0.23602   0.24787   0.26452
 Alpha virt. eigenvalues --    0.26590   0.26896   0.27534   0.27594   0.29190
 Alpha virt. eigenvalues --    0.29736   0.31120   0.31448   0.32129   0.32188

 Mulliken charges:
               1
     1  C   -0.298360
     2  C   -0.299805
     3  C   -0.479210
     4  H    0.149448
     5  H    0.149257
     6  H    0.151124
     7  H    0.151442
     8  H    0.155274
     9  H    0.153215
    10  H    0.167900
    11  C   -0.298159
    12  C   -0.299569
    13  C   -0.475654
    14  H    0.149367
    15  H    0.149441
    16  H    0.151859
    17  H    0.151813
    18  H    0.155092
    19  H    0.155116
    20  H    0.160116
    21  C   -0.298304
    22  C   -0.301231
    23  C   -0.474397
    24  H    0.149735
    25  H    0.149291
    26  H    0.151576
    27  H    0.151499
    28  H    0.154189
    29  H    0.157618
    30  H    0.160390
    31  C   -0.298197
    32  C   -0.299620
    33  C   -0.475693
    34  H    0.149490
    35  H    0.149581
    36  H    0.151954
    37  H    0.151881
    38  H    0.155145
    39  H    0.155163
    40  H    0.160222
 Sum of Mulliken charges =  -0.00000

 Dipole moment (field-independent basis, Debye):
    X=              0.0332    Y=             -0.0009    Z=             -0.0044  Tot=              0.0336
 Quadrupole moment (field-independent basis, Debye-Ang):
   XX=            -87.2590   YY=            -84.1362   ZZ=            -83.7439
   XY=              0.2835   XZ=              0.2458   YZ=             -0.4127

 Normal termination of Gaussian 16 at Wed May  5 18:25:52 2021.
