 Gaussian 16, Revision A.03,
 Gaussian 16:  EM64L-G16RevA.03 25-Dec-2016

 -------------
 #p 6-31g* mp2
 -------------

 ------------------------------------------------------
 Input file generated by CHIRIPA (05-May-2021 14:57:24)
 ------------------------------------------------------
 Symbolic Z-matrix:
 Charge =  0 Multiplicity = 1

                         Standard orientation:
 ---------------------------------------------------------------------
 Center     Atomic      Atomic             Coordinates (Angstroms)
 Number     Number       Type             X           Y           Z
 ---------------------------------------------------------------------
      1          6           0       -0.942300   -0.334242    2.283392
      2          6           0       -1.561488    0.878548    1.963597
      3          6           0       -2.462628    0.956254    0.897550
      4          6           0       -2.722577   -0.203580    0.169194
      5          6           0       -2.121661   -1.426596    0.463172
      6          6           0       -1.223867   -1.480921    1.533480
      7          1           0       -0.243572   -0.385524    3.113178
      8          1           0       -1.344723    1.770681    2.544249
      9          1           0       -2.956098    1.882199    0.628233
     10          1           0       -2.357803   -2.298991   -0.133973
     11          1           0       -0.744477   -2.424148    1.779558
     12          7           0       -3.674803   -0.133692   -0.961638
     13          8           0       -3.886882   -1.169797   -1.587852
     14          8           0       -4.191048    0.955868   -1.200357
     15          6           0        1.479476    2.492217   -0.385605
     16          6           0        2.844210    2.371289   -0.103828
     17          6           0        3.456574    1.114633   -0.084477
     18          6           0        2.670645   -0.005045   -0.352665
     19          6           0        1.308718    0.082843   -0.636782
     20          6           0        0.717430    1.349623   -0.650715
     21          1           0        1.011963    3.472350   -0.398533
     22          1           0        3.438494    3.256912    0.102434
     23          1           0        4.511157    0.992253    0.130686
     24          1           0        0.742312   -0.818230   -0.838445
     25          1           0       -0.342645    1.440523   -0.869859
     26          7           0        3.307771   -1.340769   -0.335047
     27          8           0        2.593411   -2.311808   -0.574656
     28          8           0        4.509446   -1.391380   -0.081962
 ---------------------------------------------------------------------

 SCF Done:  E(RHF) =  -868.335917057     A.U. after   16 cycles
 E2 =    -0.2605321314D+01 EUMP2 =    -0.87094123837148D+03

 The electronic state is 1-A.
 Alpha  occ. eigenvalues --  -20.61497 -20.61472 -20.61131 -20.61112 -15.86543
 Alpha  occ. eigenvalues --  -15.86168 -11.32000 -11.31404 -11.28509 -11.28448
 Alpha  occ. eigenvalues --  -11.28096 -11.27951 -11.27845 -11.27657 -11.27484
 Alpha  occ. eigenvalues --  -11.27385 -11.26986 -11.26802  -1.60570  -1.60202
 Alpha  occ. eigenvalues --   -1.40116  -1.39758  -1.20161  -1.19552  -1.09477
 Alpha  occ. eigenvalues --   -1.08992  -1.05522  -1.04926  -0.96310  -0.95843
 Alpha  occ. eigenvalues --   -0.86876  -0.86345  -0.83117  -0.82675  -0.78189
 Alpha  occ. eigenvalues --   -0.77746  -0.72734  -0.72389  -0.71925  -0.71530
 Alpha  occ. eigenvalues --   -0.71136  -0.70683  -0.65730  -0.65430  -0.65202
 Alpha  occ. eigenvalues --   -0.64964  -0.62818  -0.62351  -0.55904  -0.55528
 Alpha  occ. eigenvalues --   -0.54215  -0.53529  -0.53114  -0.52751  -0.49512
 Alpha  occ. eigenvalues --   -0.49495  -0.49151  -0.49130  -0.45495  -0.45191
 Alpha  occ. eigenvalues --   -0.38303  -0.37865  -0.36878  -0.36128
 Alpha virt. eigenvalues --    0.04259   0.04766   0.10097   0.11445   0.15794
 Alpha virt. eigenvalues --    0.16279   0.20755   0.21471   0.26583   0.26990
 Alpha virt. eigenvalues --    0.27895   0.28252   0.30209   0.31173   0.31900

 Mulliken charges:
               1
     1  C   -0.167640
     2  C   -0.209762
     3  C   -0.188920
     4  C    0.157690
     5  C   -0.179942
     6  C   -0.219077
     7  H    0.230926
     8  H    0.224242
     9  H    0.274646
    10  H    0.281359
    11  H    0.235793
    12  N    0.487387
    13  O   -0.455705
    14  O   -0.461173
    15  C   -0.177002
    16  C   -0.219105
    17  C   -0.173297
    18  C    0.155212
    19  C   -0.171286
    20  C   -0.214829
    21  H    0.224422
    22  H    0.222906
    23  H    0.274776
    24  H    0.274572
    25  H    0.229168
    26  N    0.487901
    27  O   -0.463435
    28  O   -0.459827
 Sum of Mulliken charges =  -0.00000

 Dipole moment (field-independent basis, Debye):
    X=              0.9526    Y=              4.2692    Z=              4.1064  Tot=              5.9996
 Quadrupole moment (field-independent basis, Debye-Ang):
   XX=           -132.4689   YY=            -99.5648   ZZ=           -104.0078
   XY=             14.2798   XZ=             -8.7462   YZ=             -1.1740

 Normal termination of Gaussian 16 at Thu May  6 00:20:39 2021.
