 Gaussian 16, Revision A.03,
 Gaussian 16:  EM64L-G16RevA.03 25-Dec-2016

 -------------
 #p 6-31g* mp2
 -------------

 ------------------------------------------------------
 Input file generated by CHIRIPA (05-May-2021 14:53:13)
 ------------------------------------------------------
 Symbolic Z-matrix:
 Charge =  0 Multiplicity = 1

                         Standard orientation:
 ---------------------------------------------------------------------
 Center     Atomic      Atomic             Coordinates (Angstroms)
 Number     Number       Type             X           Y           Z
 ---------------------------------------------------------------------
      1          6           0        2.535132    0.912718    0.505262
      2          6           0        2.581329    2.327325   -0.073303
      3          6           0        1.674388    3.302924    0.677335
      4          1           0        1.499632    0.546613    0.479732
      5          1           0        2.828472    0.947183    1.563637
      6          1           0        2.289325    2.290007   -1.130638
      7          1           0        3.616870    2.690031   -0.046570
      8          1           0        1.968009    3.369767    1.729912
      9          1           0        0.632921    2.967471    0.639685
     10          1           0        1.722803    4.308128    0.247124
     11          6           0        3.436590   -0.074109   -0.234519
     12          6           0        3.390393   -1.488716    0.344046
     13          6           0        4.297334   -2.464316   -0.406592
     14          1           0        3.143250   -0.108574   -1.292894
     15          1           0        4.472090    0.291995   -0.208989
     16          1           0        2.354852   -1.851422    0.317313
     17          1           0        3.682397   -1.451399    1.401381
     18          1           0        5.338801   -2.128862   -0.368942
     19          1           0        4.003713   -2.531158   -1.459170
     20          1           0        4.248919   -3.469519    0.023619
     21          6           0       -1.928335   -2.795142    0.231220
     22          6           0       -0.923377   -1.989118   -0.313672
     23          6           0       -1.136362   -0.620676   -0.504860
     24          6           0       -2.371796   -0.089026   -0.138336
     25          6           0       -3.392793   -0.865936    0.406887
     26          6           0       -3.157668   -2.231971    0.589129
     27          1           0       -1.754283   -3.857246    0.376264
     28          1           0        0.032321   -2.423761   -0.592548
     29          1           0       -0.375768    0.026396   -0.924636
     30          1           0       -4.335131   -0.403961    0.675208
     31          1           0       -3.939956   -2.855521    1.012516
     32          7           0       -2.608994    1.358407   -0.336003
     33          8           0       -3.706151    1.802559   -0.004927
     34          8           0       -1.693260    2.021347   -0.818269
 ---------------------------------------------------------------------

 SCF Done:  E(RHF) =  -669.535450273     A.U. after   15 cycles
 E2 =    -0.2093700979D+01 EUMP2 =    -0.67162915125196D+03

 The electronic state is 1-A.
 Alpha  occ. eigenvalues --  -20.60964 -20.60953 -15.85985 -11.31298 -11.27863
 Alpha  occ. eigenvalues --  -11.27848 -11.27590 -11.26866 -11.26852 -11.22190
 Alpha  occ. eigenvalues --  -11.21726 -11.21624 -11.21467 -11.21284 -11.20269
 Alpha  occ. eigenvalues --   -1.60017  -1.39574  -1.19470  -1.08871  -1.08629
 Alpha  occ. eigenvalues --   -1.04867  -1.03583  -0.96006  -0.95716  -0.87028
 Alpha  occ. eigenvalues --   -0.86263  -0.82554  -0.79717  -0.78392  -0.77588
 Alpha  occ. eigenvalues --   -0.72210  -0.71328  -0.70587  -0.65340  -0.65117
 Alpha  occ. eigenvalues --   -0.64891  -0.62184  -0.60972  -0.59466  -0.57600
 Alpha  occ. eigenvalues --   -0.55400  -0.55261  -0.53198  -0.53000  -0.52675
 Alpha  occ. eigenvalues --   -0.52386  -0.49950  -0.48968  -0.48963  -0.47984
 Alpha  occ. eigenvalues --   -0.46789  -0.45920  -0.45814  -0.44873  -0.43854
 Alpha  occ. eigenvalues --   -0.37439  -0.36433
 Alpha virt. eigenvalues --    0.04841   0.11090   0.16231   0.19104   0.23134
 Alpha virt. eigenvalues --    0.23414   0.25637   0.26864   0.27881   0.28246
 Alpha virt. eigenvalues --    0.29576   0.30852   0.31576   0.31736   0.32424

 Mulliken charges:
               1
     1  C   -0.303213
     2  C   -0.299129
     3  C   -0.482958
     4  H    0.145540
     5  H    0.151372
     6  H    0.153368
     7  H    0.149911
     8  H    0.149210
     9  H    0.175066
    10  H    0.161596
    11  C   -0.299144
    12  C   -0.302162
    13  C   -0.476009
    14  H    0.146288
    15  H    0.153370
    16  H    0.142478
    17  H    0.155876
    18  H    0.159213
    19  H    0.153588
    20  H    0.159109
    21  C   -0.170820
    22  C   -0.222002
    23  C   -0.172571
    24  C    0.157502
    25  C   -0.170542
    26  C   -0.218260
    27  H    0.226447
    28  H    0.228503
    29  H    0.278888
    30  H    0.275922
    31  H    0.223962
    32  N    0.488727
    33  O   -0.458323
    34  O   -0.460805
 Sum of Mulliken charges =  -0.00000

 Dipole moment (field-independent basis, Debye):
    X=              0.7094    Y=             -5.0061    Z=              0.7100  Tot=              5.1057
 Quadrupole moment (field-independent basis, Debye-Ang):
   XX=            -93.9835   YY=            -94.8046   ZZ=            -94.8921
   XY=             13.3439   XZ=             -3.0354   YZ=              0.0714

 Normal termination of Gaussian 16 at Thu May  6 20:18:20 2021.
