 Gaussian 16, Revision A.03,
 Gaussian 16:  EM64L-G16RevA.03 25-Dec-2016

 -------------
 #p 6-31g* mp2
 -------------

 ------------------------------------------------------
 Input file generated by CHIRIPA (05-May-2021 14:53:17)
 ------------------------------------------------------
 Symbolic Z-matrix:
 Charge =  0 Multiplicity = 1

                         Standard orientation:
 ---------------------------------------------------------------------
 Center     Atomic      Atomic             Coordinates (Angstroms)
 Number     Number       Type             X           Y           Z
 ---------------------------------------------------------------------
      1          6           0        3.055492    1.126783    0.066512
      2          6           0        1.856971    2.076270    0.069022
      3          6           0        2.205189    3.466397    0.602020
      4          1           0        3.449467    1.041117    1.088466
      5          1           0        3.859025    1.563384   -0.542675
      6          1           0        1.055428    1.637365    0.676892
      7          1           0        1.465686    2.159535   -0.953024
      8          1           0        2.987703    3.928254   -0.008686
      9          1           0        2.575114    3.403117    1.630491
     10          1           0        1.334028    4.128883    0.594982
     11          6           0        2.723189   -0.266872   -0.463610
     12          6           0        3.921710   -1.216360   -0.466120
     13          6           0        3.573492   -2.606486   -0.999118
     14          1           0        1.919656   -0.703473    0.145577
     15          1           0        2.329214   -0.181207   -1.485565
     16          1           0        4.312996   -1.299625    0.555926
     17          1           0        4.723254   -0.777455   -1.073990
     18          1           0        3.203568   -2.543206   -2.027589
     19          1           0        2.790978   -3.068343   -0.388412
     20          1           0        4.444654   -3.268972   -0.992081
     21          6           0       -3.375832    1.602428   -1.010077
     22          6           0       -2.448603    1.839524    0.009998
     23          6           0       -1.822725    0.773201    0.662519
     24          6           0       -2.149162   -0.523293    0.267763
     25          6           0       -3.068762   -0.791882   -0.744900
     26          6           0       -3.682412    0.289797   -1.383611
     27          1           0       -3.857279    2.436738   -1.511607
     28          1           0       -2.208568    2.857884    0.302179
     29          1           0       -1.101170    0.928194    1.455458
     30          1           0       -3.287591   -1.818059   -1.014141
     31          1           0       -4.402121    0.102673   -2.175476
     32          7           0       -1.493046   -1.660289    0.951248
     33          8           0       -1.797900   -2.793194    0.584879
     34          8           0       -0.686350   -1.397033    1.840392
 ---------------------------------------------------------------------

 SCF Done:  E(RHF) =  -669.535791553     A.U. after   15 cycles
 E2 =    -0.2092664550D+01 EUMP2 =    -0.67162845610316D+03

 The electronic state is 1-A.
 Alpha  occ. eigenvalues --  -20.60921 -20.60915 -15.85944 -11.31230 -11.27800
 Alpha  occ. eigenvalues --  -11.27790 -11.27534 -11.26802 -11.26790 -11.21721
 Alpha  occ. eigenvalues --  -11.21327 -11.21199 -11.21103 -11.20899 -11.20451
 Alpha  occ. eigenvalues --   -1.59974  -1.39532  -1.19405  -1.08813  -1.08183
 Alpha  occ. eigenvalues --   -1.04801  -1.03324  -0.95757  -0.95661  -0.86779
 Alpha  occ. eigenvalues --   -0.86203  -0.82497  -0.79438  -0.77974  -0.77529
 Alpha  occ. eigenvalues --   -0.72167  -0.71279  -0.70530  -0.65061  -0.64915
 Alpha  occ. eigenvalues --   -0.64706  -0.62180  -0.60697  -0.59188  -0.57367
 Alpha  occ. eigenvalues --   -0.55313  -0.55019  -0.53139  -0.52913  -0.52492
 Alpha  occ. eigenvalues --   -0.52173  -0.49684  -0.48934  -0.48920  -0.47723
 Alpha  occ. eigenvalues --   -0.46452  -0.45571  -0.45443  -0.44770  -0.43553
 Alpha  occ. eigenvalues --   -0.37379  -0.36359
 Alpha virt. eigenvalues --    0.04941   0.11195   0.16416   0.20566   0.23192
 Alpha virt. eigenvalues --    0.24357   0.25909   0.27033   0.27391   0.28330
 Alpha virt. eigenvalues --    0.29297   0.30382   0.31502   0.31923   0.32579

 Mulliken charges:
               1
     1  C   -0.296954
     2  C   -0.303094
     3  C   -0.475083
     4  H    0.152153
     5  H    0.148068
     6  H    0.149039
     7  H    0.150946
     8  H    0.157219
     9  H    0.157606
    10  H    0.151916
    11  C   -0.305441
    12  C   -0.298870
    13  C   -0.477872
    14  H    0.162779
    15  H    0.145542
    16  H    0.153697
    17  H    0.148378
    18  H    0.152045
    19  H    0.164989
    20  H    0.158519
    21  C   -0.170756
    22  C   -0.218399
    23  C   -0.168775
    24  C    0.158209
    25  C   -0.170904
    26  C   -0.218526
    27  H    0.225796
    28  H    0.224122
    29  H    0.276492
    30  H    0.275615
    31  H    0.223552
    32  N    0.488363
    33  O   -0.458759
    34  O   -0.461612
 Sum of Mulliken charges =  -0.00000

 Dipole moment (field-independent basis, Debye):
    X=             -2.3746    Y=              3.8676    Z=             -2.3604  Tot=              5.1155
 Quadrupole moment (field-independent basis, Debye-Ang):
   XX=            -84.0377   YY=            -98.4538   ZZ=            -94.2765
   XY=             -5.7958   XZ=              6.4440   YZ=              3.6508

 Normal termination of Gaussian 16 at Wed May  5 22:02:42 2021.
