 Gaussian 16, Revision A.03,
 Gaussian 16:  EM64L-G16RevA.03 25-Dec-2016

 -------------
 #p 6-31g* mp2
 -------------

 ------------------------------------------------------
 Input file generated by CHIRIPA (05-May-2021 14:57:26)
 ------------------------------------------------------
 Symbolic Z-matrix:
 Charge =  0 Multiplicity = 1

                         Standard orientation:
 ---------------------------------------------------------------------
 Center     Atomic      Atomic             Coordinates (Angstroms)
 Number     Number       Type             X           Y           Z
 ---------------------------------------------------------------------
      1          6           0        2.101399    1.812715   -0.072878
      2          6           0        1.950201    0.513794    0.423574
      3          6           0        3.045126   -0.352996    0.489624
      4          6           0        4.282323    0.114164    0.048719
      5          6           0        4.464920    1.402668   -0.450985
      6          6           0        3.356064    2.252232   -0.507806
      7          1           0        1.245424    2.479367   -0.120603
      8          1           0        0.977001    0.169754    0.762045
      9          1           0        2.956270   -1.363556    0.869481
     10          1           0        5.447584    1.717111   -0.781007
     11          1           0        3.476442    3.260469   -0.893827
     12          7           0        5.448845   -0.794349    0.113759
     13          8           0        6.528237   -0.358708   -0.280912
     14          8           0        5.261684   -1.924881    0.558176
     15          6           0       -5.811543    1.554727    0.270285
     16          6           0       -6.219229    0.237641    0.034497
     17          6           0       -5.274157   -0.778084   -0.137808
     18          6           0       -3.923639   -0.439716   -0.067803
     19          6           0       -3.486030    0.863078    0.165685
     20          6           0       -4.448648    1.862700    0.335013
     21          1           0       -6.552514    2.337512    0.402980
     22          1           0       -7.276990   -0.004450   -0.016280
     23          1           0       -5.562048   -1.806069   -0.321611
     24          1           0       -2.424419    1.073680    0.210929
     25          1           0       -4.129127    2.884692    0.517996
     26          7           0       -2.913847   -1.506494   -0.248639
     27          8           0       -1.730102   -1.182450   -0.182429
     28          8           0       -3.325235   -2.646479   -0.453166
 ---------------------------------------------------------------------

 SCF Done:  E(RHF) =  -868.338581404     A.U. after   16 cycles
 E2 =    -0.2598841580D+01 EUMP2 =    -0.87093742298398D+03

 The electronic state is 1-A.
 Alpha  occ. eigenvalues --  -20.61635 -20.61576 -20.60257 -20.60242 -15.86657
 Alpha  occ. eigenvalues --  -15.85299 -11.31926 -11.30614 -11.28553 -11.28430
 Alpha  occ. eigenvalues --  -11.28170 -11.27495 -11.27422 -11.27204 -11.27075
 Alpha  occ. eigenvalues --  -11.26960 -11.26271 -11.26046  -1.60666  -1.59327
 Alpha  occ. eigenvalues --   -1.40230  -1.38881  -1.20080  -1.18774  -1.09483
 Alpha  occ. eigenvalues --   -1.08200  -1.05476  -1.04146  -0.96341  -0.95045
 Alpha  occ. eigenvalues --   -0.86875  -0.85561  -0.83185  -0.81856  -0.78254
 Alpha  occ. eigenvalues --   -0.76894  -0.72884  -0.71977  -0.71522  -0.71187
 Alpha  occ. eigenvalues --   -0.70648  -0.69939  -0.65739  -0.65476  -0.64429
 Alpha  occ. eigenvalues --   -0.64130  -0.62838  -0.61474  -0.55958  -0.54732
 Alpha  occ. eigenvalues --   -0.53796  -0.53570  -0.52506  -0.52222  -0.49645
 Alpha  occ. eigenvalues --   -0.49601  -0.48280  -0.48272  -0.45653  -0.44297
 Alpha  occ. eigenvalues --   -0.38035  -0.37071  -0.36793  -0.35734
 Alpha virt. eigenvalues --    0.04289   0.05604   0.10587   0.11902   0.15806
 Alpha virt. eigenvalues --    0.17107   0.19943   0.21879   0.25768   0.27007
 Alpha virt. eigenvalues --    0.28464   0.28817   0.30605   0.31346   0.32027

 Mulliken charges:
               1
     1  C   -0.171638
     2  C   -0.220775
     3  C   -0.171502
     4  C    0.158565
     5  C   -0.172526
     6  C   -0.218254
     7  H    0.217119
     8  H    0.239342
     9  H    0.278939
    10  H    0.273501
    11  H    0.219820
    12  N    0.487986
    13  O   -0.462723
    14  O   -0.459384
    15  C   -0.170158
    16  C   -0.218065
    17  C   -0.170189
    18  C    0.159265
    19  C   -0.169316
    20  C   -0.217768
    21  H    0.227893
    22  H    0.226164
    23  H    0.277771
    24  H    0.266558
    25  H    0.223089
    26  N    0.492375
    27  O   -0.471828
    28  O   -0.454261
 Sum of Mulliken charges =  -0.00000

 Dipole moment (field-independent basis, Debye):
    X=             -8.0960    Y=              6.7636    Z=              0.4313  Tot=             10.5583
 Quadrupole moment (field-independent basis, Debye-Ang):
   XX=           -107.5959   YY=           -103.2763   ZZ=           -105.7662
   XY=              4.8853   XZ=             -4.1007   YZ=             -1.4641

 Normal termination of Gaussian 16 at Thu May  6 14:47:04 2021.
