 Gaussian 16, Revision A.03,
 Gaussian 16:  EM64L-G16RevA.03 25-Dec-2016

 -------------
 #p 6-31g* mp2
 -------------

 ------------------------------------------------------
 Input file generated by CHIRIPA (05-May-2021 14:51:09)
 ------------------------------------------------------
 Symbolic Z-matrix:
 Charge =  0 Multiplicity = 1

                         Standard orientation:
 ---------------------------------------------------------------------
 Center     Atomic      Atomic             Coordinates (Angstroms)
 Number     Number       Type             X           Y           Z
 ---------------------------------------------------------------------
      1          6           0       -2.639927    0.242357   -0.257495
      2          6           0       -4.013538    0.717492   -0.732283
      3          6           0       -3.934017    1.952378   -1.630352
      4          1           0       -2.143132    1.059445    0.283345
      5          1           0       -2.013663    0.020651   -1.132729
      6          1           0       -4.637483    0.936917    0.143595
      7          1           0       -4.507199   -0.100883   -1.271890
      8          1           0       -3.333897    1.742519   -2.521653
      9          1           0       -3.464922    2.786215   -1.098125
     10          1           0       -4.927140    2.274940   -1.958256
     11          6           0       -2.702950   -0.991354    0.641233
     12          6           0       -1.329338   -1.466490    1.116021
     13          6           0       -1.408859   -2.701375    2.014091
     14          1           0       -3.329213   -0.769648    1.516467
     15          1           0       -3.199744   -1.808442    0.100393
     16          1           0       -0.835677   -0.648114    1.655628
     17          1           0       -0.705393   -1.685914    0.240143
     18          1           0       -1.877955   -3.535212    1.481864
     19          1           0       -2.008979   -2.491516    2.905391
     20          1           0       -0.415737   -3.023937    2.341995
     21          6           0        3.101821   -0.216476   -0.413119
     22          6           0        2.337230   -1.244606   -1.247587
     23          6           0        3.211704   -2.420942   -1.682700
     24          1           0        3.956602    0.155534   -0.994414
     25          1           0        3.519275   -0.712161    0.474249
     26          1           0        1.920175   -0.746835   -2.132406
     27          1           0        1.484059   -1.614070   -0.664310
     28          1           0        3.616777   -2.943343   -0.809995
     29          1           0        4.055370   -2.071181   -2.286433
     30          1           0        2.645118   -3.143761   -2.277994
     31          6           0        2.241056    0.965473    0.029382
     32          6           0        3.005647    1.993603    0.863848
     33          6           0        2.131173    3.169939    1.298961
     34          1           0        1.823601    1.461159   -0.857987
     35          1           0        1.386275    0.593463    0.610677
     36          1           0        3.858817    2.363066    0.280572
     37          1           0        3.422702    1.495833    1.748668
     38          1           0        1.287506    2.820178    1.902695
     39          1           0        1.726100    3.692340    0.426256
     40          1           0        2.697759    3.892757    1.894255
 ---------------------------------------------------------------------

 SCF Done:  E(RHF) =  -470.733168699     A.U. after   11 cycles
 E2 =    -0.1583663534D+01 EUMP2 =    -0.47231683223356D+03

 The electronic state is 1-A.
 Alpha  occ. eigenvalues --  -11.21647 -11.21600 -11.21574 -11.21561 -11.21420
 Alpha  occ. eigenvalues --  -11.21358 -11.21351 -11.21287 -11.21128 -11.21068
 Alpha  occ. eigenvalues --  -11.21065 -11.21062  -1.08460  -1.08386  -1.03562
 Alpha  occ. eigenvalues --   -1.03505  -0.96000  -0.95956  -0.87018  -0.86973
 Alpha  occ. eigenvalues --   -0.79674  -0.79543  -0.78386  -0.78076  -0.65100
 Alpha  occ. eigenvalues --   -0.65019  -0.61057  -0.60822  -0.59395  -0.59303
 Alpha  occ. eigenvalues --   -0.57614  -0.57565  -0.55297  -0.55234  -0.52708
 Alpha  occ. eigenvalues --   -0.52650  -0.52425  -0.52384  -0.49998  -0.49858
 Alpha  occ. eigenvalues --   -0.48093  -0.47861  -0.46869  -0.46411  -0.46170
 Alpha  occ. eigenvalues --   -0.45714  -0.45659  -0.45209  -0.43803  -0.43751
 Alpha virt. eigenvalues --    0.21058   0.23269   0.23414   0.24176   0.25434
 Alpha virt. eigenvalues --    0.26269   0.27009   0.27896   0.27941   0.29877
 Alpha virt. eigenvalues --    0.30152   0.31589   0.31770   0.31969   0.32076

 Mulliken charges:
               1
     1  C   -0.298829
     2  C   -0.299679
     3  C   -0.475710
     4  H    0.150151
     5  H    0.150280
     6  H    0.151867
     7  H    0.151875
     8  H    0.155128
     9  H    0.155415
    10  H    0.160195
    11  C   -0.297520
    12  C   -0.309714
    13  C   -0.475446
    14  H    0.149482
    15  H    0.149699
    16  H    0.153198
    17  H    0.159704
    18  H    0.155483
    19  H    0.155479
    20  H    0.159871
    21  C   -0.297395
    22  C   -0.308088
    23  C   -0.475031
    24  H    0.149438
    25  H    0.149067
    26  H    0.151217
    27  H    0.160186
    28  H    0.155054
    29  H    0.155182
    30  H    0.159733
    31  C   -0.303509
    32  C   -0.299527
    33  C   -0.475449
    34  H    0.149381
    35  H    0.155572
    36  H    0.151856
    37  H    0.151648
    38  H    0.154202
    39  H    0.155340
    40  H    0.160194
 Sum of Mulliken charges =  -0.00000

 Dipole moment (field-independent basis, Debye):
    X=             -0.0315    Y=             -0.0097    Z=              0.0003  Tot=              0.0330
 Quadrupole moment (field-independent basis, Debye-Ang):
   XX=            -85.0751   YY=            -85.8171   ZZ=            -84.0000
   XY=              0.6526   XZ=             -0.1348   YZ=              0.2729

 Normal termination of Gaussian 16 at Wed May  5 22:58:56 2021.
