 Gaussian 16, Revision A.03,
 Gaussian 16:  EM64L-G16RevA.03 25-Dec-2016

 -------------
 #p 6-31g* mp2
 -------------

 ------------------------------------------------------
 Input file generated by CHIRIPA (05-May-2021 14:55:23)
 ------------------------------------------------------
 Symbolic Z-matrix:
 Charge =  0 Multiplicity = 1

                         Standard orientation:
 ---------------------------------------------------------------------
 Center     Atomic      Atomic             Coordinates (Angstroms)
 Number     Number       Type             X           Y           Z
 ---------------------------------------------------------------------
      1          6           0        4.355932    2.293069   -0.294088
      2          6           0        3.159826    2.293668    0.431068
      3          6           0        2.466796    1.100965    0.658480
      4          6           0        3.000983   -0.079379    0.143969
      5          6           0        4.190364   -0.112512   -0.582367
      6          6           0        4.866483    1.092098   -0.797604
      7          1           0        4.887726    3.224214   -0.466018
      8          1           0        2.760966    3.224858    0.823293
      9          1           0        1.538756    1.072721    1.216479
     10          1           0        4.563105   -1.056568   -0.960838
     11          1           0        5.795179    1.088624   -1.361126
     12          7           0        2.276254   -1.348343    0.378275
     13          8           0        2.767865   -2.374888   -0.085580
     14          8           0        1.230324   -1.292384    1.021342
     15          6           0       -3.806645   -0.902057   -0.216296
     16          6           0       -2.302015   -1.158220   -0.124344
     17          6           0       -1.942650   -2.635201   -0.289207
     18          1           0       -4.320644   -1.494073    0.553294
     19          1           0       -4.174502   -1.263803   -1.186459
     20          1           0       -1.936857   -0.794843    0.844797
     21          1           0       -1.791521   -0.565380   -0.894118
     22          1           0       -2.279426   -3.007335   -1.262193
     23          1           0       -2.425587   -3.238103    0.486603
     24          1           0       -0.862215   -2.795636   -0.220077
     25          6           0       -4.181648    0.569869   -0.053406
     26          6           0       -5.686278    0.826032   -0.145358
     27          6           0       -6.045644    2.303011    0.019505
     28          1           0       -3.813791    0.931614    0.916756
     29          1           0       -3.667650    1.161883   -0.822996
     30          1           0       -6.196772    0.233190    0.624416
     31          1           0       -6.051436    0.462655   -1.114499
     32          1           0       -5.562706    2.905913   -0.756305
     33          1           0       -5.708868    2.675146    0.992490
     34          1           0       -7.126079    2.463447   -0.049625
 ---------------------------------------------------------------------

 SCF Done:  E(RHF) =  -669.536408813     A.U. after   15 cycles
 E2 =    -0.2091427841D+01 EUMP2 =    -0.67162783665481D+03

 The electronic state is 1-A.
 Alpha  occ. eigenvalues --  -20.61011 -20.60992 -15.86017 -11.31312 -11.27871
 Alpha  occ. eigenvalues --  -11.27865 -11.27606 -11.26872 -11.26861 -11.21203
 Alpha  occ. eigenvalues --  -11.20859 -11.20806 -11.20568 -11.20424 -11.19503
 Alpha  occ. eigenvalues --   -1.60055  -1.39610  -1.19477  -1.08888  -1.07722
 Alpha  occ. eigenvalues --   -1.04868  -1.02704  -0.95737  -0.95149  -0.86271
 Alpha  occ. eigenvalues --   -0.86177  -0.82567  -0.78834  -0.77640  -0.77462
 Alpha  occ. eigenvalues --   -0.72238  -0.71365  -0.70585  -0.65133  -0.64871
 Alpha  occ. eigenvalues --   -0.64368  -0.62214  -0.60119  -0.58582  -0.56713
 Alpha  occ. eigenvalues --   -0.55374  -0.54478  -0.53202  -0.52960  -0.51805
 Alpha  occ. eigenvalues --   -0.51594  -0.49154  -0.48999  -0.48965  -0.47097
 Alpha  occ. eigenvalues --   -0.45908  -0.45084  -0.44977  -0.44892  -0.42939
 Alpha  occ. eigenvalues --   -0.37454  -0.36467
 Alpha virt. eigenvalues --    0.04872   0.11188   0.16363   0.21277   0.23474
 Alpha virt. eigenvalues --    0.25153   0.27080   0.27322   0.27788   0.28508
 Alpha virt. eigenvalues --    0.28934   0.30817   0.31944   0.32169   0.32793

 Mulliken charges:
               1
     1  C   -0.170485
     2  C   -0.218636
     3  C   -0.170446
     4  C    0.158190
     5  C   -0.170732
     6  C   -0.218641
     7  H    0.226089
     8  H    0.224045
     9  H    0.276282
    10  H    0.275878
    11  H    0.223869
    12  N    0.489046
    13  O   -0.459177
    14  O   -0.459605
    15  C   -0.297942
    16  C   -0.295761
    17  C   -0.482563
    18  H    0.148536
    19  H    0.146923
    20  H    0.157206
    21  H    0.144198
    22  H    0.145776
    23  H    0.150425
    24  H    0.185317
    25  C   -0.296993
    26  C   -0.298857
    27  C   -0.475155
    28  H    0.147201
    29  H    0.146369
    30  H    0.151920
    31  H    0.151425
    32  H    0.153403
    33  H    0.153778
    34  H    0.159115
 Sum of Mulliken charges =  -0.00000

 Dipole moment (field-independent basis, Debye):
    X=              2.9061    Y=              4.4139    Z=             -0.7453  Tot=              5.3370
 Quadrupole moment (field-independent basis, Debye-Ang):
   XX=            -78.4170   YY=            -95.7673   ZZ=            -93.4638
   XY=             11.9189   XZ=             -4.5558   YZ=              1.8000

 Normal termination of Gaussian 16 at Wed May  5 23:56:10 2021.
