 Gaussian 16, Revision A.03,
 Gaussian 16:  EM64L-G16RevA.03 25-Dec-2016

 -------------
 #p 6-31g* mp2
 -------------

 ------------------------------------------------------
 Input file generated by CHIRIPA (05-May-2021 14:51:12)
 ------------------------------------------------------
 Symbolic Z-matrix:
 Charge =  0 Multiplicity = 1

                         Standard orientation:
 ---------------------------------------------------------------------
 Center     Atomic      Atomic             Coordinates (Angstroms)
 Number     Number       Type             X           Y           Z
 ---------------------------------------------------------------------
      1          6           0       -3.462592    0.944995   -0.290560
      2          6           0       -3.007921    2.268913    0.324663
      3          6           0       -3.454431    3.483465   -0.489761
      4          1           0       -3.067492    0.868174   -1.312783
      5          1           0       -4.557915    0.946378   -0.378092
      6          1           0       -1.913883    2.264474    0.412286
      7          1           0       -3.403991    2.342506    1.345608
      8          1           0       -4.546073    3.515685   -0.566452
      9          1           0       -3.047499    3.437210   -1.505078
     10          1           0       -3.118726    4.419220   -0.032022
     11          6           0       -3.023834   -0.278421    0.512230
     12          6           0       -3.478505   -1.602339   -0.102993
     13          6           0       -3.031995   -2.816890    0.711431
     14          1           0       -1.928511   -0.279803    0.599763
     15          1           0       -3.418934   -0.201599    1.534453
     16          1           0       -3.082435   -1.675931   -1.123938
     17          1           0       -4.572543   -1.597900   -0.190615
     18          1           0       -3.438927   -2.770635    1.726748
     19          1           0       -1.940353   -2.849110    0.788122
     20          1           0       -3.367700   -3.752646    0.253693
     21          6           0        2.496805   -0.486823   -0.058543
     22          6           0        2.110851   -1.834838   -0.668361
     23          6           0        0.614394   -2.127739   -0.556033
     24          1           0        2.196792   -0.470248    0.998179
     25          1           0        1.927837    0.309845   -0.557532
     26          1           0        2.681399   -2.628591   -0.169314
     27          1           0        2.411991   -1.848277   -1.723706
     28          1           0        0.031296   -1.356732   -1.069985
     29          1           0        0.302235   -2.141480    0.493237
     30          1           0        0.360567   -3.096197   -0.998212
     31          6           0        3.989621   -0.179752   -0.163128
     32          6           0        4.375575    1.168264    0.446691
     33          6           0        5.872032    1.461164    0.334363
     34          1           0        4.558589   -0.976420    0.335862
     35          1           0        4.289634   -0.196327   -1.219849
     36          1           0        4.074435    1.181703    1.502034
     37          1           0        3.805026    1.962016   -0.052355
     38          1           0        6.184190    1.474905   -0.714908
     39          1           0        6.455130    0.690157    0.848314
     40          1           0        6.125859    2.429622    0.776541
 ---------------------------------------------------------------------

 SCF Done:  E(RHF) =  -470.732745447     A.U. after   11 cycles
 E2 =    -0.1583452520D+01 EUMP2 =    -0.47231619796729D+03

 The electronic state is 1-A.
 Alpha  occ. eigenvalues --  -11.21683 -11.21642 -11.21561 -11.21479 -11.21474
 Alpha  occ. eigenvalues --  -11.21410 -11.21330 -11.21241 -11.21191 -11.21102
 Alpha  occ. eigenvalues --  -11.21046 -11.20875  -1.08501  -1.08345  -1.03616
 Alpha  occ. eigenvalues --   -1.03432  -0.96074  -0.95880  -0.87097  -0.86899
 Alpha  occ. eigenvalues --   -0.79708  -0.79483  -0.78323  -0.78145  -0.65129
 Alpha  occ. eigenvalues --   -0.64987  -0.61022  -0.60849  -0.59427  -0.59264
 Alpha  occ. eigenvalues --   -0.57663  -0.57505  -0.55467  -0.55098  -0.52761
 Alpha  occ. eigenvalues --   -0.52592  -0.52496  -0.52289  -0.50156  -0.49677
 Alpha  occ. eigenvalues --   -0.48102  -0.47748  -0.46765  -0.46447  -0.45951
 Alpha  occ. eigenvalues --   -0.45770  -0.45681  -0.45446  -0.43846  -0.43697
 Alpha virt. eigenvalues --    0.21024   0.22980   0.23761   0.24651   0.26180
 Alpha virt. eigenvalues --    0.26229   0.27219   0.27478   0.28052   0.29462
 Alpha virt. eigenvalues --    0.30606   0.31247   0.31695   0.31980   0.32175

 Mulliken charges:
               1
     1  C   -0.298151
     2  C   -0.299599
     3  C   -0.475610
     4  H    0.148743
     5  H    0.149416
     6  H    0.151819
     7  H    0.151907
     8  H    0.155180
     9  H    0.154837
    10  H    0.160088
    11  C   -0.302347
    12  C   -0.298509
    13  C   -0.482683
    14  H    0.153753
    15  H    0.148944
    16  H    0.151922
    17  H    0.151167
    18  H    0.153672
    19  H    0.164595
    20  H    0.159055
    21  C   -0.298693
    22  C   -0.300377
    23  C   -0.479798
    24  H    0.149943
    25  H    0.149060
    26  H    0.152490
    27  H    0.152191
    28  H    0.157310
    29  H    0.157082
    30  H    0.161791
    31  C   -0.298285
    32  C   -0.299723
    33  C   -0.475758
    34  H    0.149774
    35  H    0.149803
    36  H    0.152108
    37  H    0.151940
    38  H    0.155234
    39  H    0.155278
    40  H    0.160433
 Sum of Mulliken charges =  -0.00000

 Dipole moment (field-independent basis, Debye):
    X=              0.0826    Y=             -0.0206    Z=             -0.0048  Tot=              0.0852
 Quadrupole moment (field-independent basis, Debye-Ang):
   XX=            -85.4060   YY=            -85.6845   ZZ=            -83.9035
   XY=             -0.3393   XZ=             -0.4160   YZ=              0.1160

 Normal termination of Gaussian 16 at Wed May  5 23:08:49 2021.
