 Gaussian 16, Revision A.03,
 Gaussian 16:  EM64L-G16RevA.03 25-Dec-2016

 -------------
 #p 6-31g* mp2
 -------------

 ------------------------------------------------------
 Input file generated by CHIRIPA (05-May-2021 14:55:22)
 ------------------------------------------------------
 Symbolic Z-matrix:
 Charge =  0 Multiplicity = 1

                         Standard orientation:
 ---------------------------------------------------------------------
 Center     Atomic      Atomic             Coordinates (Angstroms)
 Number     Number       Type             X           Y           Z
 ---------------------------------------------------------------------
      1          6           0       -0.600196   -2.853187    0.537654
      2          6           0       -1.027407   -2.558024   -0.761149
      3          6           0       -1.700140   -1.362990   -1.032940
      4          6           0       -1.929926   -0.481931    0.022628
      5          6           0       -1.516713   -0.747508    1.327240
      6          6           0       -0.845780   -1.948582    1.575873
      7          1           0       -0.078300   -3.783864    0.739793
      8          1           0       -0.838061   -3.258682   -1.569401
      9          1           0       -2.041839   -1.109336   -2.029093
     10          1           0       -1.719979   -0.029350    2.112320
     11          1           0       -0.515151   -2.175173    2.585520
     12          7           0       -2.641166    0.786395   -0.252847
     13          8           0       -2.831353    1.545970    0.694524
     14          8           0       -2.994983    0.996918   -1.410919
     15          6           0        2.331810    0.171259   -0.360345
     16          6           0        3.574955   -0.616765    0.053894
     17          6           0        3.583556   -2.041672   -0.500507
     18          1           0        1.435461   -0.362888   -0.016556
     19          1           0        2.275141    0.203252   -1.457232
     20          1           0        3.630010   -0.646082    1.149670
     21          1           0        4.468454   -0.080582   -0.290754
     22          1           0        3.553044   -2.029457   -1.594819
     23          1           0        2.709836   -2.598170   -0.146212
     24          1           0        4.481013   -2.586997   -0.192204
     25          6           0        2.308716    1.597616    0.186189
     26          6           0        1.065571    2.385640   -0.228050
     27          6           0        1.056970    3.810546    0.326352
     28          1           0        2.365385    1.565623    1.283076
     29          1           0        3.205065    2.131763   -0.157599
     30          1           0        0.172072    1.849456    0.116598
     31          1           0        1.010516    2.414956   -1.323826
     32          1           0        1.930690    4.367044   -0.027944
     33          1           0        1.087482    3.798332    1.420665
     34          1           0        0.159513    4.355872    0.018048
 ---------------------------------------------------------------------

 SCF Done:  E(RHF) =  -669.535593061     A.U. after   15 cycles
 E2 =    -0.2095217653D+01 EUMP2 =    -0.67163081071399D+03

 The electronic state is 1-A.
 Alpha  occ. eigenvalues --  -20.60906 -20.60900 -15.85935 -11.31320 -11.27888
 Alpha  occ. eigenvalues --  -11.27867 -11.27639 -11.26922 -11.26899 -11.21785
 Alpha  occ. eigenvalues --  -11.21464 -11.21306 -11.21257 -11.21198 -11.20553
 Alpha  occ. eigenvalues --   -1.59967  -1.39521  -1.19506  -1.08897  -1.08353
 Alpha  occ. eigenvalues --   -1.04898  -1.03447  -0.95898  -0.95720  -0.86924
 Alpha  occ. eigenvalues --   -0.86294  -0.82549  -0.79541  -0.78153  -0.77594
 Alpha  occ. eigenvalues --   -0.72161  -0.71296  -0.70600  -0.65153  -0.65006
 Alpha  occ. eigenvalues --   -0.64893  -0.62238  -0.60861  -0.59292  -0.57484
 Alpha  occ. eigenvalues --   -0.55412  -0.55206  -0.53313  -0.52984  -0.52565
 Alpha  occ. eigenvalues --   -0.52325  -0.49875  -0.48923  -0.48921  -0.47848
 Alpha  occ. eigenvalues --   -0.46599  -0.45655  -0.45571  -0.44826  -0.43675
 Alpha  occ. eigenvalues --   -0.37443  -0.36488
 Alpha virt. eigenvalues --    0.04902   0.11098   0.16315   0.21004   0.22945
 Alpha virt. eigenvalues --    0.24213   0.26420   0.27032   0.27378   0.27476
 Alpha virt. eigenvalues --    0.28515   0.30818   0.31485   0.31679   0.32274

 Mulliken charges:
               1
     1  C   -0.171038
     2  C   -0.216891
     3  C   -0.170215
     4  C    0.158426
     5  C   -0.174080
     6  C   -0.218835
     7  H    0.226948
     8  H    0.224858
     9  H    0.276280
    10  H    0.276145
    11  H    0.224434
    12  N    0.491087
    13  O   -0.459678
    14  O   -0.458337
    15  C   -0.305450
    16  C   -0.298288
    17  C   -0.475455
    18  H    0.157526
    19  H    0.148031
    20  H    0.149299
    21  H    0.153164
    22  H    0.155282
    23  H    0.147406
    24  H    0.159579
    25  C   -0.297361
    26  C   -0.302288
    27  C   -0.474921
    28  H    0.146308
    29  H    0.149161
    30  H    0.151033
    31  H    0.153422
    32  H    0.152018
    33  H    0.153184
    34  H    0.169248
 Sum of Mulliken charges =  -0.00000

 Dipole moment (field-independent basis, Debye):
    X=              2.2924    Y=             -4.4271    Z=              0.9276  Tot=              5.0709
 Quadrupole moment (field-independent basis, Debye-Ang):
   XX=           -105.3971   YY=            -91.4967   ZZ=            -89.4472
   XY=              7.9318   XZ=             -1.7654   YZ=              0.1262

 Normal termination of Gaussian 16 at Wed May  5 17:31:08 2021.
