 Gaussian 16, Revision A.03,
 Gaussian 16:  EM64L-G16RevA.03 25-Dec-2016

 -------------
 #p 6-31g* mp2
 -------------

 ------------------------------------------------------
 Input file generated by CHIRIPA (05-May-2021 14:53:13)
 ------------------------------------------------------
 Symbolic Z-matrix:
 Charge =  0 Multiplicity = 1

                         Standard orientation:
 ---------------------------------------------------------------------
 Center     Atomic      Atomic             Coordinates (Angstroms)
 Number     Number       Type             X           Y           Z
 ---------------------------------------------------------------------
      1          6           0        3.882405   -0.012696    0.223348
      2          6           0        3.018267   -1.026799    0.973578
      3          6           0        1.525219   -0.708208    0.889317
      4          1           0        3.696517    0.990467    0.630846
      5          1           0        3.571400    0.015316   -0.830164
      6          1           0        3.331733   -1.053896    2.025063
      7          1           0        3.206377   -2.027691    0.564375
      8          1           0        1.191110   -0.700887   -0.153237
      9          1           0        1.317179    0.278440    1.315751
     10          1           0        0.926068   -1.445721    1.432412
     11          6           0        5.377422   -0.317691    0.298376
     12          6           0        6.241560    0.696412   -0.451855
     13          6           0        7.734608    0.377821   -0.367593
     14          1           0        5.688427   -0.345703    1.351887
     15          1           0        5.563311   -1.320854   -0.109122
     16          1           0        6.053451    1.697304   -0.042651
     17          1           0        5.928094    0.723509   -1.503340
     18          1           0        7.942649   -0.608828   -0.794027
     19          1           0        8.068717    0.370500    0.674961
     20          1           0        8.333759    1.115334   -0.910688
     21          6           0       -6.036661   -0.060024    0.486122
     22          6           0       -5.325567    1.116888    0.742528
     23          6           0       -3.984540    1.232797    0.364692
     24          6           0       -3.383208    0.147337   -0.270497
     25          6           0       -4.064969   -1.038393   -0.539819
     26          6           0       -5.405207   -1.132018   -0.153107
     27          1           0       -7.078097   -0.141409    0.783081
     28          1           0       -5.813392    1.951022    1.238805
     29          1           0       -3.410458    2.132325    0.550967
     30          1           0       -3.551587   -1.852938   -1.036179
     31          1           0       -5.954981   -2.047239   -0.353517
     32          7           0       -1.963940    0.258249   -0.675194
     33          8           0       -1.457041   -0.712364   -1.233405
     34          8           0       -1.385293    1.313695   -0.426520
 ---------------------------------------------------------------------

 SCF Done:  E(RHF) =  -669.536266579     A.U. after   15 cycles
 E2 =    -0.2091429436D+01 EUMP2 =    -0.67162769601497D+03

 The electronic state is 1-A.
 Alpha  occ. eigenvalues --  -20.60923 -20.60912 -15.85934 -11.31274 -11.27834
 Alpha  occ. eigenvalues --  -11.27831 -11.27574 -11.26844 -11.26834 -11.20864
 Alpha  occ. eigenvalues --  -11.20516 -11.20472 -11.20346 -11.20243 -11.19271
 Alpha  occ. eigenvalues --   -1.59962  -1.39520  -1.19439  -1.08841  -1.07429
 Alpha  occ. eigenvalues --   -1.04837  -1.02464  -0.95684  -0.94884  -0.86237
 Alpha  occ. eigenvalues --   -0.85895  -0.82516  -0.78560  -0.77567  -0.77200
 Alpha  occ. eigenvalues --   -0.72154  -0.71266  -0.70548  -0.65094  -0.64841
 Alpha  occ. eigenvalues --   -0.64069  -0.62184  -0.59863  -0.58335  -0.56501
 Alpha  occ. eigenvalues --   -0.55344  -0.54164  -0.53169  -0.52929  -0.51607
 Alpha  occ. eigenvalues --   -0.51315  -0.49126  -0.48907  -0.48606  -0.46797
 Alpha  occ. eigenvalues --   -0.45619  -0.44929  -0.44722  -0.44585  -0.42740
 Alpha  occ. eigenvalues --   -0.37416  -0.36438
 Alpha virt. eigenvalues --    0.04946   0.11217   0.16439   0.21351   0.23808
 Alpha virt. eigenvalues --    0.25438   0.27266   0.27644   0.28214   0.28472
 Alpha virt. eigenvalues --    0.29223   0.30919   0.32395   0.32598   0.32684

 Mulliken charges:
               1
     1  C   -0.297442
     2  C   -0.300020
     3  C   -0.481770
     4  H    0.149309
     5  H    0.153034
     6  H    0.144926
     7  H    0.147907
     8  H    0.181362
     9  H    0.155298
    10  H    0.148957
    11  C   -0.297490
    12  C   -0.299001
    13  C   -0.475133
    14  H    0.146819
    15  H    0.147846
    16  H    0.151252
    17  H    0.152279
    18  H    0.154146
    19  H    0.153728
    20  H    0.158315
    21  C   -0.170616
    22  C   -0.218599
    23  C   -0.170778
    24  C    0.159497
    25  C   -0.170747
    26  C   -0.218584
    27  H    0.225893
    28  H    0.223732
    29  H    0.275797
    30  H    0.275783
    31  H    0.223727
    32  N    0.489342
    33  O   -0.459753
    34  O   -0.459018
 Sum of Mulliken charges =  -0.00000

 Dipole moment (field-independent basis, Debye):
    X=             -5.3477    Y=             -0.3172    Z=              1.2770  Tot=              5.5072
 Quadrupole moment (field-independent basis, Debye-Ang):
   XX=            -64.0125   YY=            -90.4971   ZZ=            -95.1540
   XY=              1.1143   XZ=             -3.7926   YZ=              3.0396

 Normal termination of Gaussian 16 at Wed May  5 21:49:20 2021.
