 Gaussian 16, Revision A.03,
 Gaussian 16:  EM64L-G16RevA.03 25-Dec-2016

 -------------
 #p 6-31g* mp2
 -------------

 ------------------------------------------------------
 Input file generated by CHIRIPA (05-May-2021 14:51:09)
 ------------------------------------------------------
 Symbolic Z-matrix:
 Charge =  0 Multiplicity = 1

                         Standard orientation:
 ---------------------------------------------------------------------
 Center     Atomic      Atomic             Coordinates (Angstroms)
 Number     Number       Type             X           Y           Z
 ---------------------------------------------------------------------
      1          6           0        2.294208   -1.085872    0.750109
      2          6           0        1.062011   -1.982036    0.621413
      3          6           0        0.749703   -2.746083    1.908461
      4          1           0        3.159496   -1.701300    1.032013
      5          1           0        2.136548   -0.373297    1.571556
      6          1           0        1.221382   -2.691800   -0.200446
      7          1           0        0.199596   -1.364431    0.339596
      8          1           0        0.564464   -2.051012    2.733787
      9          1           0        1.592056   -3.385923    2.190677
     10          1           0       -0.134808   -3.380463    1.794167
     11          6           0        2.619225   -0.315509   -0.528418
     12          6           0        3.851423    0.580656   -0.399723
     13          6           0        4.163731    1.344703   -1.686770
     14          1           0        2.776885   -1.028083   -1.349866
     15          1           0        1.753937    0.299920   -0.810322
     16          1           0        4.713837   -0.036949   -0.117905
     17          1           0        3.692051    1.290420    0.422136
     18          1           0        3.321377    1.984543   -1.968987
     19          1           0        4.348969    0.649632   -2.512097
     20          1           0        5.048241    1.979083   -1.572476
     21          6           0       -1.850175    1.116981    0.094681
     22          6           0       -2.220041    2.404479    0.831928
     23          6           0       -0.995960    3.226483    1.236563
     24          1           0       -1.194891    0.510671    0.734943
     25          1           0       -1.265277    1.370318   -0.800366
     26          1           0       -2.805247    2.148875    1.724573
     27          1           0       -2.874675    3.007707    0.189911
     28          1           0       -0.413518    3.510149    0.354013
     29          1           0       -0.343696    2.646437    1.897394
     30          1           0       -1.283343    4.142459    1.762166
     31          6           0       -3.063258    0.284399   -0.316371
     32          6           0       -2.693392   -1.003099   -1.053619
     33          6           0       -3.917473   -1.825103   -1.458254
     34          1           0       -3.648157    0.031061    0.578675
     35          1           0       -3.718542    0.890710   -0.956634
     36          1           0       -2.038757   -1.606327   -0.411602
     37          1           0       -2.108186   -0.747495   -1.946264
     38          1           0       -4.569738   -1.245056   -2.119084
     39          1           0       -4.499915   -2.108768   -0.575703
     40          1           0       -3.630090   -2.741079   -1.983857
 ---------------------------------------------------------------------

 SCF Done:  E(RHF) =  -470.732615108     A.U. after   11 cycles
 E2 =    -0.1584421984D+01 EUMP2 =    -0.47231703709174D+03

 The electronic state is 1-A.
 Alpha  occ. eigenvalues --  -11.21677 -11.21602 -11.21561 -11.21502 -11.21480
 Alpha  occ. eigenvalues --  -11.21410 -11.21359 -11.21297 -11.21155 -11.21088
 Alpha  occ. eigenvalues --  -11.21084 -11.21047  -1.08515  -1.08376  -1.03585
 Alpha  occ. eigenvalues --   -1.03500  -0.96037  -0.95958  -0.87052  -0.86973
 Alpha  occ. eigenvalues --   -0.79689  -0.79552  -0.78457  -0.78064  -0.65272
 Alpha  occ. eigenvalues --   -0.64908  -0.61003  -0.60894  -0.59439  -0.59290
 Alpha  occ. eigenvalues --   -0.57653  -0.57560  -0.55342  -0.55233  -0.52735
 Alpha  occ. eigenvalues --   -0.52647  -0.52462  -0.52382  -0.49987  -0.49907
 Alpha  occ. eigenvalues --   -0.48084  -0.47849  -0.46893  -0.46659  -0.46178
 Alpha  occ. eigenvalues --   -0.45746  -0.45699  -0.44979  -0.43836  -0.43743
 Alpha virt. eigenvalues --    0.20562   0.22828   0.23723   0.24501   0.25164
 Alpha virt. eigenvalues --    0.26574   0.26987   0.27548   0.28147   0.30141
 Alpha virt. eigenvalues --    0.30468   0.31491   0.31651   0.31939   0.32030

 Mulliken charges:
               1
     1  C   -0.297165
     2  C   -0.311844
     3  C   -0.476391
     4  H    0.149413
     5  H    0.148576
     6  H    0.151777
     7  H    0.164495
     8  H    0.154226
     9  H    0.155762
    10  H    0.159794
    11  C   -0.300045
    12  C   -0.299639
    13  C   -0.475563
    14  H    0.149203
    15  H    0.151876
    16  H    0.151738
    17  H    0.152182
    18  H    0.154838
    19  H    0.155021
    20  H    0.160184
    21  C   -0.304677
    22  C   -0.299253
    23  C   -0.475817
    24  H    0.154566
    25  H    0.149992
    26  H    0.152277
    27  H    0.152405
    28  H    0.155017
    29  H    0.154651
    30  H    0.160852
    31  C   -0.298210
    32  C   -0.305300
    33  C   -0.475365
    34  H    0.149506
    35  H    0.149882
    36  H    0.158380
    37  H    0.152011
    38  H    0.155121
    39  H    0.155065
    40  H    0.160460
 Sum of Mulliken charges =  -0.00000

 Dipole moment (field-independent basis, Debye):
    X=             -0.0417    Y=              0.0146    Z=             -0.0118  Tot=              0.0457
 Quadrupole moment (field-independent basis, Debye-Ang):
   XX=            -85.2212   YY=            -84.8345   ZZ=            -84.7891
   XY=             -1.2586   XZ=             -0.1497   YZ=              0.1211

 Normal termination of Gaussian 16 at Wed May  5 22:57:43 2021.
