 Gaussian 16, Revision A.03,
 Gaussian 16:  EM64L-G16RevA.03 25-Dec-2016

 -------------
 #p 6-31g* mp2
 -------------

 ------------------------------------------------------
 Input file generated by CHIRIPA (05-May-2021 14:53:15)
 ------------------------------------------------------
 Symbolic Z-matrix:
 Charge =  0 Multiplicity = 1

                         Standard orientation:
 ---------------------------------------------------------------------
 Center     Atomic      Atomic             Coordinates (Angstroms)
 Number     Number       Type             X           Y           Z
 ---------------------------------------------------------------------
      1          6           0       -4.596807   -0.556758    0.277562
      2          6           0       -3.180469   -0.036357    0.524856
      3          6           0       -2.188752   -1.153476    0.850950
      4          1           0       -4.939296   -1.105364    1.165637
      5          1           0       -4.574747   -1.281336   -0.548206
      6          1           0       -3.205416    0.688060    1.349000
      7          1           0       -2.841385    0.511238   -0.363839
      8          1           0       -2.134297   -1.872797    0.027413
      9          1           0       -2.500397   -1.694971    1.749983
     10          1           0       -1.182566   -0.759177    1.024091
     11          6           0       -5.599684    0.548186   -0.049647
     12          6           0       -7.016022    0.027786   -0.296940
     13          6           0       -8.007739    1.144905   -0.623034
     14          1           0       -5.621744    1.272765    0.776122
     15          1           0       -5.257195    1.096793   -0.937722
     16          1           0       -7.355106   -0.519810    0.591754
     17          1           0       -6.991075   -0.696631   -1.121084
     18          1           0       -7.696094    1.686399   -1.522068
     19          1           0       -8.062194    1.864226    0.200503
     20          1           0       -9.013925    0.750606   -0.796175
     21          6           0        6.064813    1.425085    0.014219
     22          6           0        6.162976    0.060108   -0.275131
     23          6           0        5.016174   -0.737272   -0.334923
     24          6           0        3.781743   -0.134100   -0.099011
     25          6           0        3.651304    1.223026    0.191654
     26          6           0        4.811500    2.001171    0.246279
     27          1           0        6.960878    2.037038    0.058660
     28          1           0        7.134995   -0.389989   -0.455787
     29          1           0        5.063372   -1.796493   -0.556830
     30          1           0        2.668435    1.643244    0.367155
     31          1           0        4.732246    3.060968    0.471212
     32          7           0        2.560585   -0.968070   -0.159575
     33          8           0        1.484796   -0.412647    0.052135
     34          8           0        2.702352   -2.161367   -0.417608
 ---------------------------------------------------------------------

 SCF Done:  E(RHF) =  -669.536003524     A.U. after   15 cycles
 E2 =    -0.2090634106D+01 EUMP2 =    -0.67162663762946D+03

 The electronic state is 1-A.
 Alpha  occ. eigenvalues --  -20.60923 -20.60917 -15.85964 -11.31288 -11.27852
 Alpha  occ. eigenvalues --  -11.27848 -11.27590 -11.26861 -11.26851 -11.21048
 Alpha  occ. eigenvalues --  -11.20702 -11.20628 -11.20500 -11.20434 -11.19396
 Alpha  occ. eigenvalues --   -1.59985  -1.39542  -1.19457  -1.08860  -1.07613
 Alpha  occ. eigenvalues --   -1.04854  -1.02615  -0.95703  -0.95034  -0.86255
 Alpha  occ. eigenvalues --   -0.86046  -0.82536  -0.78717  -0.77587  -0.77398
 Alpha  occ. eigenvalues --   -0.72189  -0.71301  -0.70566  -0.65113  -0.64857
 Alpha  occ. eigenvalues --   -0.64257  -0.62201  -0.60026  -0.58455  -0.56625
 Alpha  occ. eigenvalues --   -0.55358  -0.54343  -0.53186  -0.52947  -0.51678
 Alpha  occ. eigenvalues --   -0.51467  -0.49038  -0.48934  -0.48880  -0.47001
 Alpha  occ. eigenvalues --   -0.45786  -0.44962  -0.44925  -0.44859  -0.42827
 Alpha  occ. eigenvalues --   -0.37436  -0.36456
 Alpha virt. eigenvalues --    0.04939   0.11199   0.16432   0.21328   0.23616
 Alpha virt. eigenvalues --    0.25286   0.27251   0.27410   0.28145   0.28275
 Alpha virt. eigenvalues --    0.29048   0.30888   0.32269   0.32378   0.32512

 Mulliken charges:
               1
     1  C   -0.297289
     2  C   -0.299398
     3  C   -0.481868
     4  H    0.147592
     5  H    0.149158
     6  H    0.146214
     7  H    0.151184
     8  H    0.155996
     9  H    0.146320
    10  H    0.184575
    11  C   -0.297351
    12  C   -0.299000
    13  C   -0.475202
    14  H    0.147444
    15  H    0.148368
    16  H    0.151114
    17  H    0.151613
    18  H    0.154326
    19  H    0.154052
    20  H    0.158669
    21  C   -0.170624
    22  C   -0.218596
    23  C   -0.170505
    24  C    0.157557
    25  C   -0.170823
    26  C   -0.218537
    27  H    0.225962
    28  H    0.223794
    29  H    0.275901
    30  H    0.275639
    31  H    0.223815
    32  N    0.492312
    33  O   -0.463707
    34  O   -0.458706
 Sum of Mulliken charges =  -0.00000

 Dipole moment (field-independent basis, Debye):
    X=              4.6757    Y=              2.9072    Z=              0.1850  Tot=              5.5089
 Quadrupole moment (field-independent basis, Debye-Ang):
   XX=            -63.0306   YY=            -93.0815   ZZ=            -94.6418
   XY=              8.7886   XZ=             -0.6165   YZ=              1.0539

 Normal termination of Gaussian 16 at Thu May  6 15:29:47 2021.
