 Gaussian 16, Revision A.03,
 Gaussian 16:  EM64L-G16RevA.03 25-Dec-2016

 -------------
 #p 6-31g* mp2
 -------------

 ------------------------------------------------------
 Input file generated by CHIRIPA (05-May-2021 14:57:25)
 ------------------------------------------------------
 Symbolic Z-matrix:
 Charge =  0 Multiplicity = 1

                         Standard orientation:
 ---------------------------------------------------------------------
 Center     Atomic      Atomic             Coordinates (Angstroms)
 Number     Number       Type             X           Y           Z
 ---------------------------------------------------------------------
      1          6           0        1.629633    2.480878   -0.684400
      2          6           0        2.925591    2.328320   -0.180672
      3          6           0        3.477644    1.054589   -0.015152
      4          6           0        2.702192   -0.049725   -0.365088
      5          6           0        1.408098    0.069650   -0.869429
      6          6           0        0.876351    1.353044   -1.026567
      7          1           0        1.208673    3.474096   -0.809724
      8          1           0        3.512906    3.202418    0.085894
      9          1           0        4.478372    0.907698    0.372642
     10          1           0        0.846936   -0.820576   -1.126360
     11          1           0       -0.130375    1.468506   -1.417997
     12          7           0        3.275877   -1.403281   -0.194296
     13          8           0        2.572184   -2.360242   -0.510017
     14          8           0        4.418361   -1.481608    0.252057
     15          6           0       -0.715508   -0.045935    2.057423
     16          6           0       -0.954817   -1.234109    1.359213
     17          6           0       -2.000389   -1.316135    0.434769
     18          6           0       -2.790566   -0.185677    0.232350
     19          6           0       -2.577336    1.012354    0.912455
     20          6           0       -1.526101    1.071534    1.832212
     21          1           0        0.098917    0.008911    2.773733
     22          1           0       -0.326911   -2.103531    1.532084
     23          1           0       -2.207889   -2.223428   -0.119471
     24          1           0       -3.220258    1.862377    0.718725
     25          1           0       -1.342582    1.995600    2.373013
     26          7           0       -3.900464   -0.260421   -0.743838
     27          8           0       -4.582262    0.749581   -0.904099
     28          8           0       -4.067586   -1.327592   -1.330227
 ---------------------------------------------------------------------

 SCF Done:  E(RHF) =  -868.337405906     A.U. after   16 cycles
 E2 =    -0.2604150609D+01 EUMP2 =    -0.87094155651549D+03

 The electronic state is 1-A.
 Alpha  occ. eigenvalues --  -20.61377 -20.61354 -20.61292 -20.61273 -15.86407
 Alpha  occ. eigenvalues --  -15.86339 -11.31754 -11.31602 -11.28307 -11.28203
 Alpha  occ. eigenvalues --  -11.28181 -11.28089 -11.27876 -11.27867 -11.27269
 Alpha  occ. eigenvalues --  -11.27165 -11.27105 -11.27036  -1.60445  -1.60368
 Alpha  occ. eigenvalues --   -1.40002  -1.39916  -1.19921  -1.19747  -1.09247
 Alpha  occ. eigenvalues --   -1.09200  -1.05274  -1.05124  -0.96088  -0.96054
 Alpha  occ. eigenvalues --   -0.86662  -0.86519  -0.82899  -0.82884  -0.77992
 Alpha  occ. eigenvalues --   -0.77931  -0.72623  -0.72538  -0.71782  -0.71712
 Alpha  occ. eigenvalues --   -0.70910  -0.70886  -0.65494  -0.65422  -0.65196
 Alpha  occ. eigenvalues --   -0.65115  -0.62594  -0.62483  -0.55684  -0.55676
 Alpha  occ. eigenvalues --   -0.54238  -0.53290  -0.53224  -0.52878  -0.49392
 Alpha  occ. eigenvalues --   -0.49363  -0.49306  -0.49299  -0.45440  -0.45310
 Alpha  occ. eigenvalues --   -0.38181  -0.37951  -0.36728  -0.36257
 Alpha virt. eigenvalues --    0.04481   0.04555   0.10092   0.11604   0.15959
 Alpha virt. eigenvalues --    0.16069   0.20837   0.21307   0.26598   0.26963
 Alpha virt. eigenvalues --    0.27878   0.28205   0.30282   0.31013   0.32169

 Mulliken charges:
               1
     1  C   -0.174430
     2  C   -0.220379
     3  C   -0.173405
     4  C    0.152774
     5  C   -0.166980
     6  C   -0.214553
     7  H    0.226005
     8  H    0.223499
     9  H    0.275216
    10  H    0.274405
    11  H    0.227619
    12  N    0.487716
    13  O   -0.464245
    14  O   -0.458886
    15  C   -0.166085
    16  C   -0.223727
    17  C   -0.179975
    18  C    0.155793
    19  C   -0.178819
    20  C   -0.215919
    21  H    0.229460
    22  H    0.238159
    23  H    0.280165
    24  H    0.274739
    25  H    0.222919
    26  N    0.487321
    27  O   -0.461038
    28  O   -0.457350
 Sum of Mulliken charges =  -0.00000

 Dipole moment (field-independent basis, Debye):
    X=              1.8348    Y=              4.9421    Z=              2.9386  Tot=              6.0355
 Quadrupole moment (field-independent basis, Debye-Ang):
   XX=           -135.1547   YY=           -100.5354   ZZ=           -103.1041
   XY=             12.4708   XZ=             -8.2181   YZ=             -0.5942

 Normal termination of Gaussian 16 at Thu May  6 18:04:42 2021.
