 Gaussian 16, Revision A.03,
 Gaussian 16:  EM64L-G16RevA.03 25-Dec-2016

 -------------
 #p 6-31g* mp2
 -------------

 ------------------------------------------------------
 Input file generated by CHIRIPA (05-May-2021 14:55:23)
 ------------------------------------------------------
 Symbolic Z-matrix:
 Charge =  0 Multiplicity = 1

                         Standard orientation:
 ---------------------------------------------------------------------
 Center     Atomic      Atomic             Coordinates (Angstroms)
 Number     Number       Type             X           Y           Z
 ---------------------------------------------------------------------
      1          6           0       -0.532483   -0.854874    0.662834
      2          6           0       -0.805945   -0.228865   -0.557762
      3          6           0       -2.120212    0.086573   -0.915180
      4          6           0       -3.141336   -0.239767   -0.024058
      5          6           0       -2.900932   -0.863545    1.199215
      6          6           0       -1.579005   -1.169661    1.535887
      7          1           0        0.491447   -1.096293    0.932427
      8          1           0        0.004804    0.016778   -1.237755
      9          1           0       -2.360200    0.571145   -1.853804
     10          1           0       -3.730131   -1.096028    1.856330
     11          1           0       -1.369595   -1.655833    2.484480
     12          7           0       -4.536747    0.089238   -0.391459
     13          8           0       -5.418625   -0.208724    0.411128
     14          8           0       -4.722169    0.638846   -1.475058
     15          6           0        4.323739   -0.098988   -0.017173
     16          6           0        4.012005   -1.498201   -0.549160
     17          6           0        5.216624   -2.437549   -0.483503
     18          1           0        5.155702    0.328503   -0.593396
     19          1           0        4.671645   -0.178523    1.022071
     20          1           0        3.663472   -1.415926   -1.586644
     21          1           0        3.180560   -1.922335    0.028270
     22          1           0        5.562189   -2.549258    0.549312
     23          1           0        6.047845   -2.039973   -1.074778
     24          1           0        4.971539   -3.432240   -0.868709
     25          6           0        3.129330    0.851605   -0.076252
     26          6           0        3.441064    2.250818    0.455735
     27          6           0        2.236446    3.190166    0.390078
     28          1           0        2.781424    0.931140   -1.115497
     29          1           0        2.297367    0.424114    0.499971
     30          1           0        4.272509    2.674952   -0.121695
     31          1           0        3.789598    2.168544    1.493218
     32          1           0        1.405224    2.792590    0.981352
     33          1           0        1.890880    3.301875   -0.642738
     34          1           0        2.481531    4.184857    0.775283
 ---------------------------------------------------------------------

 SCF Done:  E(RHF) =  -669.535363240     A.U. after   15 cycles
 E2 =    -0.2092346938D+01 EUMP2 =    -0.67162771017872D+03

 The electronic state is 1-A.
 Alpha  occ. eigenvalues --  -20.60719 -20.60714 -15.85772 -11.31132 -11.27695
 Alpha  occ. eigenvalues --  -11.27678 -11.27408 -11.26715 -11.26667 -11.22689
 Alpha  occ. eigenvalues --  -11.22595 -11.22457 -11.22383 -11.21908 -11.21775
 Alpha  occ. eigenvalues --   -1.59795  -1.39349  -1.19296  -1.09470  -1.08691
 Alpha  occ. eigenvalues --   -1.04695  -1.04442  -0.96882  -0.95533  -0.87892
 Alpha  occ. eigenvalues --   -0.86092  -0.82365  -0.80518  -0.79340  -0.77405
 Alpha  occ. eigenvalues --   -0.71990  -0.71117  -0.70434  -0.66098  -0.64944
 Alpha  occ. eigenvalues --   -0.64691  -0.62043  -0.61835  -0.60249  -0.58501
 Alpha  occ. eigenvalues --   -0.56191  -0.55201  -0.53529  -0.53307  -0.53027
 Alpha  occ. eigenvalues --   -0.52777  -0.50818  -0.48828  -0.48747  -0.48742
 Alpha  occ. eigenvalues --   -0.47562  -0.46811  -0.46757  -0.44755  -0.44734
 Alpha  occ. eigenvalues --   -0.37265  -0.36294
 Alpha virt. eigenvalues --    0.05095   0.11305   0.16539   0.19079   0.22757
 Alpha virt. eigenvalues --    0.22975   0.24230   0.25222   0.27112   0.28062
 Alpha virt. eigenvalues --    0.30107   0.30207   0.30909   0.31223   0.31638

 Mulliken charges:
               1
     1  C   -0.176359
     2  C   -0.219830
     3  C   -0.171584
     4  C    0.158606
     5  C   -0.171054
     6  C   -0.219116
     7  H    0.230148
     8  H    0.227422
     9  H    0.275434
    10  H    0.275279
    11  H    0.223151
    12  N    0.488059
    13  O   -0.460618
    14  O   -0.460508
    15  C   -0.298477
    16  C   -0.301374
    17  C   -0.476084
    18  H    0.154371
    19  H    0.151684
    20  H    0.152781
    21  H    0.144531
    22  H    0.156683
    23  H    0.158458
    24  H    0.162800
    25  C   -0.304787
    26  C   -0.299660
    27  C   -0.477547
    28  H    0.147722
    29  H    0.144308
    30  H    0.155394
    31  H    0.153960
    32  H    0.157191
    33  H    0.154622
    34  H    0.164394
 Sum of Mulliken charges =  -0.00000

 Dipole moment (field-independent basis, Debye):
    X=              5.1589    Y=             -1.0810    Z=              1.2828  Tot=              5.4248
 Quadrupole moment (field-independent basis, Debye-Ang):
   XX=           -125.2649   YY=            -94.3060   ZZ=            -90.3624
   XY=              3.9570   XZ=             -6.1052   YZ=             -2.4472

 Normal termination of Gaussian 16 at Wed May  5 19:04:39 2021.
