 Gaussian 16, Revision A.03,
 Gaussian 16:  EM64L-G16RevA.03 25-Dec-2016

 -------------
 #p 6-31g* mp2
 -------------

 ------------------------------------------------------
 Input file generated by CHIRIPA (05-May-2021 14:51:10)
 ------------------------------------------------------
 Symbolic Z-matrix:
 Charge =  0 Multiplicity = 1

                         Standard orientation:
 ---------------------------------------------------------------------
 Center     Atomic      Atomic             Coordinates (Angstroms)
 Number     Number       Type             X           Y           Z
 ---------------------------------------------------------------------
      1          6           0        3.097809   -0.494201    0.680244
      2          6           0        1.666639   -0.379078    0.154427
      3          6           0        0.619761   -0.762028    1.200941
      4          1           0        3.275504   -1.524088    1.018924
      5          1           0        3.209153    0.149088    1.564086
      6          1           0        1.558416   -1.021332   -0.728982
      7          1           0        1.492391    0.650607   -0.183217
      8          1           0        0.698878   -0.114231    2.079974
      9          1           0        0.765277   -1.795670    1.531108
     10          1           0       -0.396219   -0.672545    0.803903
     11          6           0        4.155719   -0.114685   -0.354415
     12          6           0        5.586889   -0.229809    0.171402
     13          6           0        6.633767    0.153142   -0.875112
     14          1           0        4.044375   -0.757974   -1.238257
     15          1           0        3.978024    0.915202   -0.693095
     16          1           0        5.761136   -1.259493    0.509046
     17          1           0        5.695112    0.412446    1.054811
     18          1           0        6.488250    1.186784   -1.205279
     19          1           0        6.554650   -0.494655   -1.754145
     20          1           0        7.649746    0.063659   -0.478074
     21          6           0       -3.716880    1.040278    0.021090
     22          6           0       -2.477173    1.891055   -0.256923
     23          6           0       -2.672971    3.360785    0.116372
     24          1           0       -4.568825    1.451575   -0.537451
     25          1           0       -3.974827    1.117751    1.086387
     26          1           0       -2.220825    1.810899   -1.321102
     27          1           0       -1.628035    1.477572    0.302195
     28          1           0       -2.906205    3.459966    1.181438
     29          1           0       -3.502364    3.795188   -0.451082
     30          1           0       -1.774603    3.950677   -0.090563
     31          6           0       -3.536648   -0.431392   -0.346919
     32          6           0       -4.776354   -1.282169   -0.068906
     33          6           0       -4.580556   -2.751899   -0.442201
     34          1           0       -3.278701   -0.508865   -1.412216
     35          1           0       -2.684702   -0.842688    0.211622
     36          1           0       -5.625492   -0.868686   -0.628024
     37          1           0       -5.032702   -1.202013    0.995273
     38          1           0       -3.751164   -3.186302    0.125253
     39          1           0       -4.347322   -2.851080   -1.507267
     40          1           0       -5.478926   -3.341790   -0.235266
 ---------------------------------------------------------------------

 SCF Done:  E(RHF) =  -470.732965595     A.U. after   11 cycles
 E2 =    -0.1583249605D+01 EUMP2 =    -0.47231621519999D+03

 The electronic state is 1-A.
 Alpha  occ. eigenvalues --  -11.21604 -11.21602 -11.21601 -11.21574 -11.21406
 Alpha  occ. eigenvalues --  -11.21406 -11.21347 -11.21346 -11.21071 -11.21071
 Alpha  occ. eigenvalues --  -11.21067 -11.21066  -1.08449  -1.08418  -1.03546
 Alpha  occ. eigenvalues --   -1.03514  -0.96001  -0.95968  -0.87012  -0.86993
 Alpha  occ. eigenvalues --   -0.79602  -0.79589  -0.78257  -0.78242  -0.65106
 Alpha  occ. eigenvalues --   -0.65048  -0.60992  -0.60868  -0.59425  -0.59294
 Alpha  occ. eigenvalues --   -0.57652  -0.57546  -0.55298  -0.55246  -0.52792
 Alpha  occ. eigenvalues --   -0.52615  -0.52425  -0.52381  -0.49959  -0.49891
 Alpha  occ. eigenvalues --   -0.47943  -0.47905  -0.46640  -0.46609  -0.45791
 Alpha  occ. eigenvalues --   -0.45773  -0.45712  -0.45680  -0.43797  -0.43690
 Alpha virt. eigenvalues --    0.21226   0.23086   0.23786   0.24367   0.26099
 Alpha virt. eigenvalues --    0.26597   0.27005   0.27478   0.27862   0.28929
 Alpha virt. eigenvalues --    0.30925   0.31403   0.31608   0.31901   0.32147

 Mulliken charges:
               1
     1  C   -0.298599
     2  C   -0.299501
     3  C   -0.486799
     4  H    0.149675
     5  H    0.149445
     6  H    0.152276
     7  H    0.152895
     8  H    0.154615
     9  H    0.155140
    10  H    0.170291
    11  C   -0.298217
    12  C   -0.299644
    13  C   -0.475706
    14  H    0.149578
    15  H    0.149673
    16  H    0.151940
    17  H    0.151911
    18  H    0.155183
    19  H    0.155195
    20  H    0.160250
    21  C   -0.297794
    22  C   -0.305978
    23  C   -0.475412
    24  H    0.149718
    25  H    0.149434
    26  H    0.151717
    27  H    0.158750
    28  H    0.155163
    29  H    0.155166
    30  H    0.159902
    31  C   -0.306439
    32  C   -0.298958
    33  C   -0.475856
    34  H    0.149464
    35  H    0.156638
    36  H    0.152027
    37  H    0.152051
    38  H    0.155428
    39  H    0.155104
    40  H    0.160273
 Sum of Mulliken charges =  -0.00000

 Dipole moment (field-independent basis, Debye):
    X=             -0.0028    Y=             -0.0056    Z=             -0.0034  Tot=              0.0072
 Quadrupole moment (field-independent basis, Debye-Ang):
   XX=            -85.4683   YY=            -85.0723   ZZ=            -84.2764
   XY=             -0.3039   XZ=              0.8387   YZ=              0.0615

 Normal termination of Gaussian 16 at Thu May  6 02:11:24 2021.
