 Gaussian 16, Revision A.03,
 Gaussian 16:  EM64L-G16RevA.03 25-Dec-2016

 -------------
 #p 6-31g* mp2
 -------------

 ------------------------------------------------------
 Input file generated by CHIRIPA (05-May-2021 14:57:22)
 ------------------------------------------------------
 Symbolic Z-matrix:
 Charge =  0 Multiplicity = 1

                         Standard orientation:
 ---------------------------------------------------------------------
 Center     Atomic      Atomic             Coordinates (Angstroms)
 Number     Number       Type             X           Y           Z
 ---------------------------------------------------------------------
      1          6           0       -2.197653    2.540587    0.454561
      2          6           0       -3.398215    2.133156    1.045470
      3          6           0       -3.965415    0.897085    0.721496
      4          6           0       -3.302222    0.089916   -0.201512
      5          6           0       -2.104908    0.467784   -0.807272
      6          6           0       -1.555963    1.708068   -0.468297
      7          1           0       -1.764129    3.502433    0.712058
      8          1           0       -3.898767    2.777639    1.762502
      9          1           0       -4.893821    0.556902    1.163938
     10          1           0       -1.629187   -0.196392   -1.518593
     11          1           0       -0.623483    2.021888   -0.928780
     12          7           0       -3.893028   -1.220887   -0.552430
     13          8           0       -3.289122   -1.913663   -1.368515
     14          8           0       -4.948822   -1.530698   -0.004749
     15          6           0        5.194137    0.701985   -1.036459
     16          6           0        3.975232    0.567590   -1.709312
     17          6           0        2.866389    0.010546   -1.065327
     18          6           0        3.012533   -0.403396    0.257768
     19          6           0        4.213605   -0.282825    0.955033
     20          6           0        5.309230    0.277097    0.291225
     21          1           0        6.050379    1.135828   -1.544421
     22          1           0        3.882939    0.896696   -2.740436
     23          1           0        1.910972   -0.105259   -1.562506
     24          1           0        4.274935   -0.620038    1.982625
     25          1           0        6.254613    0.380237    0.816258
     26          7           0        1.845646   -0.994637    0.950018
     27          8           0        2.000296   -1.351601    2.115907
     28          8           0        0.798487   -1.089892    0.313607
 ---------------------------------------------------------------------

 SCF Done:  E(RHF) =  -868.337358460     A.U. after   16 cycles
 E2 =    -0.2600358577D+01 EUMP2 =    -0.87093771703700D+03

 The electronic state is 1-A.
 Alpha  occ. eigenvalues --  -20.61202 -20.61195 -20.59900 -20.59879 -15.86243
 Alpha  occ. eigenvalues --  -15.84949 -11.31678 -11.30277 -11.28297 -11.28202
 Alpha  occ. eigenvalues --  -11.27957 -11.27279 -11.27229 -11.26929 -11.26881
 Alpha  occ. eigenvalues --  -11.26737 -11.25963 -11.25950  -1.60260  -1.58962
 Alpha  occ. eigenvalues --   -1.39819  -1.38518  -1.19842  -1.18490  -1.09216
 Alpha  occ. eigenvalues --   -1.07912  -1.05256  -1.03911  -0.96047  -0.94741
 Alpha  occ. eigenvalues --   -0.86647  -0.85330  -0.82884  -0.81589  -0.77938
 Alpha  occ. eigenvalues --   -0.76612  -0.72471  -0.71583  -0.71182  -0.70943
 Alpha  occ. eigenvalues --   -0.70267  -0.69655  -0.65493  -0.65251  -0.64176
 Alpha  occ. eigenvalues --   -0.63976  -0.62612  -0.61277  -0.55731  -0.54485
 Alpha  occ. eigenvalues --   -0.53577  -0.53345  -0.52209  -0.52052  -0.49231
 Alpha  occ. eigenvalues --   -0.49203  -0.47940  -0.47922  -0.45205  -0.43931
 Alpha  occ. eigenvalues --   -0.37811  -0.36865  -0.36499  -0.35439
 Alpha virt. eigenvalues --    0.04578   0.05980   0.10760   0.12172   0.16085
 Alpha virt. eigenvalues --    0.17422   0.20260   0.22020   0.25649   0.27254
 Alpha virt. eigenvalues --    0.28583   0.29044   0.30943   0.31408   0.32487

 Mulliken charges:
               1
     1  C   -0.170748
     2  C   -0.219036
     3  C   -0.170103
     4  C    0.157021
     5  C   -0.150781
     6  C   -0.216019
     7  H    0.220872
     8  H    0.220059
     9  H    0.273610
    10  H    0.275040
    11  H    0.212989
    12  N    0.489063
    13  O   -0.459507
    14  O   -0.463775
    15  C   -0.170934
    16  C   -0.218305
    17  C   -0.173542
    18  C    0.159617
    19  C   -0.170834
    20  C   -0.218098
    21  H    0.227098
    22  H    0.223940
    23  H    0.269873
    24  H    0.277208
    25  H    0.225200
    26  N    0.490499
    27  O   -0.456969
    28  O   -0.463437
 Sum of Mulliken charges =  -0.00000

 Dipole moment (field-independent basis, Debye):
    X=              6.4397    Y=              6.5127    Z=             -1.1318  Tot=              9.2286
 Quadrupole moment (field-independent basis, Debye-Ang):
   XX=            -90.0137   YY=           -107.3544   ZZ=           -101.9294
   XY=            -11.2799   XZ=            -10.9096   YZ=              0.7032

 Normal termination of Gaussian 16 at Fri May  7 03:16:44 2021.
