 Gaussian 16, Revision A.03,
 Gaussian 16:  EM64L-G16RevA.03 25-Dec-2016

 -------------
 #p 6-31g* mp2
 -------------

 ------------------------------------------------------
 Input file generated by CHIRIPA (05-May-2021 14:53:16)
 ------------------------------------------------------
 Symbolic Z-matrix:
 Charge =  0 Multiplicity = 1

                         Standard orientation:
 ---------------------------------------------------------------------
 Center     Atomic      Atomic             Coordinates (Angstroms)
 Number     Number       Type             X           Y           Z
 ---------------------------------------------------------------------
      1          6           0       -2.775520    0.636777   -0.213140
      2          6           0       -3.304759    1.663233   -1.215277
      3          6           0       -2.339325    2.828627   -1.433429
      4          1           0       -2.579546    1.136765    0.745271
      5          1           0       -1.809428    0.252228   -0.568364
      6          1           0       -4.270226    2.044713   -0.858961
      7          1           0       -3.499677    1.160705   -2.171357
      8          1           0       -1.377922    2.466737   -1.812033
      9          1           0       -2.152850    3.355767   -0.492180
     10          1           0       -2.737487    3.550419   -2.153390
     11          6           0       -3.729502   -0.534270    0.015544
     12          6           0       -3.200262   -1.560726    1.017680
     13          6           0       -4.165696   -2.726120    1.235833
     14          1           0       -4.695593   -0.149721    0.370767
     15          1           0       -3.925476   -1.034258   -0.942867
     16          1           0       -3.005345   -1.058198    1.973760
     17          1           0       -2.234795   -1.942206    0.661364
     18          1           0       -4.352171   -3.253260    0.294583
     19          1           0       -5.127099   -2.364230    1.614436
     20          1           0       -3.767534   -3.447912    1.955793
     21          6           0        1.983364    1.763160    1.751522
     22          6           0        3.273322    1.224148    1.706818
     23          6           0        3.593561    0.224636    0.783253
     24          6           0        2.594936   -0.214369   -0.084683
     25          6           0        1.300582    0.302872   -0.064710
     26          6           0        1.002841    1.301616    0.867174
     27          1           0        1.743333    2.539307    2.472201
     28          1           0        4.036816    1.580662    2.392396
     29          1           0        4.584139   -0.210111    0.726968
     30          1           0        0.560645   -0.072831   -0.760956
     31          1           0        0.000199    1.718390    0.899620
     32          7           0        2.922051   -1.272100   -1.066823
     33          8           0        2.024402   -1.641715   -1.820646
     34          8           0        4.069898   -1.711507   -1.064204
 ---------------------------------------------------------------------

 SCF Done:  E(RHF) =  -669.535237020     A.U. after   15 cycles
 E2 =    -0.2092777205D+01 EUMP2 =    -0.67162801422497D+03

 The electronic state is 1-A.
 Alpha  occ. eigenvalues --  -20.60730 -20.60725 -15.85779 -11.31107 -11.27670
 Alpha  occ. eigenvalues --  -11.27643 -11.27390 -11.26690 -11.26598 -11.22345
 Alpha  occ. eigenvalues --  -11.22282 -11.21992 -11.21908 -11.21872 -11.21308
 Alpha  occ. eigenvalues --   -1.59804  -1.39359  -1.19269  -1.09095  -1.08671
 Alpha  occ. eigenvalues --   -1.04665  -1.04091  -0.96570  -0.95517  -0.87580
 Alpha  occ. eigenvalues --   -0.86065  -0.82361  -0.80184  -0.78958  -0.77366
 Alpha  occ. eigenvalues --   -0.72000  -0.71126  -0.70397  -0.65746  -0.64915
 Alpha  occ. eigenvalues --   -0.64649  -0.62050  -0.61464  -0.59932  -0.58178
 Alpha  occ. eigenvalues --   -0.55872  -0.55175  -0.53213  -0.53064  -0.52930
 Alpha  occ. eigenvalues --   -0.52765  -0.50502  -0.48763  -0.48759  -0.48465
 Alpha  occ. eigenvalues --   -0.47210  -0.46415  -0.46336  -0.44773  -0.44379
 Alpha  occ. eigenvalues --   -0.37251  -0.36256
 Alpha virt. eigenvalues --    0.05107   0.11372   0.16576   0.19457   0.22749
 Alpha virt. eigenvalues --    0.23598   0.24108   0.25766   0.27294   0.28503
 Alpha virt. eigenvalues --    0.30051   0.30449   0.31061   0.31418   0.32006

 Mulliken charges:
               1
     1  C   -0.307133
     2  C   -0.299154
     3  C   -0.479554
     4  H    0.144597
     5  H    0.147952
     6  H    0.154838
     7  H    0.157794
     8  H    0.155705
     9  H    0.149838
    10  H    0.166235
    11  C   -0.297848
    12  C   -0.301333
    13  C   -0.476245
    14  H    0.151333
    15  H    0.154711
    16  H    0.149821
    17  H    0.155351
    18  H    0.158038
    19  H    0.154897
    20  H    0.162434
    21  C   -0.172077
    22  C   -0.218356
    23  C   -0.171175
    24  C    0.161068
    25  C   -0.181288
    26  C   -0.222757
    27  H    0.225314
    28  H    0.223011
    29  H    0.275170
    30  H    0.279689
    31  H    0.232579
    32  N    0.488438
    33  O   -0.461383
    34  O   -0.460510
 Sum of Mulliken charges =  -0.00000

 Dipole moment (field-independent basis, Debye):
    X=             -1.3791    Y=              3.6719    Z=              3.3947  Tot=              5.1874
 Quadrupole moment (field-independent basis, Debye-Ang):
   XX=            -95.8547   YY=            -97.4240   ZZ=            -94.7486
   XY=              9.1942   XZ=             11.1855   YZ=             -0.6009

 Normal termination of Gaussian 16 at Thu May  6 01:09:38 2021.
