 Gaussian 16, Revision A.03,
 Gaussian 16:  EM64L-G16RevA.03 25-Dec-2016

 -------------
 #p 6-31g* mp2
 -------------

 ------------------------------------------------------
 Input file generated by CHIRIPA (05-May-2021 14:57:22)
 ------------------------------------------------------
 Symbolic Z-matrix:
 Charge =  0 Multiplicity = 1

                         Standard orientation:
 ---------------------------------------------------------------------
 Center     Atomic      Atomic             Coordinates (Angstroms)
 Number     Number       Type             X           Y           Z
 ---------------------------------------------------------------------
      1          6           0       -1.443389   -2.171739    1.227079
      2          6           0       -2.249918   -2.210929    0.084934
      3          6           0       -2.807350   -1.037308   -0.431236
      4          6           0       -2.536295    0.163513    0.222865
      5          6           0       -1.736758    0.235108    1.362560
      6          6           0       -1.189830   -0.950998    1.861129
      7          1           0       -1.014442   -3.088285    1.621216
      8          1           0       -2.448540   -3.157545   -0.409548
      9          1           0       -3.435292   -1.038927   -1.313905
     10          1           0       -1.556722    1.193783    1.833672
     11          1           0       -0.563842   -0.917552    2.748296
     12          7           0       -3.120863    1.412581   -0.314264
     13          8           0       -2.866900    2.457807    0.280415
     14          8           0       -3.821942    1.322724   -1.319774
     15          6           0        3.318716    2.306325    0.372792
     16          6           0        4.046510    1.151478    0.678022
     17          6           0        3.569226   -0.108177    0.303832
     18          6           0        2.354995   -0.176524   -0.377535
     19          6           0        1.606777    0.955727   -0.696077
     20          6           0        2.103315    2.204943   -0.312075
     21          1           0        3.696960    3.280801    0.667282
     22          1           0        4.990711    1.227191    1.209808
     23          1           0        4.112277   -1.018416    0.527395
     24          1           0        0.668764    0.848417   -1.227146
     25          1           0        1.535965    3.100114   -0.550456
     26          7           0        1.839524   -1.504539   -0.778866
     27          8           0        0.767072   -1.537877   -1.378342
     28          8           0        2.517712   -2.486952   -0.486355
 ---------------------------------------------------------------------

 SCF Done:  E(RHF) =  -868.339145648     A.U. after   16 cycles
 E2 =    -0.2602185823D+01 EUMP2 =    -0.87094133147088D+03

 The electronic state is 1-A.
 Alpha  occ. eigenvalues --  -20.61182 -20.61116 -20.60649 -20.60610 -15.86165
 Alpha  occ. eigenvalues --  -15.85674 -11.31386 -11.30719 -11.27972 -11.27881
 Alpha  occ. eigenvalues --  -11.27636 -11.27329 -11.27165 -11.26945 -11.26835
 Alpha  occ. eigenvalues --  -11.26832 -11.26239 -11.26040  -1.60221  -1.59724
 Alpha  occ. eigenvalues --   -1.39778  -1.39282  -1.19546  -1.18837  -1.08967
 Alpha  occ. eigenvalues --   -1.08283  -1.04914  -1.04190  -0.95830  -0.95179
 Alpha  occ. eigenvalues --   -0.86314  -0.85613  -0.82661  -0.82028  -0.77729
 Alpha  occ. eigenvalues --   -0.77131  -0.72422  -0.71895  -0.71554  -0.71059
 Alpha  occ. eigenvalues --   -0.70639  -0.69929  -0.65191  -0.64895  -0.64493
 Alpha  occ. eigenvalues --   -0.64201  -0.62253  -0.61569  -0.55420  -0.54672
 Alpha  occ. eigenvalues --   -0.53282  -0.53005  -0.52499  -0.52294  -0.49181
 Alpha  occ. eigenvalues --   -0.49163  -0.48669  -0.48621  -0.45187  -0.44757
 Alpha  occ. eigenvalues --   -0.37574  -0.36758  -0.36561  -0.35592
 Alpha virt. eigenvalues --    0.04729   0.05374   0.11109   0.11948   0.16291
 Alpha virt. eigenvalues --    0.16967   0.21317   0.22012   0.27179   0.27883
 Alpha virt. eigenvalues --    0.28073   0.28890   0.30881   0.31562   0.32180

 Mulliken charges:
               1
     1  C   -0.165265
     2  C   -0.200146
     3  C   -0.167576
     4  C    0.153252
     5  C   -0.175094
     6  C   -0.224135
     7  H    0.229124
     8  H    0.226513
     9  H    0.274415
    10  H    0.269931
    11  H    0.220302
    12  N    0.486466
    13  O   -0.467392
    14  O   -0.459731
    15  C   -0.171157
    16  C   -0.219387
    17  C   -0.173338
    18  C    0.156753
    19  C   -0.170126
    20  C   -0.221114
    21  H    0.227315
    22  H    0.223292
    23  H    0.273882
    24  H    0.277720
    25  H    0.231492
    26  N    0.488086
    27  O   -0.458563
    28  O   -0.465518
 Sum of Mulliken charges =  -0.00000

 Dipole moment (field-independent basis, Debye):
    X=              3.8604    Y=              0.0397    Z=              3.1522  Tot=              4.9840
 Quadrupole moment (field-independent basis, Debye-Ang):
   XX=           -103.8683   YY=           -105.9643   ZZ=           -102.7502
   XY=             22.7951   XZ=              2.3200   YZ=             -1.6102

 Normal termination of Gaussian 16 at Fri May  7 03:18:52 2021.
