 Gaussian 16, Revision A.03,
 Gaussian 16:  EM64L-G16RevA.03 25-Dec-2016

 -------------
 #p 6-31g* mp2
 -------------

 ------------------------------------------------------
 Input file generated by CHIRIPA (05-May-2021 14:51:09)
 ------------------------------------------------------
 Symbolic Z-matrix:
 Charge =  0 Multiplicity = 1

                         Standard orientation:
 ---------------------------------------------------------------------
 Center     Atomic      Atomic             Coordinates (Angstroms)
 Number     Number       Type             X           Y           Z
 ---------------------------------------------------------------------
      1          6           0        3.417938   -0.690725    0.141872
      2          6           0        2.113713   -0.715366    0.939603
      3          6           0        1.381850   -2.053719    0.834813
      4          1           0        3.199658   -0.909331   -0.912410
      5          1           0        4.073388   -1.497067    0.499074
      6          1           0        1.461478    0.091655    0.581942
      7          1           0        2.335100   -0.496486    1.992075
      8          1           0        2.010944   -2.867243    1.210339
      9          1           0        1.132358   -2.275760   -0.207806
     10          1           0        0.452299   -2.049289    1.412546
     11          6           0        4.161067    0.640622    0.236762
     12          6           0        5.465292    0.665264   -0.560969
     13          6           0        6.197155    2.003617   -0.456178
     14          1           0        3.505617    1.446965   -0.120440
     15          1           0        4.379347    0.859229    1.291044
     16          1           0        5.243905    0.446384   -1.613440
     17          1           0        6.117527   -0.141757   -0.203308
     18          1           0        6.446647    2.225658    0.586440
     19          1           0        5.568062    2.817141   -0.831705
     20          1           0        7.126706    1.999186   -1.033912
     21          6           0       -4.291936    0.446232    0.202601
     22          6           0       -4.415473    1.879826   -0.314634
     23          6           0       -5.424394    2.709945    0.479580
     24          1           0       -5.277804   -0.037000    0.163922
     25          1           0       -3.996676    0.469774    1.260742
     26          1           0       -4.709066    1.853565   -1.371861
     27          1           0       -3.429158    2.359639   -0.274898
     28          1           0       -5.132677    2.765893    1.533322
     29          1           0       -6.419856    2.256944    0.430125
     30          1           0       -5.496841    3.731274    0.092929
     31          6           0       -3.287069   -0.396130   -0.581235
     32          6           0       -3.163532   -1.829723   -0.064000
     33          6           0       -2.154611   -2.659843   -0.858214
     34          1           0       -3.582328   -0.419672   -1.639376
     35          1           0       -2.301201    0.087102   -0.542556
     36          1           0       -4.149847   -2.309537   -0.103736
     37          1           0       -2.869939   -1.803464    0.993227
     38          1           0       -1.159149   -2.206842   -0.808759
     39          1           0       -2.446328   -2.715790   -1.911956
     40          1           0       -2.082165   -3.681171   -0.471563
 ---------------------------------------------------------------------

 SCF Done:  E(RHF) =  -470.732876041     A.U. after   11 cycles
 E2 =    -0.1582684655D+01 EUMP2 =    -0.47231556069562D+03

 The electronic state is 1-A.
 Alpha  occ. eigenvalues --  -11.21649 -11.21619 -11.21596 -11.21560 -11.21435
 Alpha  occ. eigenvalues --  -11.21389 -11.21375 -11.21330 -11.21091 -11.21085
 Alpha  occ. eigenvalues --  -11.21067 -11.20928  -1.08463  -1.08406  -1.03576
 Alpha  occ. eigenvalues --   -1.03483  -0.96048  -0.95907  -0.87086  -0.86904
 Alpha  occ. eigenvalues --   -0.79665  -0.79523  -0.78274  -0.78221  -0.65128
 Alpha  occ. eigenvalues --   -0.65013  -0.61110  -0.60787  -0.59370  -0.59308
 Alpha  occ. eigenvalues --   -0.57628  -0.57550  -0.55540  -0.55029  -0.52732
 Alpha  occ. eigenvalues --   -0.52613  -0.52462  -0.52324  -0.50182  -0.49639
 Alpha  occ. eigenvalues --   -0.47964  -0.47851  -0.46756  -0.46459  -0.45833
 Alpha  occ. eigenvalues --   -0.45756  -0.45725  -0.45657  -0.43807  -0.43752
 Alpha virt. eigenvalues --    0.21250   0.23097   0.23629   0.25075   0.26261
 Alpha virt. eigenvalues --    0.26705   0.26990   0.27399   0.27857   0.29091
 Alpha virt. eigenvalues --    0.30130   0.31150   0.31705   0.31880   0.32346

 Mulliken charges:
               1
     1  C   -0.298523
     2  C   -0.300364
     3  C   -0.479413
     4  H    0.149981
     5  H    0.149784
     6  H    0.151239
     7  H    0.152188
     8  H    0.155792
     9  H    0.158300
    10  H    0.161688
    11  C   -0.298303
    12  C   -0.299697
    13  C   -0.475729
    14  H    0.149478
    15  H    0.149683
    16  H    0.152047
    17  H    0.151998
    18  H    0.155185
    19  H    0.155202
    20  H    0.160345
    21  C   -0.298260
    22  C   -0.299611
    23  C   -0.475692
    24  H    0.149691
    25  H    0.149458
    26  H    0.151878
    27  H    0.151756
    28  H    0.155193
    29  H    0.155195
    30  H    0.160194
    31  C   -0.298260
    32  C   -0.299691
    33  C   -0.481382
    34  H    0.149459
    35  H    0.149147
    36  H    0.151730
    37  H    0.151349
    38  H    0.163314
    39  H    0.153770
    40  H    0.159883
 Sum of Mulliken charges =  -0.00000

 Dipole moment (field-independent basis, Debye):
    X=              0.0417    Y=             -0.0110    Z=              0.0052  Tot=              0.0435
 Quadrupole moment (field-independent basis, Debye-Ang):
   XX=            -84.9313   YY=            -85.9537   ZZ=            -83.9440
   XY=             -0.1096   XZ=              1.2263   YZ=             -0.4510

 Normal termination of Gaussian 16 at Thu May  6 06:55:05 2021.
