 Gaussian 16, Revision A.03,
 Gaussian 16:  EM64L-G16RevA.03 25-Dec-2016

 -------------
 #p 6-31g* mp2
 -------------

 ------------------------------------------------------
 Input file generated by CHIRIPA (05-May-2021 14:53:16)
 ------------------------------------------------------
 Symbolic Z-matrix:
 Charge =  0 Multiplicity = 1

                         Standard orientation:
 ---------------------------------------------------------------------
 Center     Atomic      Atomic             Coordinates (Angstroms)
 Number     Number       Type             X           Y           Z
 ---------------------------------------------------------------------
      1          6           0       -4.020235    0.228664    0.051959
      2          6           0       -4.130631   -0.988158   -0.867357
      3          6           0       -5.549831   -1.553386   -0.932018
      4          1           0       -4.351344   -0.051163    1.061419
      5          1           0       -4.710755    1.008198   -0.298618
      6          1           0       -3.439100   -1.764641   -0.515964
      7          1           0       -3.799039   -0.705453   -1.874700
      8          1           0       -6.249008   -0.797415   -1.303851
      9          1           0       -5.887024   -1.862622    0.062605
     10          1           0       -5.605977   -2.422595   -1.594727
     11          6           0       -2.607478    0.805042    0.127020
     12          6           0       -2.497083    2.021864    1.046336
     13          6           0       -1.077882    2.587092    1.110997
     14          1           0       -1.916959    0.025508    0.477597
     15          1           0       -2.276369    1.084869   -0.882440
     16          1           0       -2.828674    1.739158    2.053679
     17          1           0       -3.188613    2.798346    0.694943
     18          1           0       -0.740689    2.896327    0.116373
     19          1           0       -0.378705    1.831121    1.482830
     20          1           0       -1.021737    3.456301    1.773706
     21          6           0        3.646929    1.686561   -1.006415
     22          6           0        4.446400    0.592562   -0.659234
     23          6           0        3.871020   -0.570765   -0.139467
     24          6           0        2.486669   -0.605879    0.020624
     25          6           0        1.663369    0.467530   -0.315916
     26          6           0        2.260409    1.620670   -0.833952
     27          1           0        4.102310    2.586303   -1.409510
     28          1           0        5.523460    0.640910   -0.792086
     29          1           0        4.466324   -1.432322    0.137571
     30          1           0        0.592555    0.389576   -0.172043
     31          1           0        1.637054    2.468751   -1.102711
     32          7           0        1.866075   -1.832048    0.569962
     33          8           0        0.644051   -1.837859    0.701344
     34          8           0        2.613428   -2.764090    0.858748
 ---------------------------------------------------------------------

 SCF Done:  E(RHF) =  -669.535194617     A.U. after   15 cycles
 E2 =    -0.2093266942D+01 EUMP2 =    -0.67162846155871D+03

 The electronic state is 1-A.
 Alpha  occ. eigenvalues --  -20.60811 -20.60804 -15.85852 -11.31120 -11.27705
 Alpha  occ. eigenvalues --  -11.27603 -11.27436 -11.26709 -11.26663 -11.21814
 Alpha  occ. eigenvalues --  -11.21641 -11.21396 -11.21285 -11.21221 -11.20781
 Alpha  occ. eigenvalues --   -1.59877  -1.39434  -1.19298  -1.08714  -1.08416
 Alpha  occ. eigenvalues --   -1.04693  -1.03558  -0.96048  -0.95559  -0.87077
 Alpha  occ. eigenvalues --   -0.86096  -0.82395  -0.79663  -0.78235  -0.77397
 Alpha  occ. eigenvalues --   -0.72075  -0.71194  -0.70419  -0.65081  -0.64943
 Alpha  occ. eigenvalues --   -0.64666  -0.62094  -0.60940  -0.59411  -0.57633
 Alpha  occ. eigenvalues --   -0.55357  -0.55202  -0.53077  -0.52837  -0.52679
 Alpha  occ. eigenvalues --   -0.52442  -0.49991  -0.48831  -0.48821  -0.47925
 Alpha  occ. eigenvalues --   -0.46627  -0.45738  -0.45564  -0.44855  -0.43781
 Alpha  occ. eigenvalues --   -0.37289  -0.36261
 Alpha virt. eigenvalues --    0.05049   0.11309   0.16550   0.20267   0.23159
 Alpha virt. eigenvalues --    0.24096   0.25294   0.26529   0.27349   0.28323
 Alpha virt. eigenvalues --    0.29330   0.30167   0.31443   0.31803   0.32246

 Mulliken charges:
               1
     1  C   -0.296829
     2  C   -0.302155
     3  C   -0.475902
     4  H    0.152207
     5  H    0.147421
     6  H    0.162560
     7  H    0.149230
     8  H    0.152888
     9  H    0.156073
    10  H    0.160987
    11  C   -0.314461
    12  C   -0.297363
    13  C   -0.484504
    14  H    0.170155
    15  H    0.142459
    16  H    0.156863
    17  H    0.151818
    18  H    0.144091
    19  H    0.160373
    20  H    0.164213
    21  C   -0.170474
    22  C   -0.219144
    23  C   -0.170165
    24  C    0.155370
    25  C   -0.175929
    26  C   -0.223382
    27  H    0.225433
    28  H    0.223103
    29  H    0.275137
    30  H    0.289709
    31  H    0.225714
    32  N    0.489421
    33  O   -0.465118
    34  O   -0.459797
 Sum of Mulliken charges =  -0.00000

 Dipole moment (field-independent basis, Debye):
    X=              2.1070    Y=              4.1962    Z=             -1.8217  Tot=              5.0364
 Quadrupole moment (field-independent basis, Debye-Ang):
   XX=            -80.7137   YY=            -99.7065   ZZ=            -94.9945
   XY=              7.0193   XZ=             -4.8052   YZ=              0.5959

 Normal termination of Gaussian 16 at Thu May  6 13:53:55 2021.
