 Gaussian 16, Revision A.03,
 Gaussian 16:  EM64L-G16RevA.03 25-Dec-2016

 -------------
 #p 6-31g* mp2
 -------------

 ------------------------------------------------------
 Input file generated by CHIRIPA (05-May-2021 14:53:16)
 ------------------------------------------------------
 Symbolic Z-matrix:
 Charge =  0 Multiplicity = 1

                         Standard orientation:
 ---------------------------------------------------------------------
 Center     Atomic      Atomic             Coordinates (Angstroms)
 Number     Number       Type             X           Y           Z
 ---------------------------------------------------------------------
      1          6           0       -3.437182    0.946774   -0.158858
      2          6           0       -3.955681    2.144700    0.637457
      3          6           0       -3.152227    3.419443    0.378063
      4          1           0       -2.382151    0.774911    0.094751
      5          1           0       -3.465807    1.187642   -1.230566
      6          1           0       -3.927386    1.901134    1.707266
      7          1           0       -5.009655    2.313613    0.382066
      8          1           0       -3.190191    3.689695   -0.682184
      9          1           0       -2.101773    3.274872    0.650546
     10          1           0       -3.539945    4.263228    0.957341
     11          6           0       -4.230194   -0.335032    0.089809
     12          6           0       -3.711695   -1.532958   -0.706505
     13          6           0       -4.515149   -2.807701   -0.447112
     14          1           0       -4.201569   -0.575899    1.161517
     15          1           0       -5.285225   -0.163168   -0.163800
     16          1           0       -2.657721   -1.701871   -0.451114
     17          1           0       -3.739990   -1.289391   -1.776314
     18          1           0       -5.565603   -2.663129   -0.719594
     19          1           0       -4.477184   -3.077953    0.613135
     20          1           0       -4.127431   -3.651485   -1.026389
     21          6           0        0.960086   -1.660570    0.478410
     22          6           0        0.816654   -0.399767   -0.110081
     23          6           0        1.937191    0.396511   -0.364807
     24          6           0        3.191803   -0.101526   -0.016671
     25          6           0        3.367254   -1.353448    0.570864
     26          6           0        2.232684   -2.132556    0.816408
     27          1           0        0.084175   -2.272468    0.672720
     28          1           0       -0.170432   -0.030647   -0.373627
     29          1           0        1.854868    1.376331   -0.819332
     30          1           0        4.364202   -1.694325    0.822490
     31          1           0        2.347086   -3.111319    1.273549
     32          7           0        4.385494    0.732369   -0.281478
     33          8           0        5.479858    0.270735    0.034592
     34          8           0        4.204142    1.831818   -0.800089
 ---------------------------------------------------------------------

 SCF Done:  E(RHF) =  -669.535518229     A.U. after   15 cycles
 E2 =    -0.2091654639D+01 EUMP2 =    -0.67162717286847D+03

 The electronic state is 1-A.
 Alpha  occ. eigenvalues --  -20.60732 -20.60727 -15.85785 -11.31149 -11.27720
 Alpha  occ. eigenvalues --  -11.27708 -11.27461 -11.26737 -11.26690 -11.22698
 Alpha  occ. eigenvalues --  -11.22440 -11.22341 -11.22316 -11.21968 -11.21691
 Alpha  occ. eigenvalues --   -1.59808  -1.39361  -1.19320  -1.09382  -1.08716
 Alpha  occ. eigenvalues --   -1.04722  -1.04397  -0.96831  -0.95552  -0.87843
 Alpha  occ. eigenvalues --   -0.86124  -0.82384  -0.80470  -0.79225  -0.77427
 Alpha  occ. eigenvalues --   -0.72004  -0.71131  -0.70435  -0.66060  -0.64971
 Alpha  occ. eigenvalues --   -0.64701  -0.62075  -0.61792  -0.60204  -0.58448
 Alpha  occ. eigenvalues --   -0.56122  -0.55224  -0.53499  -0.53274  -0.53052
 Alpha  occ. eigenvalues --   -0.52807  -0.50770  -0.48786  -0.48762  -0.48755
 Alpha  occ. eigenvalues --   -0.47517  -0.46726  -0.46643  -0.44767  -0.44672
 Alpha  occ. eigenvalues --   -0.37303  -0.36324
 Alpha virt. eigenvalues --    0.05102   0.11292   0.16573   0.18453   0.22766
 Alpha virt. eigenvalues --    0.23071   0.24694   0.26155   0.26752   0.27343
 Alpha virt. eigenvalues --    0.29284   0.30805   0.30965   0.31329   0.31580

 Mulliken charges:
               1
     1  C   -0.304857
     2  C   -0.299640
     3  C   -0.476585
     4  H    0.143951
     5  H    0.152208
     6  H    0.153717
     7  H    0.155134
     8  H    0.156600
     9  H    0.154017
    10  H    0.164245
    11  C   -0.298626
    12  C   -0.300534
    13  C   -0.476522
    14  H    0.150711
    15  H    0.154479
    16  H    0.140697
    17  H    0.155872
    18  H    0.159468
    19  H    0.155383
    20  H    0.161753
    21  C   -0.174792
    22  C   -0.227574
    23  C   -0.172997
    24  C    0.158904
    25  C   -0.171113
    26  C   -0.218541
    27  H    0.226744
    28  H    0.236038
    29  H    0.276120
    30  H    0.275456
    31  H    0.223296
    32  N    0.487990
    33  O   -0.460616
    34  O   -0.460386
 Sum of Mulliken charges =  -0.00000

 Dipole moment (field-independent basis, Debye):
    X=             -4.4740    Y=             -2.8778    Z=              0.9254  Tot=              5.3995
 Quadrupole moment (field-independent basis, Debye-Ang):
   XX=           -118.9363   YY=            -92.4796   ZZ=            -94.1697
   XY=            -12.1844   XZ=              4.9529   YZ=             -1.7014

 Normal termination of Gaussian 16 at Thu May  6 18:52:39 2021.
