 Gaussian 16, Revision A.03,
 Gaussian 16:  EM64L-G16RevA.03 25-Dec-2016

 -------------
 #p 6-31g* mp2
 -------------

 ------------------------------------------------------
 Input file generated by CHIRIPA (05-May-2021 14:51:12)
 ------------------------------------------------------
 Symbolic Z-matrix:
 Charge =  0 Multiplicity = 1

                         Standard orientation:
 ---------------------------------------------------------------------
 Center     Atomic      Atomic             Coordinates (Angstroms)
 Number     Number       Type             X           Y           Z
 ---------------------------------------------------------------------
      1          6           0        4.535452    0.002048   -0.302625
      2          6           0        5.705105   -0.790708    0.281699
      3          6           0        6.980104   -0.664800   -0.552757
      4          1           0        4.340886   -0.344856   -1.326708
      5          1           0        4.821099    1.060258   -0.380044
      6          1           0        5.416844   -1.846882    0.359282
      7          1           0        5.896785   -0.442008    1.304579
      8          1           0        7.294738    0.381663   -0.619990
      9          1           0        6.812071   -1.031193   -1.570658
     10          1           0        7.803470   -1.239293   -0.116996
     11          6           0        3.253722   -0.113902    0.520450
     12          6           0        2.084069    0.678855   -0.063874
     13          6           0        0.809070    0.552947    0.770583
     14          1           0        2.968075   -1.172111    0.597870
     15          1           0        3.448288    0.233003    1.544533
     16          1           0        1.892389    0.330154   -1.086754
     17          1           0        2.372330    1.735028   -0.141457
     18          1           0        0.977103    0.919339    1.788483
     19          1           0        0.494436   -0.493517    0.837816
     20          1           0       -0.014296    1.127439    0.334822
     21          6           0       -4.433427   -0.456417    0.065982
     22          6           0       -4.052787   -1.888928   -0.309530
     23          6           0       -5.140848   -2.902383    0.046592
     24          1           0       -4.641546   -0.409609    1.143683
     25          1           0       -5.368197   -0.186922   -0.444873
     26          1           0       -3.118278   -2.155159    0.200793
     27          1           0       -3.845364   -1.932289   -1.386429
     28          1           0       -6.074217   -2.664352   -0.473758
     29          1           0       -5.343001   -2.888488    1.122483
     30          1           0       -4.847944   -3.919886   -0.230455
     31          6           0       -3.355747    0.568270   -0.283807
     32          6           0       -3.736387    2.000781    0.091705
     33          6           0       -2.648326    3.014238   -0.264417
     34          1           0       -2.420977    0.298776    0.227047
     35          1           0       -3.147628    0.521463   -1.361509
     36          1           0       -3.943811    2.044143    1.168604
     37          1           0       -4.670896    2.267012   -0.418620
     38          1           0       -2.446173    3.000341   -1.340308
     39          1           0       -1.714956    2.776205    0.255932
     40          1           0       -2.941230    4.031740    0.012630
 ---------------------------------------------------------------------

 SCF Done:  E(RHF) =  -470.732899739     A.U. after   11 cycles
 E2 =    -0.1582992231D+01 EUMP2 =    -0.47231589197088D+03

 The electronic state is 1-A.
 Alpha  occ. eigenvalues --  -11.21610 -11.21604 -11.21578 -11.21573 -11.21409
 Alpha  occ. eigenvalues --  -11.21355 -11.21349 -11.21285 -11.21075 -11.21072
 Alpha  occ. eigenvalues --  -11.21059 -11.21053  -1.08439  -1.08394  -1.03553
 Alpha  occ. eigenvalues --   -1.03497  -0.95999  -0.95954  -0.87021  -0.86974
 Alpha  occ. eigenvalues --   -0.79652  -0.79531  -0.78258  -0.78196  -0.65071
 Alpha  occ. eigenvalues --   -0.65033  -0.60949  -0.60933  -0.59496  -0.59201
 Alpha  occ. eigenvalues --   -0.57672  -0.57501  -0.55333  -0.55197  -0.52761
 Alpha  occ. eigenvalues --   -0.52638  -0.52472  -0.52324  -0.49985  -0.49850
 Alpha  occ. eigenvalues --   -0.48015  -0.47791  -0.46640  -0.46590  -0.45792
 Alpha  occ. eigenvalues --   -0.45759  -0.45719  -0.45650  -0.43765  -0.43683
 Alpha virt. eigenvalues --    0.21737   0.23048   0.23490   0.24762   0.26071
 Alpha virt. eigenvalues --    0.26654   0.27142   0.27218   0.27861   0.29245
 Alpha virt. eigenvalues --    0.30472   0.31443   0.31833   0.31888   0.31982

 Mulliken charges:
               1
     1  C   -0.298246
     2  C   -0.299627
     3  C   -0.475705
     4  H    0.149710
     5  H    0.149587
     6  H    0.151916
     7  H    0.151919
     8  H    0.155206
     9  H    0.155198
    10  H    0.160250
    11  C   -0.298740
    12  C   -0.298846
    13  C   -0.486219
    14  H    0.149512
    15  H    0.149563
    16  H    0.152382
    17  H    0.152132
    18  H    0.154711
    19  H    0.154988
    20  H    0.170808
    21  C   -0.297947
    22  C   -0.299577
    23  C   -0.475678
    24  H    0.149606
    25  H    0.149297
    26  H    0.151839
    27  H    0.151753
    28  H    0.155149
    29  H    0.155200
    30  H    0.160060
    31  C   -0.304477
    32  C   -0.299326
    33  C   -0.481363
    34  H    0.156981
    35  H    0.148830
    36  H    0.151892
    37  H    0.151775
    38  H    0.154905
    39  H    0.160049
    40  H    0.160531
 Sum of Mulliken charges =  -0.00000

 Dipole moment (field-independent basis, Debye):
    X=              0.0179    Y=              0.0058    Z=              0.0022  Tot=              0.0189
 Quadrupole moment (field-independent basis, Debye-Ang):
   XX=            -86.1336   YY=            -84.8589   ZZ=            -83.9184
   XY=             -0.3874   XZ=              1.1276   YZ=              0.5187

 Normal termination of Gaussian 16 at Thu May  6 00:43:16 2021.
