 Gaussian 16, Revision A.03,
 Gaussian 16:  EM64L-G16RevA.03 25-Dec-2016

 -------------
 #p 6-31g* mp2
 -------------

 ------------------------------------------------------
 Input file generated by CHIRIPA (05-May-2021 14:51:14)
 ------------------------------------------------------
 Symbolic Z-matrix:
 Charge =  0 Multiplicity = 1

                         Standard orientation:
 ---------------------------------------------------------------------
 Center     Atomic      Atomic             Coordinates (Angstroms)
 Number     Number       Type             X           Y           Z
 ---------------------------------------------------------------------
      1          6           0        4.366106   -0.323273    0.342625
      2          6           0        5.446552    0.010045   -0.686705
      3          6           0        6.843985   -0.416553   -0.236161
      4          1           0        4.611689    0.167216    1.294494
      5          1           0        4.375574   -1.404770    0.536713
      6          1           0        5.434125    1.090400   -0.879825
      7          1           0        5.198269   -0.481139   -1.636289
      8          1           0        6.879566   -1.496838   -0.062038
      9          1           0        7.116763    0.083629    0.698725
     10          1           0        7.600907   -0.168801   -0.986859
     11          6           0        2.963654    0.097102   -0.093426
     12          6           0        1.883208   -0.236216    0.935904
     13          6           0        0.485775    0.190382    0.485360
     14          1           0        2.954186    1.178598   -0.287514
     15          1           0        2.718071   -0.393387   -1.045295
     16          1           0        2.131492    0.254968    1.885488
     17          1           0        1.895635   -1.316571    1.129024
     18          1           0        0.212997   -0.309800   -0.449526
     19          1           0        0.450194    1.270667    0.311237
     20          1           0       -0.271147   -0.057370    1.236058
     21          6           0       -3.611134   -0.584484   -0.431097
     22          6           0       -4.432701   -1.638318    0.312168
     23          6           0       -4.314958   -3.028710   -0.312927
     24          1           0       -3.938310   -0.545787   -1.479144
     25          1           0       -2.556781   -0.893625   -0.444007
     26          1           0       -5.484977   -1.326599    0.324874
     27          1           0       -4.103662   -1.674376    1.358615
     28          1           0       -3.272999   -3.364745   -0.311514
     29          1           0       -4.662163   -3.014992   -1.351127
     30          1           0       -4.910118   -3.766535    0.234120
     31          6           0       -3.718626    0.810654    0.181898
     32          6           0       -2.897059    1.864490   -0.561367
     33          6           0       -3.014801    3.254881    0.063727
     34          1           0       -4.772979    1.119797    0.194809
     35          1           0       -3.391450    0.771958    1.229945
     36          1           0       -3.226098    1.900548   -1.607814
     37          1           0       -1.844783    1.552770   -0.574073
     38          1           0       -2.667597    3.241164    1.101928
     39          1           0       -4.056761    3.590916    0.062315
     40          1           0       -2.419642    3.992706   -0.483319
 ---------------------------------------------------------------------

 SCF Done:  E(RHF) =  -470.732869688     A.U. after   11 cycles
 E2 =    -0.1583390470D+01 EUMP2 =    -0.47231626015760D+03

 The electronic state is 1-A.
 Alpha  occ. eigenvalues --  -11.21687 -11.21637 -11.21540 -11.21464 -11.21401
 Alpha  occ. eigenvalues --  -11.21397 -11.21293 -11.21234 -11.21212 -11.21099
 Alpha  occ. eigenvalues --  -11.21033 -11.20978  -1.08496  -1.08324  -1.03611
 Alpha  occ. eigenvalues --   -1.03429  -0.96065  -0.95893  -0.87099  -0.86902
 Alpha  occ. eigenvalues --   -0.79721  -0.79469  -0.78321  -0.78110  -0.65123
 Alpha  occ. eigenvalues --   -0.64967  -0.61045  -0.60809  -0.59420  -0.59264
 Alpha  occ. eigenvalues --   -0.57677  -0.57500  -0.55411  -0.55124  -0.52786
 Alpha  occ. eigenvalues --   -0.52589  -0.52499  -0.52310  -0.50053  -0.49789
 Alpha  occ. eigenvalues --   -0.48093  -0.47762  -0.46747  -0.46450  -0.45941
 Alpha  occ. eigenvalues --   -0.45759  -0.45671  -0.45433  -0.43825  -0.43682
 Alpha virt. eigenvalues --    0.21126   0.22943   0.24115   0.24591   0.25597
 Alpha virt. eigenvalues --    0.26584   0.26798   0.27584   0.27826   0.29549
 Alpha virt. eigenvalues --    0.30701   0.31261   0.31614   0.31918   0.32319

 Mulliken charges:
               1
     1  C   -0.298351
     2  C   -0.299692
     3  C   -0.475749
     4  H    0.149776
     5  H    0.149643
     6  H    0.152031
     7  H    0.152050
     8  H    0.155241
     9  H    0.155235
    10  H    0.160402
    11  C   -0.298642
    12  C   -0.300681
    13  C   -0.479863
    14  H    0.149766
    15  H    0.149900
    16  H    0.152301
    17  H    0.152137
    18  H    0.157036
    19  H    0.156643
    20  H    0.161805
    21  C   -0.302732
    22  C   -0.299328
    23  C   -0.475595
    24  H    0.149023
    25  H    0.154200
    26  H    0.151764
    27  H    0.151349
    28  H    0.154832
    29  H    0.155047
    30  H    0.159999
    31  C   -0.297079
    32  C   -0.309562
    33  C   -0.475454
    34  H    0.148883
    35  H    0.148687
    36  H    0.150639
    37  H    0.165729
    38  H    0.154597
    39  H    0.154755
    40  H    0.159260
 Sum of Mulliken charges =  -0.00000

 Dipole moment (field-independent basis, Debye):
    X=              0.0894    Y=             -0.0094    Z=             -0.0016  Tot=              0.0899
 Quadrupole moment (field-independent basis, Debye-Ang):
   XX=            -85.5321   YY=            -85.2339   ZZ=            -84.4016
   XY=              0.2847   XZ=              0.3388   YZ=             -0.0091

 Normal termination of Gaussian 16 at Thu May  6 07:12:09 2021.
