 Gaussian 16, Revision A.03,
 Gaussian 16:  EM64L-G16RevA.03 25-Dec-2016

 -------------
 #p 6-31g* mp2
 -------------

 ------------------------------------------------------
 Input file generated by CHIRIPA (05-May-2021 14:51:14)
 ------------------------------------------------------
 Symbolic Z-matrix:
 Charge =  0 Multiplicity = 1

                         Standard orientation:
 ---------------------------------------------------------------------
 Center     Atomic      Atomic             Coordinates (Angstroms)
 Number     Number       Type             X           Y           Z
 ---------------------------------------------------------------------
      1          6           0       -3.200182    0.750152   -0.251795
      2          6           0       -2.729720    1.831328    0.721707
      3          6           0       -3.689309    3.019479    0.794382
      4          1           0       -3.316412    1.191097   -1.251297
      5          1           0       -4.196124    0.400180    0.053188
      6          1           0       -1.734370    2.178177    0.415780
      7          1           0       -2.614412    1.387715    1.718967
      8          1           0       -4.681932    2.693535    1.121583
      9          1           0       -3.796890    3.488489   -0.189008
     10          1           0       -3.333683    3.780403    1.496083
     11          6           0       -2.251325   -0.444167   -0.335460
     12          6           0       -2.721788   -1.525344   -1.308963
     13          6           0       -1.762199   -2.713494   -1.381638
     14          1           0       -1.255384   -0.094195   -0.640443
     15          1           0       -2.135095   -0.885112    0.664042
     16          1           0       -2.837096   -1.081730   -2.306222
     17          1           0       -3.717138   -1.872192   -1.003035
     18          1           0       -1.654618   -3.182504   -0.398247
     19          1           0       -0.769575   -2.387551   -1.708838
     20          1           0       -2.117825   -3.474419   -2.083339
     21          6           0        3.349118    0.287489    0.264899
     22          6           0        3.419737    1.157138   -0.990771
     23          6           0        4.672467    2.032702   -1.033776
     24          1           0        3.377154    0.933778    1.152858
     25          1           0        4.243907   -0.348476    0.312807
     26          1           0        2.524412    1.790282   -1.037019
     27          1           0        3.391336    0.508715   -1.875846
     28          1           0        5.575623    1.414275   -1.012409
     29          1           0        4.703774    2.703123   -0.168816
     30          1           0        4.702655    2.646085   -1.939707
     31          6           0        2.102389   -0.593474    0.322356
     32          6           0        2.031771   -1.463122    1.578026
     33          6           0        0.779041   -2.338686    1.621032
     34          1           0        1.207600    0.042492    0.274448
     35          1           0        2.074354   -1.239762   -0.565603
     36          1           0        2.060172   -0.814700    2.463102
     37          1           0        2.927095   -2.096267    1.624274
     38          1           0        0.747733   -3.009107    0.756071
     39          1           0       -0.124115   -1.720259    1.599665
     40          1           0        0.748852   -2.952069    2.526962
 ---------------------------------------------------------------------

 SCF Done:  E(RHF) =  -470.732295440     A.U. after   11 cycles
 E2 =    -0.1584597360D+01 EUMP2 =    -0.47231689280026D+03

 The electronic state is 1-A.
 Alpha  occ. eigenvalues --  -11.21651 -11.21616 -11.21580 -11.21543 -11.21408
 Alpha  occ. eigenvalues --  -11.21386 -11.21341 -11.21323 -11.21105 -11.21080
 Alpha  occ. eigenvalues --  -11.20982 -11.20905  -1.08465  -1.08387  -1.03560
 Alpha  occ. eigenvalues --   -1.03466  -0.95992  -0.95931  -0.87018  -0.86945
 Alpha  occ. eigenvalues --   -0.79727  -0.79475  -0.78431  -0.78041  -0.65085
 Alpha  occ. eigenvalues --   -0.65038  -0.60952  -0.60887  -0.59429  -0.59244
 Alpha  occ. eigenvalues --   -0.57676  -0.57478  -0.55384  -0.55125  -0.52674
 Alpha  occ. eigenvalues --   -0.52642  -0.52524  -0.52287  -0.50046  -0.49753
 Alpha  occ. eigenvalues --   -0.48249  -0.47638  -0.46664  -0.46607  -0.46201
 Alpha  occ. eigenvalues --   -0.45702  -0.45641  -0.45140  -0.43786  -0.43754
 Alpha virt. eigenvalues --    0.21235   0.23214   0.23350   0.24534   0.25005
 Alpha virt. eigenvalues --    0.25174   0.26427   0.27866   0.29140   0.30036
 Alpha virt. eigenvalues --    0.30470   0.30758   0.31639   0.31802   0.32006

 Mulliken charges:
               1
     1  C   -0.297277
     2  C   -0.299935
     3  C   -0.475616
     4  H    0.149710
     5  H    0.149590
     6  H    0.151063
     7  H    0.151496
     8  H    0.155448
     9  H    0.155373
    10  H    0.160244
    11  C   -0.306966
    12  C   -0.299235
    13  C   -0.478698
    14  H    0.154974
    15  H    0.152870
    16  H    0.151622
    17  H    0.151623
    18  H    0.159718
    19  H    0.155893
    20  H    0.159151
    21  C   -0.297978
    22  C   -0.299525
    23  C   -0.475658
    24  H    0.149718
    25  H    0.149616
    26  H    0.151120
    27  H    0.151734
    28  H    0.155318
    29  H    0.155260
    30  H    0.160160
    31  C   -0.303100
    32  C   -0.299342
    33  C   -0.483395
    34  H    0.153985
    35  H    0.149270
    36  H    0.151381
    37  H    0.151451
    38  H    0.158438
    39  H    0.162026
    40  H    0.158476
 Sum of Mulliken charges =  -0.00000

 Dipole moment (field-independent basis, Debye):
    X=             -0.0270    Y=             -0.0063    Z=             -0.0039  Tot=              0.0280
 Quadrupole moment (field-independent basis, Debye-Ang):
   XX=            -85.3966   YY=            -85.3856   ZZ=            -84.1193
   XY=             -0.1519   XZ=             -0.4535   YZ=              0.0065

 Normal termination of Gaussian 16 at Thu May  6 00:51:01 2021.
