 Gaussian 16, Revision A.03,
 Gaussian 16:  EM64L-G16RevA.03 25-Dec-2016

 -------------
 #p 6-31g* mp2
 -------------

 ------------------------------------------------------
 Input file generated by CHIRIPA (05-May-2021 14:51:13)
 ------------------------------------------------------
 Symbolic Z-matrix:
 Charge =  0 Multiplicity = 1

                         Standard orientation:
 ---------------------------------------------------------------------
 Center     Atomic      Atomic             Coordinates (Angstroms)
 Number     Number       Type             X           Y           Z
 ---------------------------------------------------------------------
      1          6           0       -3.522108   -0.111777    0.458490
      2          6           0       -2.231683   -0.710019   -0.102664
      3          6           0       -0.991810   -0.285027    0.684668
      4          1           0       -3.442183    0.983919    0.456006
      5          1           0       -3.632009   -0.414778    1.508970
      6          1           0       -2.124952   -0.407118   -1.152176
      7          1           0       -2.314764   -1.804414   -0.099022
      8          1           0       -1.072034   -0.601154    1.729766
      9          1           0       -0.881144    0.804082    0.670627
     10          1           0       -0.080659   -0.724038    0.266419
     11          6           0       -4.770314   -0.527457   -0.317988
     12          6           0       -6.060740    0.070785    0.243166
     13          6           0       -7.300612   -0.354207   -0.544166
     14          1           0       -4.660413   -0.224456   -1.368468
     15          1           0       -4.850239   -1.623153   -0.315504
     16          1           0       -5.977658    1.165180    0.239524
     17          1           0       -6.167470   -0.232116    1.292678
     18          1           0       -7.411278   -1.443315   -0.530125
     19          1           0       -7.220388   -0.038080   -1.589264
     20          1           0       -8.211763    0.084804   -0.125917
     21          6           0        3.852568    0.963468   -0.357760
     22          6           0        2.605485    1.445387    0.384211
     23          6           0        2.029646    2.734480   -0.202683
     24          1           0        4.615711    1.753293   -0.330655
     25          1           0        3.603056    0.806106   -1.416238
     26          1           0        2.856931    1.600468    1.441255
     27          1           0        1.845293    0.654249    0.355502
     28          1           0        1.751232    2.589523   -1.251528
     29          1           0        2.768619    3.541117   -0.159606
     30          1           0        1.138763    3.061040    0.342795
     31          6           0        4.439854   -0.324235    0.217258
     32          6           0        5.686937   -0.806153   -0.524713
     33          6           0        6.262776   -2.095246    0.062181
     34          1           0        4.689367   -0.166872    1.275736
     35          1           0        3.676711   -1.114059    0.190154
     36          1           0        6.447130   -0.015016   -0.496004
     37          1           0        5.435492   -0.961234   -1.581757
     38          1           0        5.523804   -2.901883    0.019104
     39          1           0        6.541190   -1.950290    1.111025
     40          1           0        7.153659   -2.421807   -0.483296
 ---------------------------------------------------------------------

 SCF Done:  E(RHF) =  -470.732885666     A.U. after   11 cycles
 E2 =    -0.1582822958D+01 EUMP2 =    -0.47231570862389D+03

 The electronic state is 1-A.
 Alpha  occ. eigenvalues --  -11.21634 -11.21615 -11.21573 -11.21439 -11.21428
 Alpha  occ. eigenvalues --  -11.21368 -11.21355 -11.21286 -11.21110 -11.21082
 Alpha  occ. eigenvalues --  -11.21050 -11.21019  -1.08456  -1.08370  -1.03571
 Alpha  occ. eigenvalues --   -1.03459  -0.96026  -0.95918  -0.87039  -0.86943
 Alpha  occ. eigenvalues --   -0.79682  -0.79482  -0.78275  -0.78170  -0.65098
 Alpha  occ. eigenvalues --   -0.65002  -0.61030  -0.60834  -0.59432  -0.59246
 Alpha  occ. eigenvalues --   -0.57625  -0.57544  -0.55342  -0.55165  -0.52767
 Alpha  occ. eigenvalues --   -0.52616  -0.52448  -0.52327  -0.49952  -0.49859
 Alpha  occ. eigenvalues --   -0.47954  -0.47831  -0.46699  -0.46512  -0.45821
 Alpha  occ. eigenvalues --   -0.45745  -0.45709  -0.45637  -0.43777  -0.43685
 Alpha virt. eigenvalues --    0.21705   0.23035   0.23591   0.24906   0.25881
 Alpha virt. eigenvalues --    0.26469   0.26997   0.27174   0.27780   0.29097
 Alpha virt. eigenvalues --    0.30452   0.30949   0.31676   0.31791   0.32473

 Mulliken charges:
               1
     1  C   -0.298768
     2  C   -0.299545
     3  C   -0.479330
     4  H    0.149823
     5  H    0.149610
     6  H    0.152033
     7  H    0.151883
     8  H    0.155761
     9  H    0.158201
    10  H    0.161360
    11  C   -0.298317
    12  C   -0.299660
    13  C   -0.475717
    14  H    0.149580
    15  H    0.149667
    16  H    0.152014
    17  H    0.151956
    18  H    0.155182
    19  H    0.155212
    20  H    0.160316
    21  C   -0.297824
    22  C   -0.308131
    23  C   -0.475757
    24  H    0.149170
    25  H    0.148811
    26  H    0.151220
    27  H    0.162932
    28  H    0.154542
    29  H    0.154877
    30  H    0.159686
    31  C   -0.298042
    32  C   -0.299572
    33  C   -0.475666
    34  H    0.149631
    35  H    0.148763
    36  H    0.151965
    37  H    0.151771
    38  H    0.155056
    39  H    0.155170
    40  H    0.160139
 Sum of Mulliken charges =  -0.00000

 Dipole moment (field-independent basis, Debye):
    X=             -0.0463    Y=             -0.0151    Z=              0.0152  Tot=              0.0510
 Quadrupole moment (field-independent basis, Debye-Ang):
   XX=            -85.8493   YY=            -84.8028   ZZ=            -84.3316
   XY=              0.6550   XZ=             -0.3006   YZ=              0.0347

 Normal termination of Gaussian 16 at Wed May  5 18:21:54 2021.
