 Gaussian 16, Revision A.03,
 Gaussian 16:  EM64L-G16RevA.03 25-Dec-2016

 -------------
 #p 6-31g* mp2
 -------------

 ------------------------------------------------------
 Input file generated by CHIRIPA (05-May-2021 14:53:17)
 ------------------------------------------------------
 Symbolic Z-matrix:
 Charge =  0 Multiplicity = 1

                         Standard orientation:
 ---------------------------------------------------------------------
 Center     Atomic      Atomic             Coordinates (Angstroms)
 Number     Number       Type             X           Y           Z
 ---------------------------------------------------------------------
      1          6           0        3.693408   -0.092879   -0.266677
      2          6           0        5.216855   -0.203091   -0.337020
      3          6           0        5.694573   -1.630808   -0.603861
      4          1           0        3.319971   -0.759555    0.522647
      5          1           0        3.262631   -0.454237   -1.210736
      6          1           0        5.644699    0.159661    0.606366
      7          1           0        5.586726    0.464068   -1.126140
      8          1           0        5.295256   -1.999344   -1.554297
      9          1           0        5.353559   -2.305482    0.188052
     10          1           0        6.786630   -1.686680   -0.650220
     11          6           0        3.200478    1.328346   -0.000468
     12          6           0        1.677031    1.438558    0.069874
     13          6           0        1.199313    2.866275    0.336715
     14          1           0        3.631255    1.689703    0.943590
     15          1           0        3.573915    1.995022   -0.789792
     16          1           0        1.307160    0.771398    0.858994
     17          1           0        1.249187    1.075806   -0.873511
     18          1           0        1.540327    3.540948   -0.455198
     19          1           0        1.598630    3.234811    1.287151
     20          1           0        0.107256    2.922146    0.383075
     21          6           0       -4.426623    1.119637   -0.786171
     22          6           0       -4.403929   -0.205946   -1.232080
     23          6           0       -3.447854   -1.102455   -0.745521
     24          6           0       -2.525317   -0.637503    0.190446
     25          6           0       -2.522168    0.677125    0.654164
     26          6           0       -3.487326    1.556172    0.153871
     27          1           0       -5.172853    1.809284   -1.169477
     28          1           0       -5.132169   -0.547741   -1.962072
     29          1           0       -3.407557   -2.134045   -1.073569
     30          1           0       -1.783253    0.988586    1.382460
     31          1           0       -3.502567    2.585075    0.501968
     32          7           0       -1.508355   -1.577354    0.712815
     33          8           0       -0.706548   -1.143030    1.536893
     34          8           0       -1.532323   -2.730536    0.288278
 ---------------------------------------------------------------------

 SCF Done:  E(RHF) =  -669.536228781     A.U. after   15 cycles
 E2 =    -0.2091979483D+01 EUMP2 =    -0.67162820826371D+03

 The electronic state is 1-A.
 Alpha  occ. eigenvalues --  -20.60903 -20.60898 -15.85931 -11.31250 -11.27820
 Alpha  occ. eigenvalues --  -11.27810 -11.27555 -11.26829 -11.26819 -11.21049
 Alpha  occ. eigenvalues --  -11.21023 -11.20963 -11.20861 -11.20689 -11.20515
 Alpha  occ. eigenvalues --   -1.59958  -1.39516  -1.19422  -1.08825  -1.07876
 Alpha  occ. eigenvalues --   -1.04820  -1.03062  -0.95673  -0.95541  -0.86560
 Alpha  occ. eigenvalues --   -0.86217  -0.82507  -0.79106  -0.77697  -0.77516
 Alpha  occ. eigenvalues --   -0.72162  -0.71265  -0.70532  -0.65081  -0.64826
 Alpha  occ. eigenvalues --   -0.64496  -0.62181  -0.60449  -0.58930  -0.57150
 Alpha  occ. eigenvalues --   -0.55322  -0.54829  -0.53150  -0.52913  -0.52272
 Alpha  occ. eigenvalues --   -0.51958  -0.49473  -0.48929  -0.48911  -0.47439
 Alpha  occ. eigenvalues --   -0.46132  -0.45332  -0.45163  -0.44661  -0.43304
 Alpha  occ. eigenvalues --   -0.37397  -0.36412
 Alpha virt. eigenvalues --    0.04918   0.11202   0.16378   0.20703   0.23356
 Alpha virt. eigenvalues --    0.24272   0.26634   0.27248   0.27761   0.28315
 Alpha virt. eigenvalues --    0.29171   0.30653   0.31741   0.31857   0.32504

 Mulliken charges:
               1
     1  C   -0.299881
     2  C   -0.299414
     3  C   -0.475593
     4  H    0.159753
     5  H    0.148604
     6  H    0.150879
     7  H    0.149105
     8  H    0.154778
     9  H    0.158053
    10  H    0.157869
    11  C   -0.297680
    12  C   -0.311030
    13  C   -0.475015
    14  H    0.148423
    15  H    0.145771
    16  H    0.175695
    17  H    0.147950
    18  H    0.154125
    19  H    0.155429
    20  H    0.147296
    21  C   -0.170512
    22  C   -0.218548
    23  C   -0.170886
    24  C    0.158220
    25  C   -0.170542
    26  C   -0.219504
    27  H    0.225947
    28  H    0.223691
    29  H    0.275687
    30  H    0.277943
    31  H    0.224144
    32  N    0.489299
    33  O   -0.460882
    34  O   -0.459173
 Sum of Mulliken charges =  -0.00000

 Dipole moment (field-independent basis, Debye):
    X=             -3.6798    Y=              3.1146    Z=             -1.7631  Tot=              5.1332
 Quadrupole moment (field-independent basis, Debye-Ang):
   XX=            -77.0282   YY=            -98.0244   ZZ=            -93.4201
   XY=             -4.4048   XZ=              5.8092   YZ=              3.8535

 Normal termination of Gaussian 16 at Wed May  5 20:22:44 2021.
