 Gaussian 16, Revision A.03,
 Gaussian 16:  EM64L-G16RevA.03 25-Dec-2016

 -------------
 #p 6-31g* mp2
 -------------

 ------------------------------------------------------
 Input file generated by CHIRIPA (05-May-2021 14:51:07)
 ------------------------------------------------------
 Symbolic Z-matrix:
 Charge =  0 Multiplicity = 1

                         Standard orientation:
 ---------------------------------------------------------------------
 Center     Atomic      Atomic             Coordinates (Angstroms)
 Number     Number       Type             X           Y           Z
 ---------------------------------------------------------------------
      1          6           0        2.858540   -0.969123   -0.342212
      2          6           0        1.714328   -1.964802   -0.148850
      3          6           0        1.988199   -3.315811   -0.810336
      4          1           0        3.032205   -0.824122   -1.417275
      5          1           0        3.782652   -1.398908    0.068516
      6          1           0        0.792362   -1.532694   -0.558579
      7          1           0        1.543240   -2.107303    0.925877
      8          1           0        2.892825   -3.771714   -0.395119
      9          1           0        2.137682   -3.193840   -1.888009
     10          1           0        1.157485   -4.012298   -0.659738
     11          6           0        2.599544    0.386168    0.313407
     12          6           0        3.743755    1.381847    0.120046
     13          6           0        3.469884    2.732856    0.781531
     14          1           0        1.675432    0.815953   -0.097321
     15          1           0        2.425878    0.241167    1.388470
     16          1           0        3.914844    1.524348   -0.954681
     17          1           0        4.665721    0.949739    0.529774
     18          1           0        3.320402    2.610885    1.859204
     19          1           0        2.565258    3.188759    0.366314
     20          1           0        4.300598    3.429343    0.630933
     21          6           0       -2.383032    0.877686   -0.332107
     22          6           0       -3.075101    2.219457   -0.089872
     23          6           0       -2.371150    3.382520   -0.789536
     24          1           0       -1.342721    0.940924    0.015309
     25          1           0       -2.340417    0.684880   -1.413034
     26          1           0       -3.117633    2.409024    0.990347
     27          1           0       -4.113941    2.152957   -0.437729
     28          1           0       -2.341460    3.219934   -1.871796
     29          1           0       -1.339491    3.477456   -0.435606
     30          1           0       -2.882540    4.332021   -0.603015
     31          6           0       -3.075052   -0.294731    0.360911
     32          6           0       -2.382983   -1.636501    0.118677
     33          6           0       -3.086933   -2.799565    0.818341
     34          1           0       -3.117666   -0.101925    1.441840
     35          1           0       -4.115363   -0.357969    0.013496
     36          1           0       -1.344143   -1.570001    0.466534
     37          1           0       -2.340451   -1.826069   -0.961542
     38          1           0       -4.118592   -2.894500    0.464411
     39          1           0       -3.116624   -2.636978    1.900601
     40          1           0       -2.575543   -3.749065    0.631820
 ---------------------------------------------------------------------

 SCF Done:  E(RHF) =  -470.733155498     A.U. after   11 cycles
 E2 =    -0.1583561521D+01 EUMP2 =    -0.47231671701885D+03

 The electronic state is 1-A.
 Alpha  occ. eigenvalues --  -11.21626 -11.21616 -11.21567 -11.21526 -11.21429
 Alpha  occ. eigenvalues --  -11.21411 -11.21362 -11.21343 -11.21099 -11.21095
 Alpha  occ. eigenvalues --  -11.21069 -11.21051  -1.08464  -1.08412  -1.03566
 Alpha  occ. eigenvalues --   -1.03499  -0.95999  -0.95970  -0.87021  -0.86982
 Alpha  occ. eigenvalues --   -0.79734  -0.79487  -0.78403  -0.78104  -0.65141
 Alpha  occ. eigenvalues --   -0.64994  -0.60997  -0.60876  -0.59455  -0.59257
 Alpha  occ. eigenvalues --   -0.57685  -0.57503  -0.55301  -0.55242  -0.52704
 Alpha  occ. eigenvalues --   -0.52652  -0.52459  -0.52366  -0.49979  -0.49882
 Alpha  occ. eigenvalues --   -0.48204  -0.47723  -0.46756  -0.46493  -0.46241
 Alpha  occ. eigenvalues --   -0.45778  -0.45711  -0.45150  -0.43804  -0.43761
 Alpha virt. eigenvalues --    0.20930   0.22842   0.23419   0.24497   0.25175
 Alpha virt. eigenvalues --    0.26642   0.26759   0.26949   0.28622   0.29847
 Alpha virt. eigenvalues --    0.30735   0.31234   0.31387   0.31615   0.32349

 Mulliken charges:
               1
     1  C   -0.297472
     2  C   -0.306027
     3  C   -0.475576
     4  H    0.149737
     5  H    0.149435
     6  H    0.159569
     7  H    0.150853
     8  H    0.155081
     9  H    0.155149
    10  H    0.160307
    11  C   -0.301412
    12  C   -0.299514
    13  C   -0.475714
    14  H    0.151711
    15  H    0.149178
    16  H    0.152256
    17  H    0.152161
    18  H    0.155056
    19  H    0.154876
    20  H    0.160542
    21  C   -0.302118
    22  C   -0.299439
    23  C   -0.475703
    24  H    0.152476
    25  H    0.148994
    26  H    0.152231
    27  H    0.152166
    28  H    0.155020
    29  H    0.154686
    30  H    0.160529
    31  C   -0.297556
    32  C   -0.307425
    33  C   -0.475205
    34  H    0.149430
    35  H    0.149462
    36  H    0.161822
    37  H    0.150742
    38  H    0.154934
    39  H    0.154969
    40  H    0.159790
 Sum of Mulliken charges =  -0.00000

 Dipole moment (field-independent basis, Debye):
    X=              0.0126    Y=             -0.0000    Z=             -0.0010  Tot=              0.0127
 Quadrupole moment (field-independent basis, Debye-Ang):
   XX=            -84.4773   YY=            -86.6503   ZZ=            -83.7115
   XY=             -0.4044   XZ=              1.0311   YZ=             -0.1736

 Normal termination of Gaussian 16 at Wed May  5 19:39:18 2021.
