 Gaussian 16, Revision A.03,
 Gaussian 16:  EM64L-G16RevA.03 25-Dec-2016

 -------------
 #p 6-31g* mp2
 -------------

 ------------------------------------------------------
 Input file generated by CHIRIPA (05-May-2021 14:53:14)
 ------------------------------------------------------
 Symbolic Z-matrix:
 Charge =  0 Multiplicity = 1

                         Standard orientation:
 ---------------------------------------------------------------------
 Center     Atomic      Atomic             Coordinates (Angstroms)
 Number     Number       Type             X           Y           Z
 ---------------------------------------------------------------------
      1          6           0        3.678390   -0.338753    0.511267
      2          6           0        4.946804    0.076261   -0.234972
      3          6           0        5.960683    0.779334    0.668096
      4          1           0        3.216630    0.551489    0.959811
      5          1           0        3.951469   -1.002177    1.343548
      6          1           0        4.671280    0.737597   -1.066439
      7          1           0        5.405494   -0.815046   -0.681952
      8          1           0        6.264205    0.123285    1.490334
      9          1           0        5.525819    1.684749    1.103662
     10          1           0        6.859694    1.067317    0.114287
     11          6           0        2.655203   -1.042848   -0.378151
     12          6           0        1.386788   -1.457862    0.368088
     13          6           0        0.372909   -2.160936   -0.534980
     14          1           0        2.382123   -0.379424   -1.210432
     15          1           0        3.116962   -1.933091   -0.826695
     16          1           0        0.928098   -0.566555    0.815068
     17          1           0        1.662312   -2.119198    1.199555
     18          1           0        0.807773   -3.066351   -0.970546
     19          1           0        0.069387   -1.504886   -1.357218
     20          1           0       -0.526102   -2.448919    0.018829
     21          6           0       -4.198407   -1.155666    0.667948
     22          6           0       -3.650464   -1.217116   -0.617550
     23          6           0       -2.694339   -0.283016   -1.027219
     24          6           0       -2.307356    0.703588   -0.121600
     25          6           0       -2.834802    0.791138    1.165810
     26          6           0       -3.789547   -0.153503    1.553964
     27          1           0       -4.940611   -1.885393    0.977832
     28          1           0       -3.966104   -1.994311   -1.307754
     29          1           0       -2.253831   -0.307358   -2.016552
     30          1           0       -2.500301    1.577460    1.831561
     31          1           0       -4.213378   -0.103345    2.552911
     32          7           0       -1.295879    1.698058   -0.543910
     33          8           0       -0.971709    2.557485    0.272751
     34          8           0       -0.846408    1.599267   -1.683582
 ---------------------------------------------------------------------

 SCF Done:  E(RHF) =  -669.535521963     A.U. after   15 cycles
 E2 =    -0.2093241487D+01 EUMP2 =    -0.67162876344990D+03

 The electronic state is 1-A.
 Alpha  occ. eigenvalues --  -20.60909 -20.60899 -15.85941 -11.31218 -11.27811
 Alpha  occ. eigenvalues --  -11.27799 -11.27552 -11.26793 -11.26779 -11.21291
 Alpha  occ. eigenvalues --  -11.21043 -11.20858 -11.20846 -11.20783 -11.20567
 Alpha  occ. eigenvalues --   -1.59970  -1.39527  -1.19410  -1.08817  -1.07933
 Alpha  occ. eigenvalues --   -1.04805  -1.03112  -0.95681  -0.95548  -0.86605
 Alpha  occ. eigenvalues --   -0.86195  -0.82495  -0.79185  -0.77734  -0.77548
 Alpha  occ. eigenvalues --   -0.72161  -0.71298  -0.70531  -0.65065  -0.64814
 Alpha  occ. eigenvalues --   -0.64541  -0.62166  -0.60509  -0.58957  -0.57178
 Alpha  occ. eigenvalues --   -0.55329  -0.54884  -0.53173  -0.52900  -0.52195
 Alpha  occ. eigenvalues --   -0.51977  -0.49505  -0.48920  -0.48908  -0.47499
 Alpha  occ. eigenvalues --   -0.46221  -0.45289  -0.45213  -0.44864  -0.43344
 Alpha  occ. eigenvalues --   -0.37378  -0.36338
 Alpha virt. eigenvalues --    0.04968   0.11207   0.16450   0.21226   0.23206
 Alpha virt. eigenvalues --    0.24520   0.26548   0.27220   0.27850   0.28186
 Alpha virt. eigenvalues --    0.28764   0.30360   0.31546   0.31879   0.32223

 Mulliken charges:
               1
     1  C   -0.299199
     2  C   -0.299980
     3  C   -0.475811
     4  H    0.155255
     5  H    0.145834
     6  H    0.156033
     7  H    0.149369
     8  H    0.152889
     9  H    0.157201
    10  H    0.159077
    11  C   -0.300549
    12  C   -0.299069
    13  C   -0.482201
    14  H    0.160412
    15  H    0.146335
    16  H    0.151407
    17  H    0.149526
    18  H    0.152836
    19  H    0.158097
    20  H    0.157871
    21  C   -0.170800
    22  C   -0.219613
    23  C   -0.166052
    24  C    0.159559
    25  C   -0.171197
    26  C   -0.218933
    27  H    0.225913
    28  H    0.223990
    29  H    0.275485
    30  H    0.275665
    31  H    0.223543
    32  N    0.488985
    33  O   -0.460180
    34  O   -0.461698
 Sum of Mulliken charges =  -0.00000

 Dipole moment (field-independent basis, Debye):
    X=             -3.6453    Y=             -3.3805    Z=              1.4367  Tot=              5.1749
 Quadrupole moment (field-independent basis, Debye-Ang):
   XX=            -79.6528   YY=            -99.1014   ZZ=            -91.4740
   XY=              5.1200   XZ=             -3.8522   YZ=              3.3114

 Normal termination of Gaussian 16 at Thu May  6 18:46:59 2021.
