 Gaussian 16, Revision A.03,
 Gaussian 16:  EM64L-G16RevA.03 25-Dec-2016

 -------------
 #p 6-31g* mp2
 -------------

 ------------------------------------------------------
 Input file generated by CHIRIPA (05-May-2021 14:55:25)
 ------------------------------------------------------
 Symbolic Z-matrix:
 Charge =  0 Multiplicity = 1

                         Standard orientation:
 ---------------------------------------------------------------------
 Center     Atomic      Atomic             Coordinates (Angstroms)
 Number     Number       Type             X           Y           Z
 ---------------------------------------------------------------------
      1          6           0        2.703235   -2.268770   -0.672954
      2          6           0        3.720832   -1.831181    0.181173
      3          6           0        3.889830   -0.468591    0.444490
      4          6           0        3.019336    0.432968   -0.166019
      5          6           0        1.995989    0.028084   -1.021660
      6          6           0        1.845573   -1.339379   -1.270591
      7          1           0        2.579171   -3.329156   -0.871917
      8          1           0        4.388382   -2.550700    0.646700
      9          1           0        4.669246   -0.102385    1.101622
     10          1           0        1.346120    0.769132   -1.471034
     11          1           0        1.054417   -1.676340   -1.934348
     12          7           0        3.188410    1.878060    0.105128
     13          8           0        2.408351    2.652245   -0.445130
     14          8           0        4.097787    2.209176    0.862777
     15          6           0       -3.300635   -0.787073    0.147138
     16          6           0       -2.142394   -0.737399    1.144131
     17          6           0       -1.093331   -1.819337    0.885930
     18          1           0       -3.774005   -1.777371    0.193787
     19          1           0       -2.903335   -0.678216   -0.871536
     20          1           0       -2.541904   -0.844930    2.160716
     21          1           0       -1.671848    0.252961    1.095240
     22          1           0       -0.667285   -1.711355   -0.116779
     23          1           0       -1.542284   -2.815484    0.954751
     24          1           0       -0.274453   -1.765506    1.610086
     25          6           0       -4.357528    0.288388    0.392272
     26          6           0       -5.515769    0.238714   -0.604720
     27          6           0       -6.564832    1.320652   -0.346520
     28          1           0       -4.754828    0.179531    1.410947
     29          1           0       -3.884159    1.278686    0.345623
     30          1           0       -5.986315   -0.751646   -0.555830
     31          1           0       -5.116259    0.346245   -1.621306
     32          1           0       -6.115880    2.316799   -0.415340
     33          1           0       -6.990880    1.212670    0.656190
     34          1           0       -7.383710    1.266822   -1.070675
 ---------------------------------------------------------------------

 SCF Done:  E(RHF) =  -669.534418762     A.U. after   15 cycles
 E2 =    -0.2092381525D+01 EUMP2 =    -0.67162680028737D+03

 The electronic state is 1-A.
 Alpha  occ. eigenvalues --  -20.60789 -20.60783 -15.85842 -11.31211 -11.27765
 Alpha  occ. eigenvalues --  -11.27760 -11.27496 -11.26795 -11.26784 -11.21826
 Alpha  occ. eigenvalues --  -11.21740 -11.21660 -11.21515 -11.21375 -11.21143
 Alpha  occ. eigenvalues --   -1.59864  -1.39417  -1.19381  -1.08777  -1.08632
 Alpha  occ. eigenvalues --   -1.04797  -1.03726  -0.96189  -0.95606  -0.87217
 Alpha  occ. eigenvalues --   -0.86183  -0.82448  -0.79796  -0.78446  -0.77495
 Alpha  occ. eigenvalues --   -0.72060  -0.71186  -0.70476  -0.65284  -0.65033
 Alpha  occ. eigenvalues --   -0.64810  -0.62169  -0.61124  -0.59549  -0.57792
 Alpha  occ. eigenvalues --   -0.55569  -0.55264  -0.53253  -0.52928  -0.52745
 Alpha  occ. eigenvalues --   -0.52542  -0.50103  -0.48820  -0.48815  -0.48111
 Alpha  occ. eigenvalues --   -0.46826  -0.45989  -0.45910  -0.44822  -0.43981
 Alpha  occ. eigenvalues --   -0.37327  -0.36312
 Alpha virt. eigenvalues --    0.05031   0.11210   0.16449   0.20798   0.22780
 Alpha virt. eigenvalues --    0.24126   0.25956   0.26914   0.27496   0.28300
 Alpha virt. eigenvalues --    0.28424   0.30390   0.31477   0.31749   0.32235

 Mulliken charges:
               1
     1  C   -0.170147
     2  C   -0.218753
     3  C   -0.171324
     4  C    0.158691
     5  C   -0.170533
     6  C   -0.215057
     7  H    0.226118
     8  H    0.223593
     9  H    0.275580
    10  H    0.275093
    11  H    0.223214
    12  N    0.488070
    13  O   -0.460666
    14  O   -0.460263
    15  C   -0.297382
    16  C   -0.301099
    17  C   -0.475128
    18  H    0.149043
    19  H    0.144624
    20  H    0.153590
    21  H    0.155539
    22  H    0.148718
    23  H    0.152006
    24  H    0.162979
    25  C   -0.298933
    26  C   -0.299637
    27  C   -0.475985
    28  H    0.150565
    29  H    0.152447
    30  H    0.151268
    31  H    0.151059
    32  H    0.156760
    33  H    0.155608
    34  H    0.160345
 Sum of Mulliken charges =  -0.00000

 Dipole moment (field-independent basis, Debye):
    X=             -0.5840    Y=             -5.0659    Z=             -0.9111  Tot=              5.1802
 Quadrupole moment (field-independent basis, Debye-Ang):
   XX=            -95.9809   YY=            -99.7807   ZZ=            -92.8017
   XY=            -16.0741   XZ=             -0.4741   YZ=             -0.6651

 Normal termination of Gaussian 16 at Wed May  5 20:48:31 2021.
