 Gaussian 16, Revision A.03,
 Gaussian 16:  EM64L-G16RevA.03 25-Dec-2016

 -------------
 #p 6-31g* mp2
 -------------

 ------------------------------------------------------
 Input file generated by CHIRIPA (05-May-2021 14:51:09)
 ------------------------------------------------------
 Symbolic Z-matrix:
 Charge =  0 Multiplicity = 1

                         Standard orientation:
 ---------------------------------------------------------------------
 Center     Atomic      Atomic             Coordinates (Angstroms)
 Number     Number       Type             X           Y           Z
 ---------------------------------------------------------------------
      1          6           0        3.015386   -0.042106    0.438243
      2          6           0        1.993914   -1.139317    0.137069
      3          6           0        0.635979   -0.877988    0.789384
      4          1           0        3.140349    0.045059    1.526237
      5          1           0        2.620194    0.922496    0.090735
      6          1           0        2.391508   -2.101771    0.483793
      7          1           0        1.871511   -1.224011   -0.950341
      8          1           0        0.214262    0.068282    0.435364
      9          1           0        0.737214   -0.814465    1.877647
     10          1           0       -0.079018   -1.674557    0.561093
     11          6           0        4.377866   -0.289179   -0.206994
     12          6           0        5.399339    0.808032    0.094180
     13          6           0        6.757274    0.546702   -0.558135
     14          1           0        4.773059   -1.253781    0.140514
     15          1           0        4.252904   -0.376344   -1.294988
     16          1           0        5.521742    0.892726    1.181590
     17          1           0        5.001744    1.770485   -0.252544
     18          1           0        6.656038    0.483179   -1.646398
     19          1           0        7.178990   -0.399567   -0.204115
     20          1           0        7.472270    1.343272   -0.329844
     21          6           0       -3.333037    0.837118   -0.096756
     22          6           0       -4.278611    2.037160   -0.035308
     23          6           0       -3.536329    3.373358    0.001914
     24          1           0       -2.662662    0.861674    0.773267
     25          1           0       -2.694240    0.927658   -0.986213
     26          1           0       -4.916380    1.943676    0.853020
     27          1           0       -4.946940    2.009639   -0.905477
     28          1           0       -2.913045    3.492782   -0.890194
     29          1           0       -2.882311    3.426445    0.878295
     30          1           0       -4.231395    4.217650    0.045663
     31          6           0       -4.060215   -0.505833   -0.134494
     32          6           0       -3.114642   -1.705874   -0.195941
     33          6           0       -3.856924   -3.042073   -0.233162
     34          1           0       -4.699012   -0.596373    0.754964
     35          1           0       -4.730590   -0.530389   -1.004516
     36          1           0       -2.446313   -1.678353    0.674228
     37          1           0       -2.476873   -1.612391   -1.084269
     38          1           0       -4.510941   -3.095159   -1.109545
     39          1           0       -4.480207   -3.161497    0.658945
     40          1           0       -3.161858   -3.886364   -0.276912
 ---------------------------------------------------------------------

 SCF Done:  E(RHF) =  -470.732873230     A.U. after   11 cycles
 E2 =    -0.1582944726D+01 EUMP2 =    -0.47231581795677D+03

 The electronic state is 1-A.
 Alpha  occ. eigenvalues --  -11.21585 -11.21585 -11.21554 -11.21530 -11.21377
 Alpha  occ. eigenvalues --  -11.21374 -11.21317 -11.21315 -11.21066 -11.21059
 Alpha  occ. eigenvalues --  -11.21050 -11.20952  -1.08417  -1.08387  -1.03529
 Alpha  occ. eigenvalues --   -1.03474  -0.95962  -0.95942  -0.87007  -0.86936
 Alpha  occ. eigenvalues --   -0.79662  -0.79491  -0.78259  -0.78162  -0.65038
 Alpha  occ. eigenvalues --   -0.65027  -0.60919  -0.60889  -0.59502  -0.59168
 Alpha  occ. eigenvalues --   -0.57675  -0.57448  -0.55257  -0.55219  -0.52778
 Alpha  occ. eigenvalues --   -0.52585  -0.52423  -0.52296  -0.49911  -0.49876
 Alpha  occ. eigenvalues --   -0.48015  -0.47729  -0.46621  -0.46594  -0.45823
 Alpha  occ. eigenvalues --   -0.45732  -0.45681  -0.45615  -0.43789  -0.43629
 Alpha virt. eigenvalues --    0.22214   0.23021   0.23820   0.24466   0.25765
 Alpha virt. eigenvalues --    0.26547   0.26921   0.27224   0.27857   0.29353
 Alpha virt. eigenvalues --    0.30150   0.31375   0.31533   0.31824   0.32122

 Mulliken charges:
               1
     1  C   -0.298506
     2  C   -0.299728
     3  C   -0.481732
     4  H    0.149436
     5  H    0.149509
     6  H    0.151480
     7  H    0.151574
     8  H    0.157485
     9  H    0.153447
    10  H    0.166588
    11  C   -0.298188
    12  C   -0.299593
    13  C   -0.475674
    14  H    0.149425
    15  H    0.149515
    16  H    0.151879
    17  H    0.151916
    18  H    0.155128
    19  H    0.155138
    20  H    0.160196
    21  C   -0.299997
    22  C   -0.299602
    23  C   -0.475740
    24  H    0.152339
    25  H    0.149106
    26  H    0.151931
    27  H    0.151840
    28  H    0.154839
    29  H    0.155243
    30  H    0.160257
    31  C   -0.297956
    32  C   -0.304324
    33  C   -0.475711
    34  H    0.149290
    35  H    0.149281
    36  H    0.158212
    37  H    0.151862
    38  H    0.155054
    39  H    0.155092
    40  H    0.159690
 Sum of Mulliken charges =  -0.00000

 Dipole moment (field-independent basis, Debye):
    X=             -0.0213    Y=             -0.0030    Z=              0.0090  Tot=              0.0233
 Quadrupole moment (field-independent basis, Debye-Ang):
   XX=            -86.0886   YY=            -85.6785   ZZ=            -83.1976
   XY=             -0.5195   XZ=              0.6217   YZ=             -0.5400

 Normal termination of Gaussian 16 at Thu May  6 02:09:42 2021.
