 Gaussian 16, Revision A.03,
 Gaussian 16:  EM64L-G16RevA.03 25-Dec-2016

 -------------
 #p 6-31g* mp2
 -------------

 ------------------------------------------------------
 Input file generated by CHIRIPA (05-May-2021 14:53:16)
 ------------------------------------------------------
 Symbolic Z-matrix:
 Charge =  0 Multiplicity = 1

                         Standard orientation:
 ---------------------------------------------------------------------
 Center     Atomic      Atomic             Coordinates (Angstroms)
 Number     Number       Type             X           Y           Z
 ---------------------------------------------------------------------
      1          6           0        3.888476   -0.394478    0.093947
      2          6           0        2.883408    0.025013    1.167190
      3          6           0        1.452235   -0.397833    0.834417
      4          1           0        3.590273    0.041822   -0.869206
      5          1           0        3.847106   -1.485394   -0.030892
      6          1           0        2.927647    1.114666    1.290947
      7          1           0        3.184145   -0.412179    2.127938
      8          1           0        1.386132   -1.485743    0.731054
      9          1           0        1.128177    0.049777   -0.110693
     10          1           0        0.750300   -0.087923    1.614867
     11          6           0        5.323604    0.021158    0.412354
     12          6           0        6.328671   -0.398333   -0.660889
     13          6           0        7.759844    0.024514   -0.328116
     14          1           0        5.364973    1.112075    0.537193
     15          1           0        5.621806   -0.415141    1.375507
     16          1           0        6.027935    0.038859   -1.621637
     17          1           0        6.284432   -1.487986   -0.784646
     18          1           0        8.083903   -0.423097    0.616993
     19          1           0        7.825947    1.112423   -0.224753
     20          1           0        8.461780   -0.285397   -1.108566
     21          6           0       -1.533054    1.505104   -0.700122
     22          6           0       -2.622304    2.099470   -0.054530
     23          6           0       -3.771834    1.355942    0.228829
     24          6           0       -3.798146    0.014418   -0.149208
     25          6           0       -2.729158   -0.606275   -0.793643
     26          6           0       -1.589858    0.156507   -1.066971
     27          1           0       -0.644046    2.090174   -0.916346
     28          1           0       -2.580990    3.146613    0.231528
     29          1           0       -4.629440    1.790921    0.727550
     30          1           0       -2.799854   -1.652183   -1.066584
     31          1           0       -0.745437   -0.307722   -1.568458
     32          7           0       -5.009686   -0.782913    0.145462
     33          8           0       -5.007949   -1.963055   -0.197905
     34          8           0       -5.938088   -0.212623    0.714211
 ---------------------------------------------------------------------

 SCF Done:  E(RHF) =  -669.534282646     A.U. after   15 cycles
 E2 =    -0.2092065037D+01 EUMP2 =    -0.67162634768314D+03

 The electronic state is 1-A.
 Alpha  occ. eigenvalues --  -20.60726 -20.60721 -15.85779 -11.31137 -11.27704
 Alpha  occ. eigenvalues --  -11.27684 -11.27444 -11.26730 -11.26689 -11.22272
 Alpha  occ. eigenvalues --  -11.22065 -11.22036 -11.21897 -11.21852 -11.21460
 Alpha  occ. eigenvalues --   -1.59802  -1.39355  -1.19311  -1.09024  -1.08712
 Alpha  occ. eigenvalues --   -1.04718  -1.04115  -0.96580  -0.95544  -0.87610
 Alpha  occ. eigenvalues --   -0.86111  -0.82376  -0.80191  -0.78827  -0.77422
 Alpha  occ. eigenvalues --   -0.71999  -0.71125  -0.70431  -0.65672  -0.64968
 Alpha  occ. eigenvalues --   -0.64750  -0.62107  -0.61491  -0.59931  -0.58171
 Alpha  occ. eigenvalues --   -0.55895  -0.55223  -0.53430  -0.53106  -0.52889
 Alpha  occ. eigenvalues --   -0.52678  -0.50511  -0.48766  -0.48753  -0.48481
 Alpha  occ. eigenvalues --   -0.47222  -0.46369  -0.46288  -0.44763  -0.44360
 Alpha  occ. eigenvalues --   -0.37246  -0.36284
 Alpha virt. eigenvalues --    0.05101   0.11283   0.16569   0.20414   0.22488
 Alpha virt. eigenvalues --    0.23916   0.25779   0.26348   0.27119   0.27908
 Alpha virt. eigenvalues --    0.28704   0.30643   0.31031   0.31457   0.31731

 Mulliken charges:
               1
     1  C   -0.298163
     2  C   -0.300809
     3  C   -0.474081
     4  H    0.145400
     5  H    0.151041
     6  H    0.150251
     7  H    0.155537
     8  H    0.156916
     9  H    0.142407
    10  H    0.166315
    11  C   -0.298437
    12  C   -0.299937
    13  C   -0.475980
    14  H    0.149309
    15  H    0.151556
    16  H    0.151149
    17  H    0.152862
    18  H    0.156227
    19  H    0.155275
    20  H    0.161430
    21  C   -0.168832
    22  C   -0.219395
    23  C   -0.171343
    24  C    0.158338
    25  C   -0.173088
    26  C   -0.213852
    27  H    0.224683
    28  H    0.223092
    29  H    0.275334
    30  H    0.275419
    31  H    0.224442
    32  N    0.488081
    33  O   -0.460502
    34  O   -0.460646
 Sum of Mulliken charges =  -0.00000

 Dipole moment (field-independent basis, Debye):
    X=              4.3832    Y=              2.7723    Z=             -0.9688  Tot=              5.2761
 Quadrupole moment (field-independent basis, Debye-Ang):
   XX=           -127.7475   YY=            -90.9524   ZZ=            -94.0024
   XY=            -13.1356   XZ=              2.3946   YZ=              1.0205

 Normal termination of Gaussian 16 at Thu May  6 12:14:05 2021.
