 Gaussian 16, Revision A.03,
 Gaussian 16:  EM64L-G16RevA.03 25-Dec-2016

 -------------
 #p 6-31g* mp2
 -------------

 ------------------------------------------------------
 Input file generated by CHIRIPA (05-May-2021 14:51:11)
 ------------------------------------------------------
 Symbolic Z-matrix:
 Charge =  0 Multiplicity = 1

                         Standard orientation:
 ---------------------------------------------------------------------
 Center     Atomic      Atomic             Coordinates (Angstroms)
 Number     Number       Type             X           Y           Z
 ---------------------------------------------------------------------
      1          6           0        2.257693    0.450143   -0.768672
      2          6           0        3.278398   -0.661097   -0.521099
      3          6           0        3.565475   -1.489850   -1.773516
      4          1           0        1.323421    0.005516   -1.137979
      5          1           0        2.628179    1.107453   -1.567470
      6          1           0        2.906732   -1.315317    0.277949
      7          1           0        4.210285   -0.213791   -0.152156
      8          1           0        3.959959   -0.855006   -2.573489
      9          1           0        2.649000   -1.962791   -2.140940
     10          1           0        4.297698   -2.278449   -1.573963
     11          6           0        1.960243    1.287375    0.474024
     12          6           0        0.939538    2.398615    0.226450
     13          6           0        0.652460    3.227367    1.478868
     14          1           0        1.589756    0.630065    1.272822
     15          1           0        2.894515    1.732001    0.843331
     16          1           0        0.007650    1.951309   -0.142492
     17          1           0        1.311203    3.052835   -0.572597
     18          1           0        1.568936    3.700309    1.846292
     19          1           0        0.257976    2.592524    2.278841
     20          1           0       -0.079763    4.015966    1.279315
     21          6           0       -2.798493   -0.546470    0.083154
     22          6           0       -3.001232    0.193524   -1.239453
     23          6           0       -4.385455    0.832932   -1.352944
     24          1           0       -3.571118   -1.320835    0.184905
     25          1           0       -2.948334    0.155774    0.914896
     26          1           0       -2.849692   -0.509586   -2.068482
     27          1           0       -2.227918    0.966091   -1.338157
     28          1           0       -4.543382    1.555509   -0.545762
     29          1           0       -5.168690    0.071448   -1.280237
     30          1           0       -4.508857    1.356620   -2.306035
     31          6           0       -1.419443   -1.191047    0.211494
     32          6           0       -1.216703   -1.931042    1.534101
     33          6           0        0.167519   -2.570450    1.647592
     34          1           0       -1.269602   -1.893292   -0.620249
     35          1           0       -0.646817   -0.416683    0.109743
     36          1           0       -1.990018   -2.703608    1.632804
     37          1           0       -1.368244   -1.227931    2.363129
     38          1           0        0.950754   -1.808965    1.574885
     39          1           0        0.325446   -3.293027    0.840410
     40          1           0        0.290922   -3.094138    2.600683
 ---------------------------------------------------------------------

 SCF Done:  E(RHF) =  -470.731682751     A.U. after   11 cycles
 E2 =    -0.1586538372D+01 EUMP2 =    -0.47231822112227D+03

 The electronic state is 1-A.
 Alpha  occ. eigenvalues --  -11.21675 -11.21674 -11.21656 -11.21541 -11.21450
 Alpha  occ. eigenvalues --  -11.21443 -11.21388 -11.21326 -11.21142 -11.21132
 Alpha  occ. eigenvalues --  -11.21104 -11.21030  -1.08575  -1.08394  -1.03602
 Alpha  occ. eigenvalues --   -1.03542  -0.96048  -0.95999  -0.87071  -0.87011
 Alpha  occ. eigenvalues --   -0.79668  -0.79619  -0.78426  -0.78196  -0.65672
 Alpha  occ. eigenvalues --   -0.64643  -0.61044  -0.60915  -0.59399  -0.59367
 Alpha  occ. eigenvalues --   -0.57697  -0.57580  -0.55356  -0.55300  -0.52743
 Alpha  occ. eigenvalues --   -0.52708  -0.52510  -0.52379  -0.50043  -0.49938
 Alpha  occ. eigenvalues --   -0.48104  -0.47836  -0.46753  -0.46734  -0.46377
 Alpha  occ. eigenvalues --   -0.45790  -0.45577  -0.45067  -0.43841  -0.43794
 Alpha virt. eigenvalues --    0.19602   0.21944   0.24128   0.24371   0.25286
 Alpha virt. eigenvalues --    0.25862   0.27193   0.27562   0.28842   0.30057
 Alpha virt. eigenvalues --    0.30826   0.31459   0.31764   0.31987   0.32503

 Mulliken charges:
               1
     1  C   -0.303083
     2  C   -0.304659
     3  C   -0.475433
     4  H    0.154407
     5  H    0.149911
     6  H    0.157501
     7  H    0.151556
     8  H    0.154883
     9  H    0.155375
    10  H    0.160152
    11  C   -0.304200
    12  C   -0.307004
    13  C   -0.475371
    14  H    0.151852
    15  H    0.151311
    16  H    0.157040
    17  H    0.152923
    18  H    0.155781
    19  H    0.154688
    20  H    0.160397
    21  C   -0.297163
    22  C   -0.304437
    23  C   -0.475545
    24  H    0.150019
    25  H    0.149463
    26  H    0.152149
    27  H    0.155273
    28  H    0.155384
    29  H    0.155376
    30  H    0.160519
    31  C   -0.310725
    32  C   -0.298562
    33  C   -0.484894
    34  H    0.148889
    35  H    0.162845
    36  H    0.152478
    37  H    0.151346
    38  H    0.163040
    39  H    0.155524
    40  H    0.160993
 Sum of Mulliken charges =  -0.00000

 Dipole moment (field-independent basis, Debye):
    X=             -0.0090    Y=             -0.0011    Z=             -0.0020  Tot=              0.0093
 Quadrupole moment (field-independent basis, Debye-Ang):
   XX=            -85.1147   YY=            -84.3490   ZZ=            -85.2755
   XY=              1.4994   XZ=              0.0490   YZ=             -0.2431

 Normal termination of Gaussian 16 at Wed May  5 16:44:41 2021.
