 Gaussian 16, Revision A.03,
 Gaussian 16:  EM64L-G16RevA.03 25-Dec-2016

 -------------
 #p 6-31g* mp2
 -------------

 ------------------------------------------------------
 Input file generated by CHIRIPA (05-May-2021 14:53:17)
 ------------------------------------------------------
 Symbolic Z-matrix:
 Charge =  0 Multiplicity = 1

                         Standard orientation:
 ---------------------------------------------------------------------
 Center     Atomic      Atomic             Coordinates (Angstroms)
 Number     Number       Type             X           Y           Z
 ---------------------------------------------------------------------
      1          6           0       -4.006409   -0.327916   -0.181489
      2          6           0       -3.262131   -1.563691   -0.688337
      3          6           0       -4.185180   -2.763978   -0.900668
      4          1           0       -4.513027   -0.574063    0.761748
      5          1           0       -4.794624   -0.062953   -0.899755
      6          1           0       -2.474654   -1.825421    0.029989
      7          1           0       -2.757069   -1.314519   -1.630378
      8          1           0       -4.963239   -2.526740   -1.633433
      9          1           0       -4.679219   -3.040545    0.036369
     10          1           0       -3.632456   -3.636328   -1.263107
     11          6           0       -3.097095    0.880282    0.035612
     12          6           0       -3.841373    2.116057    0.542461
     13          6           0       -2.918323    3.316344    0.754791
     14          1           0       -2.308880    0.615319    0.753879
     15          1           0       -2.590477    1.126429   -0.907624
     16          1           0       -4.346435    1.866885    1.484502
     17          1           0       -4.628850    2.377787   -0.175866
     18          1           0       -2.424284    3.592911   -0.182245
     19          1           0       -2.140265    3.079106    1.487556
     20          1           0       -3.471048    4.188693    1.117231
     21          6           0        1.355891   -2.094483    0.964196
     22          6           0        0.749464   -0.934291    0.471527
     23          6           0        1.525753    0.113008   -0.033534
     24          6           0        2.911981   -0.034140   -0.030723
     25          6           0        3.545753   -1.177581    0.453187
     26          6           0        2.749643   -2.212217    0.953472
     27          1           0        0.745152   -2.903132    1.354684
     28          1           0       -0.332720   -0.840096    0.478607
     29          1           0        1.082371    1.022209   -0.421072
     30          1           0        4.626868   -1.242390    0.432978
     31          1           0        3.223338   -3.112082    1.335443
     32          7           0        3.744296    1.067885   -0.562880
     33          8           0        4.963589    0.913689   -0.549301
     34          8           0        3.161611    2.064983   -0.983489
 ---------------------------------------------------------------------

 SCF Done:  E(RHF) =  -669.535241416     A.U. after   15 cycles
 E2 =    -0.2092099820D+01 EUMP2 =    -0.67162734123650D+03

 The electronic state is 1-A.
 Alpha  occ. eigenvalues --  -20.60692 -20.60687 -15.85743 -11.31089 -11.27660
 Alpha  occ. eigenvalues --  -11.27629 -11.27390 -11.26680 -11.26579 -11.22652
 Alpha  occ. eigenvalues --  -11.22356 -11.22244 -11.22220 -11.21892 -11.21518
 Alpha  occ. eigenvalues --   -1.59767  -1.39321  -1.19255  -1.09305  -1.08656
 Alpha  occ. eigenvalues --   -1.04651  -1.04300  -0.96727  -0.95496  -0.87741
 Alpha  occ. eigenvalues --   -0.86060  -0.82331  -0.80391  -0.79169  -0.77362
 Alpha  occ. eigenvalues --   -0.71962  -0.71090  -0.70371  -0.65986  -0.64905
 Alpha  occ. eigenvalues --   -0.64629  -0.62019  -0.61678  -0.60108  -0.58350
 Alpha  occ. eigenvalues --   -0.56002  -0.55166  -0.53414  -0.53154  -0.52984
 Alpha  occ. eigenvalues --   -0.52755  -0.50670  -0.48758  -0.48718  -0.48657
 Alpha  occ. eigenvalues --   -0.47425  -0.46607  -0.46558  -0.44731  -0.44579
 Alpha  occ. eigenvalues --   -0.37242  -0.36251
 Alpha virt. eigenvalues --    0.05148   0.11368   0.16621   0.19563   0.22699
 Alpha virt. eigenvalues --    0.23327   0.24781   0.25851   0.27117   0.27916
 Alpha virt. eigenvalues --    0.29594   0.30766   0.31078   0.31283   0.31725

 Mulliken charges:
               1
     1  C   -0.298507
     2  C   -0.303120
     3  C   -0.475778
     4  H    0.151569
     5  H    0.154533
     6  H    0.141406
     7  H    0.155948
     8  H    0.159438
     9  H    0.156415
    10  H    0.161411
    11  C   -0.304592
    12  C   -0.299599
    13  C   -0.477385
    14  H    0.143277
    15  H    0.151579
    16  H    0.153408
    17  H    0.155183
    18  H    0.158062
    19  H    0.155296
    20  H    0.163812
    21  C   -0.173739
    22  C   -0.228601
    23  C   -0.174894
    24  C    0.159071
    25  C   -0.171546
    26  C   -0.218438
    27  H    0.224863
    28  H    0.240182
    29  H    0.276128
    30  H    0.275174
    31  H    0.222867
    32  N    0.488005
    33  O   -0.460881
    34  O   -0.460546
 Sum of Mulliken charges =  -0.00000

 Dipole moment (field-independent basis, Debye):
    X=             -3.2135    Y=             -3.8013    Z=              1.8088  Tot=              5.2961
 Quadrupole moment (field-independent basis, Debye-Ang):
   XX=           -107.9227   YY=            -93.9939   ZZ=            -94.5354
   XY=            -14.4998   XZ=              6.8078   YZ=             -0.9571

 Normal termination of Gaussian 16 at Wed May  5 17:15:45 2021.
