 Gaussian 16, Revision A.03,
 Gaussian 16:  EM64L-G16RevA.03 25-Dec-2016

 -------------
 #p 6-31g* mp2
 -------------

 ------------------------------------------------------
 Input file generated by CHIRIPA (05-May-2021 14:55:24)
 ------------------------------------------------------
 Symbolic Z-matrix:
 Charge =  0 Multiplicity = 1

                         Standard orientation:
 ---------------------------------------------------------------------
 Center     Atomic      Atomic             Coordinates (Angstroms)
 Number     Number       Type             X           Y           Z
 ---------------------------------------------------------------------
      1          6           0       -2.448398    1.598300    1.880643
      2          6           0       -1.577397    0.514525    2.033321
      3          6           0       -1.380718   -0.391222    0.986666
      4          6           0       -2.074346   -0.181983   -0.204296
      5          6           0       -2.948849    0.888123   -0.387072
      6          6           0       -3.130143    1.781317    0.673062
      7          1           0       -2.595208    2.297030    2.698945
      8          1           0       -1.046615    0.369904    2.970017
      9          1           0       -0.712333   -1.238790    1.077811
     10          1           0       -3.463936    1.006078   -1.332689
     11          1           0       -3.807193    2.622095    0.551654
     12          7           0       -1.874274   -1.134212   -1.319478
     13          8           0       -2.497201   -0.927743   -2.358694
     14          8           0       -1.098320   -2.069007   -1.133225
     15          6           0        3.164321    0.616651   -0.127503
     16          6           0        2.444412    1.827668   -0.721771
     17          6           0        3.391897    2.989026   -1.023955
     18          1           0        3.679937    0.920329    0.793836
     19          1           0        3.943759    0.282852   -0.826394
     20          1           0        1.665643    2.158233   -0.022585
     21          1           0        1.930291    1.521029   -1.641700
     22          1           0        4.161710    2.682026   -1.739313
     23          1           0        3.895558    3.322850   -0.110999
     24          1           0        2.856362    3.844146   -1.448023
     25          6           0        2.230419   -0.552539    0.179984
     26          6           0        2.950327   -1.763556    0.774252
     27          6           0        2.002842   -2.924914    1.076436
     28          1           0        1.450980   -0.218740    0.878874
     29          1           0        1.714802   -0.856217   -0.741355
     30          1           0        3.464448   -1.456917    1.694180
     31          1           0        3.729096   -2.094121    0.075066
     32          1           0        1.499181   -3.258737    0.163480
     33          1           0        1.233028   -2.617913    1.791795
     34          1           0        2.538377   -3.780033    1.500503
 ---------------------------------------------------------------------

 SCF Done:  E(RHF) =  -669.534745261     A.U. after   15 cycles
 E2 =    -0.2094493591D+01 EUMP2 =    -0.67162923885207D+03

 The electronic state is 1-A.
 Alpha  occ. eigenvalues --  -20.60866 -20.60859 -15.85894 -11.31170 -11.27780
 Alpha  occ. eigenvalues --  -11.27707 -11.27523 -11.26763 -11.26754 -11.21535
 Alpha  occ. eigenvalues --  -11.21460 -11.21286 -11.21159 -11.21049 -11.20886
 Alpha  occ. eigenvalues --   -1.59923  -1.39480  -1.19370  -1.08777  -1.08326
 Alpha  occ. eigenvalues --   -1.04773  -1.03433  -0.95876  -0.95625  -0.86895
 Alpha  occ. eigenvalues --   -0.86171  -0.82464  -0.79509  -0.78258  -0.77416
 Alpha  occ. eigenvalues --   -0.72120  -0.71231  -0.70498  -0.65107  -0.64939
 Alpha  occ. eigenvalues --   -0.64732  -0.62153  -0.60806  -0.59232  -0.57502
 Alpha  occ. eigenvalues --   -0.55286  -0.55173  -0.53136  -0.52879  -0.52560
 Alpha  occ. eigenvalues --   -0.52295  -0.49820  -0.48904  -0.48872  -0.47780
 Alpha  occ. eigenvalues --   -0.46514  -0.45729  -0.45619  -0.44741  -0.43673
 Alpha  occ. eigenvalues --   -0.37349  -0.36295
 Alpha virt. eigenvalues --    0.04983   0.11277   0.16373   0.20484   0.23116
 Alpha virt. eigenvalues --    0.23958   0.26157   0.27006   0.27606   0.27961
 Alpha virt. eigenvalues --    0.29597   0.31076   0.31510   0.31855   0.32187

 Mulliken charges:
               1
     1  C   -0.169751
     2  C   -0.223844
     3  C   -0.172066
     4  C    0.154703
     5  C   -0.169727
     6  C   -0.219452
     7  H    0.225680
     8  H    0.223219
     9  H    0.290040
    10  H    0.275488
    11  H    0.223380
    12  N    0.488996
    13  O   -0.459662
    14  O   -0.462317
    15  C   -0.297230
    16  C   -0.300485
    17  C   -0.475454
    18  H    0.146391
    19  H    0.151290
    20  H    0.149393
    21  H    0.155002
    22  H    0.156528
    23  H    0.153427
    24  H    0.159327
    25  C   -0.307285
    26  C   -0.298888
    27  C   -0.481758
    28  H    0.139681
    29  H    0.165474
    30  H    0.147511
    31  H    0.154499
    32  H    0.178512
    33  H    0.138876
    34  H    0.160505
 Sum of Mulliken charges =  -0.00000

 Dipole moment (field-independent basis, Debye):
    X=             -0.7552    Y=              3.2335    Z=              3.7211  Tot=              4.9872
 Quadrupole moment (field-independent basis, Debye-Ang):
   XX=            -90.6621   YY=            -95.6544   ZZ=            -94.6566
   XY=             -9.7409   XZ=             -6.4027   YZ=             -2.1243

 Normal termination of Gaussian 16 at Wed May  5 19:07:28 2021.
