 Gaussian 16, Revision A.03,
 Gaussian 16:  EM64L-G16RevA.03 25-Dec-2016

 -------------
 #p 6-31g* mp2
 -------------

 ------------------------------------------------------
 Input file generated by CHIRIPA (05-May-2021 14:57:26)
 ------------------------------------------------------
 Symbolic Z-matrix:
 Charge =  0 Multiplicity = 1

                         Standard orientation:
 ---------------------------------------------------------------------
 Center     Atomic      Atomic             Coordinates (Angstroms)
 Number     Number       Type             X           Y           Z
 ---------------------------------------------------------------------
      1          6           0       -2.183542    2.380999   -0.849201
      2          6           0       -1.271479    1.934300    0.112631
      3          6           0       -1.362798    0.638748    0.630080
      4          6           0       -2.383165   -0.187212    0.161111
      5          6           0       -3.307003    0.228703   -0.796400
      6          6           0       -3.196608    1.528278   -1.299852
      7          1           0       -2.105194    3.388978   -1.245731
      8          1           0       -0.483699    2.594349    0.464460
      9          1           0       -0.670056    0.267213    1.375391
     10          1           0       -4.081556   -0.452293   -1.127655
     11          1           0       -3.906327    1.872496   -2.046751
     12          7           0       -2.489938   -1.560885    0.701502
     13          8           0       -3.397953   -2.269116    0.271906
     14          8           0       -1.663589   -1.903328    1.544424
     15          6           0        2.202566    2.030821    1.361279
     16          6           0        2.224555    2.144549   -0.032674
     17          6           0        2.314640    1.004408   -0.836731
     18          6           0        2.381326   -0.239306   -0.210617
     19          6           0        2.361571   -0.385286    1.175597
     20          6           0        2.271023    0.768491    1.959910
     21          1           0        2.132406    2.921807    1.978222
     22          1           0        2.171530    3.123599   -0.500324
     23          1           0        2.333562    1.063626   -1.918190
     24          1           0        2.415909   -1.374871    1.612846
     25          1           0        2.254146    0.677147    3.042230
     26          7           0        2.476939   -1.453542   -1.051386
     27          8           0        2.534438   -2.537755   -0.475355
     28          8           0        2.492573   -1.298053   -2.270489
 ---------------------------------------------------------------------

 SCF Done:  E(RHF) =  -868.335072065     A.U. after   16 cycles
 E2 =    -0.2605381138D+01 EUMP2 =    -0.87094045320274D+03

 The electronic state is 1-A.
 Alpha  occ. eigenvalues --  -20.60991 -20.60948 -20.60685 -20.60669 -15.86037
 Alpha  occ. eigenvalues --  -15.85732 -11.31743 -11.31128 -11.28377 -11.28293
 Alpha  occ. eigenvalues --  -11.28229 -11.27685 -11.27626 -11.27502 -11.27488
 Alpha  occ. eigenvalues --  -11.27435 -11.26751 -11.26670  -1.60040  -1.59746
 Alpha  occ. eigenvalues --   -1.39581  -1.39302  -1.20011  -1.19301  -1.09354
 Alpha  occ. eigenvalues --   -1.08713  -1.05435  -1.04708  -0.96097  -0.95539
 Alpha  occ. eigenvalues --   -0.86824  -0.86116  -0.82905  -0.82373  -0.77871
 Alpha  occ. eigenvalues --   -0.77416  -0.72252  -0.71957  -0.71372  -0.71081
 Alpha  occ. eigenvalues --   -0.71061  -0.70458  -0.65633  -0.65432  -0.64966
 Alpha  occ. eigenvalues --   -0.64750  -0.62724  -0.62159  -0.55943  -0.55344
 Alpha  occ. eigenvalues --   -0.53820  -0.53487  -0.52887  -0.52784  -0.49041
 Alpha  occ. eigenvalues --   -0.48978  -0.48713  -0.48700  -0.44909  -0.44697
 Alpha  occ. eigenvalues --   -0.38058  -0.37503  -0.37004  -0.36055
 Alpha virt. eigenvalues --    0.04557   0.05158   0.10470   0.11312   0.15931
 Alpha virt. eigenvalues --    0.16640   0.20316   0.21921   0.26333   0.27244
 Alpha virt. eigenvalues --    0.28236   0.28415   0.30382   0.31429   0.32108

 Mulliken charges:
               1
     1  C   -0.173955
     2  C   -0.215739
     3  C   -0.176361
     4  C    0.159152
     5  C   -0.170103
     6  C   -0.217897
     7  H    0.221584
     8  H    0.217436
     9  H    0.275947
    10  H    0.276303
    11  H    0.223152
    12  N    0.488802
    13  O   -0.458372
    14  O   -0.462317
    15  C   -0.181078
    16  C   -0.224232
    17  C   -0.164871
    18  C    0.160748
    19  C   -0.169662
    20  C   -0.225771
    21  H    0.226575
    22  H    0.221996
    23  H    0.277798
    24  H    0.285870
    25  H    0.229669
    26  N    0.487890
    27  O   -0.452184
    28  O   -0.460381
 Sum of Mulliken charges =  -0.00000

 Dipole moment (field-independent basis, Debye):
    X=              0.2932    Y=              8.7399    Z=              1.0225  Tot=              8.8044
 Quadrupole moment (field-independent basis, Debye-Ang):
   XX=           -105.6689   YY=           -108.2984   ZZ=           -102.2291
   XY=             -0.8479   XZ=             14.7864   YZ=             -2.7395

 Normal termination of Gaussian 16 at Thu May  6 05:12:40 2021.
