 Gaussian 16, Revision A.03,
 Gaussian 16:  EM64L-G16RevA.03 25-Dec-2016

 -------------
 #p 6-31g* mp2
 -------------

 ------------------------------------------------------
 Input file generated by CHIRIPA (05-May-2021 14:55:25)
 ------------------------------------------------------
 Symbolic Z-matrix:
 Charge =  0 Multiplicity = 1

                         Standard orientation:
 ---------------------------------------------------------------------
 Center     Atomic      Atomic             Coordinates (Angstroms)
 Number     Number       Type             X           Y           Z
 ---------------------------------------------------------------------
      1          6           0        4.195221    0.748474   -1.494717
      2          6           0        4.558038    0.522308   -0.162900
      3          6           0        3.666421   -0.092272    0.721327
      4          6           0        2.414532   -0.469545    0.237873
      5          6           0        2.023706   -0.257838   -1.083386
      6          6           0        2.931441    0.358367   -1.949906
      7          1           0        4.894110    1.226525   -2.174728
      8          1           0        5.538835    0.824216    0.193375
      9          1           0        3.921411   -0.279386    1.757371
     10          1           0        1.038936   -0.569905   -1.409362
     11          1           0        2.646958    0.532749   -2.983688
     12          7           0        1.462085   -1.121033    1.164592
     13          8           0        0.365131   -1.444032    0.714035
     14          8           0        1.830546   -1.296335    2.323964
     15          6           0       -3.397558    1.135497    0.238467
     16          6           0       -2.209844    2.087428    0.093040
     17          6           0       -2.437033    3.427433    0.793446
     18          1           0       -4.296925    1.616462   -0.169892
     19          1           0       -3.592340    0.963830    1.306167
     20          1           0       -2.016488    2.256157   -0.974087
     21          1           0       -1.313161    1.604066    0.501620
     22          1           0       -2.607989    3.278199    1.864475
     23          1           0       -3.315313    3.933994    0.380385
     24          1           0       -1.575684    4.092514    0.676813
     25          6           0       -3.185498   -0.208337   -0.456421
     26          6           0       -4.373212   -1.160268   -0.310995
     27          6           0       -4.146023   -2.500272   -1.011400
     28          1           0       -2.990716   -0.036669   -1.524122
     29          1           0       -2.286131   -0.689301   -0.048062
     30          1           0       -5.269895   -0.676906   -0.719574
     31          1           0       -4.566568   -1.328997    0.756133
     32          1           0       -3.267743   -3.006834   -0.598338
     33          1           0       -3.975066   -2.351038   -2.082429
     34          1           0       -5.007372   -3.165355   -0.894767
 ---------------------------------------------------------------------

 SCF Done:  E(RHF) =  -669.536545447     A.U. after   15 cycles
 E2 =    -0.2091463368D+01 EUMP2 =    -0.67162800881515D+03

 The electronic state is 1-A.
 Alpha  occ. eigenvalues --  -20.60998 -20.60987 -15.86025 -11.31294 -11.27856
 Alpha  occ. eigenvalues --  -11.27843 -11.27588 -11.26854 -11.26841 -11.21106
 Alpha  occ. eigenvalues --  -11.20822 -11.20704 -11.20687 -11.20422 -11.20325
 Alpha  occ. eigenvalues --   -1.60052  -1.39609  -1.19460  -1.08875  -1.07710
 Alpha  occ. eigenvalues --   -1.04849  -1.02892  -0.95725  -0.95331  -0.86356
 Alpha  occ. eigenvalues --   -0.86252  -0.82562  -0.78970  -0.77676  -0.77450
 Alpha  occ. eigenvalues --   -0.72252  -0.71361  -0.70569  -0.65122  -0.64852
 Alpha  occ. eigenvalues --   -0.64314  -0.62195  -0.60283  -0.58722  -0.56950
 Alpha  occ. eigenvalues --   -0.55359  -0.54602  -0.53183  -0.52940  -0.52074
 Alpha  occ. eigenvalues --   -0.51765  -0.49272  -0.49012  -0.48993  -0.47293
 Alpha  occ. eigenvalues --   -0.45998  -0.45286  -0.45061  -0.44629  -0.43113
 Alpha  occ. eigenvalues --   -0.37439  -0.36446
 Alpha virt. eigenvalues --    0.04885   0.11191   0.16359   0.21210   0.23541
 Alpha virt. eigenvalues --    0.24918   0.26597   0.27296   0.27622   0.28508
 Alpha virt. eigenvalues --    0.29044   0.31139   0.31978   0.32310   0.32455

 Mulliken charges:
               1
     1  C   -0.170457
     2  C   -0.218626
     3  C   -0.170775
     4  C    0.157367
     5  C   -0.170365
     6  C   -0.218607
     7  H    0.226034
     8  H    0.223795
     9  H    0.275713
    10  H    0.277104
    11  H    0.224068
    12  N    0.493205
    13  O   -0.465895
    14  O   -0.458538
    15  C   -0.296489
    16  C   -0.300302
    17  C   -0.475213
    18  H    0.145564
    19  H    0.151986
    20  H    0.145150
    21  H    0.155734
    22  H    0.157006
    23  H    0.153559
    24  H    0.156468
    25  C   -0.312459
    26  C   -0.298047
    27  C   -0.477033
    28  H    0.139585
    29  H    0.179118
    30  H    0.147208
    31  H    0.153676
    32  H    0.163138
    33  H    0.150004
    34  H    0.157328
 Sum of Mulliken charges =  -0.00000

 Dipole moment (field-independent basis, Debye):
    X=              3.5881    Y=              2.1603    Z=             -3.1298  Tot=              5.2285
 Quadrupole moment (field-independent basis, Debye-Ang):
   XX=            -77.1421   YY=            -99.0088   ZZ=            -93.4302
   XY=              4.4681   XZ=             -4.5345   YZ=              1.4418

 Normal termination of Gaussian 16 at Thu May  6 17:43:54 2021.
