 Gaussian 16, Revision A.03,
 Gaussian 16:  EM64L-G16RevA.03 25-Dec-2016

 -------------
 #p 6-31g* mp2
 -------------

 ------------------------------------------------------
 Input file generated by CHIRIPA (05-May-2021 14:53:12)
 ------------------------------------------------------
 Symbolic Z-matrix:
 Charge =  0 Multiplicity = 1

                         Standard orientation:
 ---------------------------------------------------------------------
 Center     Atomic      Atomic             Coordinates (Angstroms)
 Number     Number       Type             X           Y           Z
 ---------------------------------------------------------------------
      1          6           0       -3.313354    1.242495    0.031768
      2          6           0       -1.914876    1.796986    0.305236
      3          6           0       -1.927234    3.284991    0.656637
      4          1           0       -3.772139    1.810728   -0.788947
      5          1           0       -3.944485    1.406093    0.916248
      6          1           0       -1.286179    1.631149   -0.578989
      7          1           0       -1.459293    1.227242    1.125268
      8          1           0       -2.531565    3.464437    1.551726
      9          1           0       -2.357467    3.870639   -0.162214
     10          1           0       -0.917272    3.660648    0.848257
     11          6           0       -3.317419   -0.243885   -0.320916
     12          6           0       -4.715897   -0.798375   -0.594383
     13          6           0       -4.703540   -2.286380   -0.945784
     14          1           0       -2.686288   -0.407482   -1.205395
     15          1           0       -2.858635   -0.812118    0.499799
     16          1           0       -5.171481   -0.228631   -1.414415
     17          1           0       -5.344595   -0.632538    0.289841
     18          1           0       -4.273307   -2.872029   -0.126933
     19          1           0       -4.099209   -2.465826   -1.840873
     20          1           0       -5.713502   -2.662037   -1.137404
     21          6           0        4.248108    1.096240   -1.073614
     22          6           0        4.477430   -0.281052   -0.989961
     23          6           0        3.565608   -1.114163   -0.334938
     24          6           0        2.429860   -0.533774    0.227660
     25          6           0        2.173338    0.834818    0.161019
     26          6           0        3.098821    1.648806   -0.498871
     27          1           0        4.961740    1.735992   -1.584342
     28          1           0        5.369120   -0.712943   -1.435386
     29          1           0        3.718396   -2.183628   -0.255436
     30          1           0        1.275378    1.236254    0.614820
     31          1           0        2.918133    2.718092   -0.562292
     32          7           0        1.457324   -1.405629    0.923681
     33          8           0        0.464395   -0.869742    1.411075
     34          8           0        1.706395   -2.608367    0.968648
 ---------------------------------------------------------------------

 SCF Done:  E(RHF) =  -669.536034049     A.U. after   15 cycles
 E2 =    -0.2092095096D+01 EUMP2 =    -0.67162812914542D+03

 The electronic state is 1-A.
 Alpha  occ. eigenvalues --  -20.60873 -20.60867 -15.85911 -11.31218 -11.27792
 Alpha  occ. eigenvalues --  -11.27755 -11.27530 -11.26798 -11.26782 -11.21150
 Alpha  occ. eigenvalues --  -11.21004 -11.20974 -11.20880 -11.20585 -11.20431
 Alpha  occ. eigenvalues --   -1.59936  -1.39492  -1.19391  -1.08799  -1.07863
 Alpha  occ. eigenvalues --   -1.04786  -1.03067  -0.95644  -0.95522  -0.86535
 Alpha  occ. eigenvalues --   -0.86187  -0.82481  -0.79142  -0.77732  -0.77418
 Alpha  occ. eigenvalues --   -0.72139  -0.71247  -0.70502  -0.65053  -0.64792
 Alpha  occ. eigenvalues --   -0.64480  -0.62143  -0.60454  -0.58921  -0.57135
 Alpha  occ. eigenvalues --   -0.55292  -0.54798  -0.53120  -0.52876  -0.52260
 Alpha  occ. eigenvalues --   -0.51944  -0.49456  -0.48912  -0.48887  -0.47411
 Alpha  occ. eigenvalues --   -0.46115  -0.45283  -0.45107  -0.44739  -0.43288
 Alpha  occ. eigenvalues --   -0.37374  -0.36385
 Alpha virt. eigenvalues --    0.04983   0.11240   0.16474   0.20610   0.23383
 Alpha virt. eigenvalues --    0.24130   0.26486   0.27169   0.27677   0.28378
 Alpha virt. eigenvalues --    0.29434   0.30795   0.31561   0.31798   0.32353

 Mulliken charges:
               1
     1  C   -0.297247
     2  C   -0.312334
     3  C   -0.474851
     4  H    0.145522
     5  H    0.149296
     6  H    0.144099
     7  H    0.175989
     8  H    0.157877
     9  H    0.153898
    10  H    0.148941
    11  C   -0.301284
    12  C   -0.299521
    13  C   -0.475615
    14  H    0.146232
    15  H    0.166413
    16  H    0.148171
    17  H    0.150883
    18  H    0.159797
    19  H    0.153857
    20  H    0.157401
    21  C   -0.170341
    22  C   -0.218934
    23  C   -0.170400
    24  C    0.156237
    25  C   -0.174021
    26  C   -0.220887
    27  H    0.225728
    28  H    0.223511
    29  H    0.275540
    30  H    0.285247
    31  H    0.223960
    32  N    0.491668
    33  O   -0.465111
    34  O   -0.459721
 Sum of Mulliken charges =  -0.00000

 Dipole moment (field-independent basis, Debye):
    X=              3.4991    Y=              2.8849    Z=             -2.3187  Tot=              5.0934
 Quadrupole moment (field-independent basis, Debye-Ang):
   XX=            -77.2846   YY=            -96.7421   ZZ=            -95.6010
   XY=              3.2233   XZ=             -6.6441   YZ=              2.3489

 Normal termination of Gaussian 16 at Thu May  6 10:23:16 2021.
