 Gaussian 16, Revision A.03,
 Gaussian 16:  EM64L-G16RevA.03 25-Dec-2016

 -------------
 #p 6-31g* mp2
 -------------

 ------------------------------------------------------
 Input file generated by CHIRIPA (05-May-2021 14:57:23)
 ------------------------------------------------------
 Symbolic Z-matrix:
 Charge =  0 Multiplicity = 1

                         Standard orientation:
 ---------------------------------------------------------------------
 Center     Atomic      Atomic             Coordinates (Angstroms)
 Number     Number       Type             X           Y           Z
 ---------------------------------------------------------------------
      1          6           0       -5.986468    0.430876   -0.571402
      2          6           0       -5.356873   -0.668305   -1.164642
      3          6           0       -4.069323   -1.046137   -0.772207
      4          6           0       -3.437778   -0.299014    0.220893
      5          6           0       -4.038668    0.801052    0.830875
      6          6           0       -5.326520    1.160759    0.422710
      7          1           0       -6.986785    0.717345   -0.882364
      8          1           0       -5.866995   -1.236984   -1.936927
      9          1           0       -3.558626   -1.892740   -1.214778
     10          1           0       -3.504836    1.348525    1.598152
     11          1           0       -5.813030    2.014853    0.885178
     12          7           0       -2.074547   -0.689413    0.644673
     13          8           0       -1.539531   -0.014805    1.521769
     14          8           0       -1.566876   -1.662624    0.091710
     15          6           0        2.349421    2.373671   -0.409014
     16          6           0        3.739823    2.419061   -0.263258
     17          6           0        4.477523    1.240203   -0.119589
     18          6           0        3.789395    0.027880   -0.126111
     19          6           0        2.404958   -0.050121   -0.269431
     20          6           0        1.687593    1.141396   -0.411630
     21          1           0        1.784256    3.294353   -0.520048
     22          1           0        4.256464    3.374634   -0.260865
     23          1           0        5.554679    1.246420   -0.005075
     24          1           0        1.917946   -1.017713   -0.268003
     25          1           0        0.607868    1.103114   -0.524650
     26          7           0        4.559601   -1.226824    0.025208
     27          8           0        3.929717   -2.282194    0.016242
     28          8           0        5.778588   -1.131136    0.149911
 ---------------------------------------------------------------------

 SCF Done:  E(RHF) =  -868.339270523     A.U. after   16 cycles
 E2 =    -0.2598991765D+01 EUMP2 =    -0.87093826228771D+03

 The electronic state is 1-A.
 Alpha  occ. eigenvalues --  -20.61709 -20.61695 -20.59814 -20.59787 -15.86720
 Alpha  occ. eigenvalues --  -15.84850 -11.31876 -11.30101 -11.28428 -11.28398
 Alpha  occ. eigenvalues --  -11.28108 -11.27380 -11.27356 -11.26748 -11.26512
 Alpha  occ. eigenvalues --  -11.26474 -11.25785 -11.25584  -1.60782  -1.58882
 Alpha  occ. eigenvalues --   -1.40330  -1.38435  -1.20028  -1.18282  -1.09462
 Alpha  occ. eigenvalues --   -1.07723  -1.05392  -1.03646  -0.96327  -0.94564
 Alpha  occ. eigenvalues --   -0.86799  -0.85073  -0.83156  -0.81381  -0.78237
 Alpha  occ. eigenvalues --   -0.76425  -0.72919  -0.72110  -0.71121  -0.71075
 Alpha  occ. eigenvalues --   -0.70203  -0.69421  -0.65675  -0.65384  -0.63937
 Alpha  occ. eigenvalues --   -0.63661  -0.62736  -0.60975  -0.55892  -0.54233
 Alpha  occ. eigenvalues --   -0.53740  -0.53473  -0.52016  -0.51741  -0.49700
 Alpha  occ. eigenvalues --   -0.49676  -0.47838  -0.47818  -0.45766  -0.43865
 Alpha  occ. eigenvalues --   -0.37998  -0.36987  -0.36312  -0.35231
 Alpha virt. eigenvalues --    0.04245   0.06081   0.10670   0.12400   0.15783
 Alpha virt. eigenvalues --    0.17577   0.20853   0.22416   0.26793   0.27624
 Alpha virt. eigenvalues --    0.28287   0.29332   0.30494   0.31754   0.32020

 Mulliken charges:
               1
     1  C   -0.169902
     2  C   -0.218544
     3  C   -0.170769
     4  C    0.156133
     5  C   -0.171933
     6  C   -0.218605
     7  H    0.227991
     8  H    0.226113
     9  H    0.277641
    10  H    0.275486
    11  H    0.225135
    12  N    0.485078
    13  O   -0.460962
    14  O   -0.459667
    15  C   -0.172315
    16  C   -0.219318
    17  C   -0.172501
    18  C    0.156981
    19  C   -0.170715
    20  C   -0.213428
    21  H    0.220147
    22  H    0.218604
    23  H    0.271960
    24  H    0.288046
    25  H    0.224789
    26  N    0.487886
    27  O   -0.458168
    28  O   -0.465163
 Sum of Mulliken charges =  -0.00000

 Dipole moment (field-independent basis, Debye):
    X=             -8.0379    Y=              5.6091    Z=             -2.0109  Tot=             10.0057
 Quadrupole moment (field-independent basis, Debye-Ang):
   XX=            -89.7892   YY=           -102.2471   ZZ=           -104.4987
   XY=             15.5538   XZ=              3.1248   YZ=              3.3899

 Normal termination of Gaussian 16 at Thu May  6 12:55:10 2021.
