 Gaussian 16, Revision A.03,
 Gaussian 16:  EM64L-G16RevA.03 25-Dec-2016

 -------------
 #p 6-31g* mp2
 -------------

 ------------------------------------------------------
 Input file generated by CHIRIPA (05-May-2021 14:51:14)
 ------------------------------------------------------
 Symbolic Z-matrix:
 Charge =  0 Multiplicity = 1

                         Standard orientation:
 ---------------------------------------------------------------------
 Center     Atomic      Atomic             Coordinates (Angstroms)
 Number     Number       Type             X           Y           Z
 ---------------------------------------------------------------------
      1          6           0       -2.793929    1.137803   -0.352150
      2          6           0       -1.990511    1.908504    0.695955
      3          6           0       -2.192114    3.421138    0.600623
      4          1           0       -2.506052    1.485106   -1.353874
      5          1           0       -3.860343    1.374701   -0.233683
      6          1           0       -0.926066    1.669154    0.576437
      7          1           0       -2.280195    1.559190    1.695294
      8          1           0       -3.246764    3.678864    0.741668
      9          1           0       -1.884941    3.789452   -0.383547
     10          1           0       -1.608667    3.952500    1.358979
     11          6           0       -2.602820   -0.375601   -0.269595
     12          6           0       -3.406238   -1.146302   -1.317700
     13          6           0       -3.204634   -2.658936   -1.222367
     14          1           0       -1.536405   -0.612499   -0.388062
     15          1           0       -2.890696   -0.722904    0.732130
     16          1           0       -3.116553   -0.796988   -2.317039
     17          1           0       -4.470682   -0.906952   -1.198181
     18          1           0       -3.511808   -3.027250   -0.238198
     19          1           0       -2.149985   -2.916662   -1.363413
     20          1           0       -3.788081   -3.190297   -1.980724
     21          6           0        2.544934   -0.601382    1.025969
     22          6           0        1.111650   -1.100301    1.212422
     23          6           0        0.819942   -1.537410    2.648262
     24          1           0        3.244206   -1.396853    1.317840
     25          1           0        2.724956    0.239525    1.709974
     26          1           0        0.933947   -1.939124    0.527285
     27          1           0        0.415708   -0.303616    0.919892
     28          1           0        0.969696   -0.704258    3.342548
     29          1           0        1.490880   -2.349059    2.947710
     30          1           0       -0.210102   -1.890391    2.759047
     31          6           0        2.851815   -0.160820   -0.404225
     32          6           0        4.285098    0.338098   -0.590678
     33          6           0        4.576806    0.775208   -2.026517
     34          1           0        2.671792   -1.001727   -1.088231
     35          1           0        2.152543    0.634651   -0.696096
     36          1           0        4.981040   -0.458586   -0.298148
     37          1           0        4.462801    1.176922    0.094459
     38          1           0        3.905869    1.586857   -2.325965
     39          1           0        4.427052   -0.057944   -2.720804
     40          1           0        5.606850    1.128189   -2.137303
 ---------------------------------------------------------------------

 SCF Done:  E(RHF) =  -470.732545188     A.U. after   11 cycles
 E2 =    -0.1584148004D+01 EUMP2 =    -0.47231669319249D+03

 The electronic state is 1-A.
 Alpha  occ. eigenvalues --  -11.21651 -11.21628 -11.21576 -11.21534 -11.21431
 Alpha  occ. eigenvalues --  -11.21395 -11.21355 -11.21293 -11.21114 -11.21096
 Alpha  occ. eigenvalues --  -11.21059 -11.21037  -1.08478  -1.08401  -1.03544
 Alpha  occ. eigenvalues --   -1.03528  -0.95999  -0.95967  -0.87004  -0.86997
 Alpha  occ. eigenvalues --   -0.79641  -0.79609  -0.78451  -0.78048  -0.65209
 Alpha  occ. eigenvalues --   -0.64950  -0.61013  -0.60866  -0.59358  -0.59351
 Alpha  occ. eigenvalues --   -0.57677  -0.57516  -0.55291  -0.55253  -0.52705
 Alpha  occ. eigenvalues --   -0.52658  -0.52411  -0.52406  -0.49938  -0.49930
 Alpha  occ. eigenvalues --   -0.48035  -0.47942  -0.46879  -0.46577  -0.46197
 Alpha  occ. eigenvalues --   -0.45758  -0.45720  -0.44958  -0.43794  -0.43763
 Alpha virt. eigenvalues --    0.20956   0.23141   0.23859   0.24093   0.25248
 Alpha virt. eigenvalues --    0.26360   0.26837   0.27863   0.28207   0.29767
 Alpha virt. eigenvalues --    0.30421   0.31291   0.31814   0.31916   0.32164

 Mulliken charges:
               1
     1  C   -0.298136
     2  C   -0.304653
     3  C   -0.475265
     4  H    0.149295
     5  H    0.149542
     6  H    0.155209
     7  H    0.152380
     8  H    0.155591
     9  H    0.155137
    10  H    0.160120
    11  C   -0.305095
    12  C   -0.299153
    13  C   -0.475680
    14  H    0.158346
    15  H    0.148823
    16  H    0.151750
    17  H    0.151612
    18  H    0.154961
    19  H    0.155155
    20  H    0.160163
    21  C   -0.297177
    22  C   -0.310732
    23  C   -0.475247
    24  H    0.149599
    25  H    0.149304
    26  H    0.150987
    27  H    0.163977
    28  H    0.154887
    29  H    0.154863
    30  H    0.160805
    31  C   -0.298726
    32  C   -0.299553
    33  C   -0.475736
    34  H    0.149343
    35  H    0.148362
    36  H    0.152230
    37  H    0.152088
    38  H    0.155058
    39  H    0.155152
    40  H    0.160415
 Sum of Mulliken charges =  -0.00000

 Dipole moment (field-independent basis, Debye):
    X=             -0.0012    Y=              0.0053    Z=              0.0071  Tot=              0.0089
 Quadrupole moment (field-independent basis, Debye-Ang):
   XX=            -84.2895   YY=            -85.2744   ZZ=            -85.3141
   XY=             -0.3316   XZ=             -0.2611   YZ=              0.4739

 Normal termination of Gaussian 16 at Wed May  5 23:16:12 2021.
