 Gaussian 16, Revision A.03,
 Gaussian 16:  EM64L-G16RevA.03 25-Dec-2016

 -------------
 #p 6-31g* mp2
 -------------

 ------------------------------------------------------
 Input file generated by CHIRIPA (05-May-2021 14:51:13)
 ------------------------------------------------------
 Symbolic Z-matrix:
 Charge =  0 Multiplicity = 1

                         Standard orientation:
 ---------------------------------------------------------------------
 Center     Atomic      Atomic             Coordinates (Angstroms)
 Number     Number       Type             X           Y           Z
 ---------------------------------------------------------------------
      1          6           0        1.659817    1.671702    0.369960
      2          6           0        1.076637    2.680891   -0.619699
      3          6           0        0.180953    3.720411    0.054795
      4          1           0        0.838028    1.164911    0.894144
      5          1           0        2.234392    2.210211    1.136293
      6          1           0        0.504482    2.140530   -1.384725
      7          1           0        1.899908    3.185202   -1.141726
      8          1           0        0.743749    4.285121    0.805105
      9          1           0       -0.659605    3.234513    0.560725
     10          1           0       -0.225254    4.431826   -0.670978
     11          6           0        2.557440    0.626045   -0.289283
     12          6           0        3.140620   -0.383144    0.700375
     13          6           0        4.036304   -1.422665    0.025882
     14          1           0        1.982865    0.087536   -1.055617
     15          1           0        3.379230    1.132836   -0.813468
     16          1           0        2.317350   -0.887455    1.222402
     17          1           0        3.712775    0.157217    1.465401
     18          1           0        4.876862   -0.936766   -0.480048
     19          1           0        3.473509   -1.987374   -0.724429
     20          1           0        4.442511   -2.134079    0.751654
     21          6           0       -2.415220   -0.468707   -0.204068
     22          6           0       -3.805125   -0.268618    0.401006
     23          6           0       -4.405323    1.096816    0.064636
     24          1           0       -1.747523    0.325767    0.156398
     25          1           0       -2.477807   -0.353350   -1.295018
     26          1           0       -3.740186   -0.385687    1.490361
     27          1           0       -4.469540   -1.063772    0.039208
     28          1           0       -4.499050    1.220004   -1.019173
     29          1           0       -3.765552    1.901943    0.440225
     30          1           0       -5.398924    1.218617    0.507109
     31          6           0       -1.802037   -1.829040    0.123392
     32          6           0       -0.412133   -2.029129   -0.481682
     33          6           0        0.188066   -3.394564   -0.145312
     34          1           0       -1.739450   -1.944397    1.214341
     35          1           0       -2.469734   -2.623515   -0.237074
     36          1           0        0.252283   -1.233975   -0.119885
     37          1           0       -0.477071   -1.912061   -1.571037
     38          1           0       -0.451705   -4.199689   -0.520901
     39          1           0        0.281793   -3.517751    0.938497
     40          1           0        1.181667   -3.516364   -0.587785
 ---------------------------------------------------------------------

 SCF Done:  E(RHF) =  -470.732372414     A.U. after   11 cycles
 E2 =    -0.1585812040D+01 EUMP2 =    -0.47231818445388D+03

 The electronic state is 1-A.
 Alpha  occ. eigenvalues --  -11.21650 -11.21618 -11.21606 -11.21603 -11.21471
 Alpha  occ. eigenvalues --  -11.21421 -11.21409 -11.21333 -11.21121 -11.21105
 Alpha  occ. eigenvalues --  -11.21095 -11.21076  -1.08553  -1.08396  -1.03631
 Alpha  occ. eigenvalues --   -1.03497  -0.96041  -0.95987  -0.87080  -0.86980
 Alpha  occ. eigenvalues --   -0.79660  -0.79606  -0.78324  -0.78262  -0.65570
 Alpha  occ. eigenvalues --   -0.64728  -0.61284  -0.60702  -0.59360  -0.59341
 Alpha  occ. eigenvalues --   -0.57620  -0.57602  -0.55367  -0.55267  -0.52729
 Alpha  occ. eigenvalues --   -0.52680  -0.52486  -0.52385  -0.50097  -0.49837
 Alpha  occ. eigenvalues --   -0.48007  -0.47854  -0.46718  -0.46612  -0.46183
 Alpha  occ. eigenvalues --   -0.45897  -0.45619  -0.45336  -0.43830  -0.43793
 Alpha virt. eigenvalues --    0.19191   0.20999   0.23666   0.24940   0.25668
 Alpha virt. eigenvalues --    0.25824   0.26576   0.27835   0.28655   0.30069
 Alpha virt. eigenvalues --    0.30094   0.31337   0.31734   0.32199   0.32624

 Mulliken charges:
               1
     1  C   -0.301780
     2  C   -0.299982
     3  C   -0.477017
     4  H    0.150519
     5  H    0.150007
     6  H    0.153649
     7  H    0.152166
     8  H    0.155212
     9  H    0.155175
    10  H    0.160793
    11  C   -0.304247
    12  C   -0.302055
    13  C   -0.477252
    14  H    0.153575
    15  H    0.151218
    16  H    0.153420
    17  H    0.152347
    18  H    0.155191
    19  H    0.156907
    20  H    0.160446
    21  C   -0.303325
    22  C   -0.299610
    23  C   -0.476367
    24  H    0.153169
    25  H    0.149706
    26  H    0.152028
    27  H    0.152343
    28  H    0.155397
    29  H    0.155680
    30  H    0.160565
    31  C   -0.297195
    32  C   -0.311849
    33  C   -0.477568
    34  H    0.149183
    35  H    0.150033
    36  H    0.165155
    37  H    0.151188
    38  H    0.155495
    39  H    0.155133
    40  H    0.162547
 Sum of Mulliken charges =  -0.00000

 Dipole moment (field-independent basis, Debye):
    X=              0.0023    Y=             -0.0049    Z=             -0.0153  Tot=              0.0162
 Quadrupole moment (field-independent basis, Debye-Ang):
   XX=            -84.6729   YY=            -85.8134   ZZ=            -84.1881
   XY=              1.7405   XZ=              0.6026   YZ=              0.2617

 Normal termination of Gaussian 16 at Wed May  5 15:20:34 2021.
