 Gaussian 16, Revision A.03,
 Gaussian 16:  EM64L-G16RevA.03 25-Dec-2016

 -------------
 #p 6-31g* mp2
 -------------

 ------------------------------------------------------
 Input file generated by CHIRIPA (05-May-2021 14:57:25)
 ------------------------------------------------------
 Symbolic Z-matrix:
 Charge =  0 Multiplicity = 1

                         Standard orientation:
 ---------------------------------------------------------------------
 Center     Atomic      Atomic             Coordinates (Angstroms)
 Number     Number       Type             X           Y           Z
 ---------------------------------------------------------------------
      1          6           0        2.092589   -1.853017    1.839386
      2          6           0        2.202606   -0.493428    2.149123
      3          6           0        2.579487    0.429777    1.169226
      4          6           0        2.840085   -0.043443   -0.115859
      5          6           0        2.739227   -1.391694   -0.455472
      6          6           0        2.360778   -2.297027    0.540367
      7          1           0        1.799210   -2.563243    2.606786
      8          1           0        1.994938   -0.145751    3.157111
      9          1           0        2.672382    1.487920    1.381647
     10          1           0        2.952678   -1.708218   -1.469212
     11          1           0        2.276148   -3.352315    0.296953
     12          7           0        3.239902    0.924454   -1.161671
     13          8           0        3.464054    0.482170   -2.286294
     14          8           0        3.321555    2.107047   -0.836952
     15          6           0       -1.907923    2.415844    0.791238
     16          6           0       -3.278241    2.236998    0.574980
     17          6           0       -3.769423    1.015186    0.105447
     18          6           0       -2.857937   -0.010970   -0.138460
     19          6           0       -1.487068    0.136376    0.067194
     20          6           0       -1.018279    1.366812    0.537102
     21          1           0       -1.535059    3.368327    1.156128
     22          1           0       -3.971472    3.049931    0.771485
     23          1           0       -4.825344    0.849514   -0.070627
     24          1           0       -0.820491   -0.692534   -0.137750
     25          1           0        0.046444    1.502853    0.704145
     26          7           0       -3.366076   -1.309012   -0.635733
     27          8           0       -2.542397   -2.197405   -0.842969
     28          8           0       -4.578415   -1.413446   -0.808844
 ---------------------------------------------------------------------

 SCF Done:  E(RHF) =  -868.338009568     A.U. after   16 cycles
 E2 =    -0.2602056058D+01 EUMP2 =    -0.87094006562584D+03

 The electronic state is 1-A.
 Alpha  occ. eigenvalues --  -20.61490 -20.61456 -20.60856 -20.60838 -15.86530
 Alpha  occ. eigenvalues --  -15.85899 -11.32018 -11.31161 -11.28595 -11.28468
 Alpha  occ. eigenvalues --  -11.28193 -11.27724 -11.27683 -11.27591 -11.27469
 Alpha  occ. eigenvalues --  -11.27425 -11.26720 -11.26614  -1.60550  -1.59925
 Alpha  occ. eigenvalues --   -1.40100  -1.39482  -1.20180  -1.19319  -1.09509
 Alpha  occ. eigenvalues --   -1.08735  -1.05574  -1.04699  -0.96336  -0.95587
 Alpha  occ. eigenvalues --   -0.86935  -0.86109  -0.83148  -0.82423  -0.78212
 Alpha  occ. eigenvalues --   -0.77490  -0.72731  -0.72122  -0.71889  -0.71245
 Alpha  occ. eigenvalues --   -0.71195  -0.70429  -0.65779  -0.65504  -0.64970
 Alpha  occ. eigenvalues --   -0.64722  -0.62886  -0.62083  -0.55967  -0.55253
 Alpha  occ. eigenvalues --   -0.53865  -0.53599  -0.53044  -0.52763  -0.49508
 Alpha  occ. eigenvalues --   -0.49485  -0.48881  -0.48866  -0.45474  -0.44911
 Alpha  occ. eigenvalues --   -0.38128  -0.37319  -0.37171  -0.36253
 Alpha virt. eigenvalues --    0.04275   0.05039   0.10349   0.11346   0.15781
 Alpha virt. eigenvalues --    0.16590   0.20572   0.21726   0.26175   0.27295
 Alpha virt. eigenvalues --    0.27837   0.28485   0.30276   0.31167   0.31882

 Mulliken charges:
               1
     1  C   -0.171829
     2  C   -0.215758
     3  C   -0.191332
     4  C    0.160981
     5  C   -0.172880
     6  C   -0.217163
     7  H    0.231774
     8  H    0.226391
     9  H    0.273708
    10  H    0.281002
    11  H    0.232307
    12  N    0.488620
    13  O   -0.454564
    14  O   -0.463061
    15  C   -0.172053
    16  C   -0.218613
    17  C   -0.171275
    18  C    0.158324
    19  C   -0.176312
    20  C   -0.221195
    21  H    0.226569
    22  H    0.223332
    23  H    0.275072
    24  H    0.275351
    25  H    0.227943
    26  N    0.488310
    27  O   -0.463473
    28  O   -0.460174
 Sum of Mulliken charges =  -0.00000

 Dipole moment (field-independent basis, Debye):
    X=              0.6196    Y=              0.9259    Z=              5.4149  Tot=              5.5283
 Quadrupole moment (field-independent basis, Debye-Ang):
   XX=           -119.2541   YY=           -101.4816   ZZ=           -104.8195
   XY=            -25.8334   XZ=              4.9705   YZ=              2.2143

 Normal termination of Gaussian 16 at Thu May  6 09:54:27 2021.
