 Gaussian 16, Revision A.03,
 Gaussian 16:  EM64L-G16RevA.03 25-Dec-2016

 -------------
 #p 6-31g* mp2
 -------------

 ------------------------------------------------------
 Input file generated by CHIRIPA (05-May-2021 14:51:12)
 ------------------------------------------------------
 Symbolic Z-matrix:
 Charge =  0 Multiplicity = 1

                         Standard orientation:
 ---------------------------------------------------------------------
 Center     Atomic      Atomic             Coordinates (Angstroms)
 Number     Number       Type             X           Y           Z
 ---------------------------------------------------------------------
      1          6           0       -3.304529    0.013197   -0.235130
      2          6           0       -4.730647   -0.527725   -0.342727
      3          6           0       -5.507197    0.080922   -1.510765
      4          1           0       -3.340925    1.105523   -0.123575
      5          1           0       -2.771833   -0.187434   -1.175012
      6          1           0       -5.260065   -0.327363    0.597586
      7          1           0       -4.690858   -1.618910   -0.453847
      8          1           0       -5.004102   -0.130742   -2.459815
      9          1           0       -5.576543    1.168144   -1.402409
     10          1           0       -6.524017   -0.319751   -1.569060
     11          6           0       -2.515533   -0.585806    0.927801
     12          6           0       -1.089415   -0.044885    1.035398
     13          6           0       -0.312865   -0.653532    2.203436
     14          1           0       -3.048228   -0.385176    1.867683
     15          1           0       -2.479136   -1.678132    0.816246
     16          1           0       -1.129204    1.046300    1.146518
     17          1           0       -0.559997   -0.245247    0.095085
     18          1           0       -0.243518   -1.740753    2.095080
     19          1           0       -0.815960   -0.441868    3.152486
     20          1           0        0.703955   -0.252859    2.261731
     21          6           0        3.025791    1.037240   -0.424610
     22          6           0        1.852403    1.886037    0.065991
     23          6           0        2.098990    3.386157   -0.097186
     24          1           0        3.932437    1.323268    0.125957
     25          1           0        3.217350    1.265367   -1.482277
     26          1           0        1.662227    1.655367    1.122041
     27          1           0        0.948404    1.597822   -0.485674
     28          1           0        2.267056    3.636702   -1.149604
     29          1           0        2.984935    3.694572    0.467246
     30          1           0        1.247662    3.974114    0.259757
     31          6           0        2.794271   -0.464631   -0.268060
     32          6           0        3.967659   -1.313427   -0.758662
     33          6           0        3.721071   -2.813547   -0.595485
     34          1           0        2.602712   -0.692757    0.789606
     35          1           0        1.887624   -0.750658   -0.818628
     36          1           0        4.871657   -1.025213   -0.206997
     37          1           0        4.157835   -1.082757   -1.814712
     38          1           0        2.835126   -3.121963   -1.159917
     39          1           0        3.553004   -3.064092    0.456933
     40          1           0        4.572398   -3.401505   -0.952429
 ---------------------------------------------------------------------

 SCF Done:  E(RHF) =  -470.731007345     A.U. after   11 cycles
 E2 =    -0.1585357236D+01 EUMP2 =    -0.47231636458076D+03

 The electronic state is 1-A.
 Alpha  occ. eigenvalues --  -11.21598 -11.21594 -11.21486 -11.21483 -11.21380
 Alpha  occ. eigenvalues --  -11.21379 -11.21320 -11.21303 -11.21077 -11.21070
 Alpha  occ. eigenvalues --  -11.21030 -11.20982  -1.08479  -1.08342  -1.03568
 Alpha  occ. eigenvalues --   -1.03435  -0.95986  -0.95933  -0.86997  -0.86955
 Alpha  occ. eigenvalues --   -0.79776  -0.79419  -0.78451  -0.77987  -0.65123
 Alpha  occ. eigenvalues --   -0.64983  -0.60968  -0.60847  -0.59561  -0.59148
 Alpha  occ. eigenvalues --   -0.57604  -0.57541  -0.55272  -0.55222  -0.52766
 Alpha  occ. eigenvalues --   -0.52571  -0.52393  -0.52370  -0.49937  -0.49868
 Alpha  occ. eigenvalues --   -0.48191  -0.47732  -0.46683  -0.46592  -0.46083
 Alpha  occ. eigenvalues --   -0.45720  -0.45576  -0.45147  -0.43757  -0.43689
 Alpha virt. eigenvalues --    0.21352   0.23232   0.23816   0.24215   0.24696
 Alpha virt. eigenvalues --    0.26213   0.26792   0.27790   0.28461   0.29662
 Alpha virt. eigenvalues --    0.30652   0.31216   0.31476   0.31784   0.32133

 Mulliken charges:
               1
     1  C   -0.298145
     2  C   -0.299524
     3  C   -0.475681
     4  H    0.149435
     5  H    0.148569
     6  H    0.152007
     7  H    0.151938
     8  H    0.155003
     9  H    0.155140
    10  H    0.160253
    11  C   -0.298114
    12  C   -0.302089
    13  C   -0.479945
    14  H    0.149112
    15  H    0.149224
    16  H    0.152979
    17  H    0.155959
    18  H    0.154781
    19  H    0.154177
    20  H    0.164405
    21  C   -0.298319
    22  C   -0.305261
    23  C   -0.475166
    24  H    0.148930
    25  H    0.148990
    26  H    0.154726
    27  H    0.157480
    28  H    0.154834
    29  H    0.154605
    30  H    0.159606
    31  C   -0.303728
    32  C   -0.299119
    33  C   -0.475636
    34  H    0.153994
    35  H    0.150533
    36  H    0.151946
    37  H    0.151748
    38  H    0.154662
    39  H    0.155420
    40  H    0.160272
 Sum of Mulliken charges =  -0.00000

 Dipole moment (field-independent basis, Debye):
    X=              0.0060    Y=             -0.0025    Z=              0.0022  Tot=              0.0069
 Quadrupole moment (field-independent basis, Debye-Ang):
   XX=            -85.1902   YY=            -85.6958   ZZ=            -84.2376
   XY=             -0.1204   XZ=             -0.2931   YZ=              0.8560

 Normal termination of Gaussian 16 at Wed May  5 18:20:45 2021.
