 Gaussian 16, Revision A.03,
 Gaussian 16:  EM64L-G16RevA.03 25-Dec-2016

 -------------
 #p 6-31g* mp2
 -------------

 ------------------------------------------------------
 Input file generated by CHIRIPA (05-May-2021 14:55:22)
 ------------------------------------------------------
 Symbolic Z-matrix:
 Charge =  0 Multiplicity = 1

                         Standard orientation:
 ---------------------------------------------------------------------
 Center     Atomic      Atomic             Coordinates (Angstroms)
 Number     Number       Type             X           Y           Z
 ---------------------------------------------------------------------
      1          6           0        1.822576    2.382996    1.135576
      2          6           0        1.170024    2.353688   -0.101289
      3          6           0        1.295923    1.245597   -0.944398
      4          6           0        2.085868    0.179442   -0.517092
      5          6           0        2.748497    0.178829    0.709371
      6          6           0        2.608345    1.297387    1.536253
      7          1           0        1.719239    3.247854    1.784220
      8          1           0        0.559132    3.195356   -0.415059
      9          1           0        0.801745    1.196601   -1.907105
     10          1           0        3.350579   -0.675258    0.994765
     11          1           0        3.116280    1.317391    2.496277
     12          7           0        2.226696   -0.999185   -1.401064
     13          8           0        2.928451   -1.925745   -1.001486
     14          8           0        1.632656   -0.974115   -2.476761
     15          6           0       -2.385927   -0.800904    1.119384
     16          6           0       -0.914134   -1.209981    1.052550
     17          6           0       -0.420105   -1.853857    2.348371
     18          1           0       -2.528103   -0.102136    1.955120
     19          1           0       -2.995581   -1.686698    1.345407
     20          1           0       -0.307572   -0.323934    0.825353
     21          1           0       -0.775409   -1.907708    0.216758
     22          1           0       -1.000170   -2.753801    2.576903
     23          1           0       -0.529675   -1.161028    3.188956
     24          1           0        0.634386   -2.138537    2.278598
     25          6           0       -2.894477   -0.155752   -0.168592
     26          6           0       -4.366270    0.253325   -0.101758
     27          6           0       -4.860299    0.897201   -1.397579
     28          1           0       -2.284822    0.730041   -0.394615
     29          1           0       -2.752301   -0.854520   -1.004328
     30          1           0       -4.504995    0.951052    0.734034
     31          1           0       -4.972832   -0.632722    0.125439
     32          1           0       -4.750729    0.204372   -2.238164
     33          1           0       -4.280234    1.797145   -1.626111
     34          1           0       -5.914790    1.181881   -1.327806
 ---------------------------------------------------------------------

 SCF Done:  E(RHF) =  -669.534421723     A.U. after   15 cycles
 E2 =    -0.2095042761D+01 EUMP2 =    -0.67162946448462D+03

 The electronic state is 1-A.
 Alpha  occ. eigenvalues --  -20.60806 -20.60799 -15.85855 -11.31214 -11.27836
 Alpha  occ. eigenvalues --  -11.27806 -11.27621 -11.26895 -11.26883 -11.21665
 Alpha  occ. eigenvalues --  -11.21409 -11.21359 -11.21301 -11.21164 -11.20996
 Alpha  occ. eigenvalues --   -1.59877  -1.39430  -1.19468  -1.08841  -1.08405
 Alpha  occ. eigenvalues --   -1.04866  -1.03507  -0.95973  -0.95664  -0.86989
 Alpha  occ. eigenvalues --   -0.86251  -0.82497  -0.79593  -0.78245  -0.77532
 Alpha  occ. eigenvalues --   -0.72080  -0.71195  -0.70556  -0.65104  -0.65056
 Alpha  occ. eigenvalues --   -0.64860  -0.62204  -0.60941  -0.59367  -0.57610
 Alpha  occ. eigenvalues --   -0.55363  -0.55288  -0.53300  -0.52947  -0.52613
 Alpha  occ. eigenvalues --   -0.52394  -0.49904  -0.48840  -0.48831  -0.47872
 Alpha  occ. eigenvalues --   -0.46565  -0.45749  -0.45627  -0.44826  -0.43762
 Alpha  occ. eigenvalues --   -0.37379  -0.36449
 Alpha virt. eigenvalues --    0.04963   0.11121   0.16419   0.21138   0.22967
 Alpha virt. eigenvalues --    0.24146   0.26328   0.26974   0.27285   0.28216
 Alpha virt. eigenvalues --    0.28475   0.30554   0.31444   0.31506   0.31919

 Mulliken charges:
               1
     1  C   -0.171851
     2  C   -0.216969
     3  C   -0.174996
     4  C    0.161925
     5  C   -0.171425
     6  C   -0.216566
     7  H    0.226245
     8  H    0.224109
     9  H    0.276485
    10  H    0.275853
    11  H    0.224325
    12  N    0.489288
    13  O   -0.461018
    14  O   -0.460391
    15  C   -0.296298
    16  C   -0.312625
    17  C   -0.474225
    18  H    0.146043
    19  H    0.150288
    20  H    0.161421
    21  H    0.157613
    22  H    0.156369
    23  H    0.150349
    24  H    0.159228
    25  C   -0.298541
    26  C   -0.299556
    27  C   -0.475257
    28  H    0.142153
    29  H    0.155351
    30  H    0.149669
    31  H    0.153538
    32  H    0.157924
    33  H    0.151233
    34  H    0.160308
 Sum of Mulliken charges =  -0.00000

 Dipole moment (field-independent basis, Debye):
    X=             -0.4118    Y=              4.1245    Z=              3.0518  Tot=              5.1472
 Quadrupole moment (field-independent basis, Debye-Ang):
   XX=            -95.8359   YY=            -92.1683   ZZ=            -96.8969
   XY=              7.9085   XZ=              9.0217   YZ=             -2.3360

 Normal termination of Gaussian 16 at Wed May  5 20:40:09 2021.
