 Gaussian 16, Revision A.03,
 Gaussian 16:  EM64L-G16RevA.03 25-Dec-2016

 -------------
 #p 6-31g* mp2
 -------------

 ------------------------------------------------------
 Input file generated by CHIRIPA (05-May-2021 14:51:08)
 ------------------------------------------------------
 Symbolic Z-matrix:
 Charge =  0 Multiplicity = 1

                         Standard orientation:
 ---------------------------------------------------------------------
 Center     Atomic      Atomic             Coordinates (Angstroms)
 Number     Number       Type             X           Y           Z
 ---------------------------------------------------------------------
      1          6           0       -3.243571   -0.427275    0.570292
      2          6           0       -1.982688   -1.030140   -0.049959
      3          6           0       -0.789789   -1.018502    0.906415
      4          1           0       -3.033085    0.604439    0.883671
      5          1           0       -3.498002   -0.985165    1.482114
      6          1           0       -1.731501   -0.472151   -0.961095
      7          1           0       -2.196255   -2.060475   -0.362072
      8          1           0       -1.015931   -1.591700    1.811349
      9          1           0       -0.548535    0.005649    1.208922
     10          1           0        0.100812   -1.453989    0.442689
     11          6           0       -4.444715   -0.431798   -0.373615
     12          6           0       -5.705599    0.171067    0.246636
     13          6           0       -6.898498    0.159429   -0.709738
     14          1           0       -4.190285    0.126091   -1.285437
     15          1           0       -4.655201   -1.463513   -0.686994
     16          1           0       -5.492031    1.201402    0.558749
     17          1           0       -5.956786   -0.386922    1.157772
     18          1           0       -7.139751   -0.864723   -1.012246
     19          1           0       -6.672356    0.732626   -1.614672
     20          1           0       -7.789099    0.594915   -0.246012
     21          6           0        3.425417    0.976789    0.231231
     22          6           0        2.067978    1.188675   -0.439923
     23          6           0        1.241900    2.286685    0.230721
     24          1           0        3.268979    0.725469    1.289206
     25          1           0        3.986570    1.921355    0.214012
     26          1           0        1.510109    0.243636   -0.422676
     27          1           0        2.227660    1.439332   -1.496469
     28          1           0        1.774928    3.242499    0.200675
     29          1           0        1.053300    2.040009    1.280569
     30          1           0        0.275492    2.421445   -0.265015
     31          6           0        4.262869   -0.117715   -0.427908
     32          6           0        5.620308   -0.329602    0.243246
     33          6           0        6.446386   -1.427613   -0.427397
     34          1           0        3.701716   -1.062282   -0.410689
     35          1           0        4.419307    0.133604   -1.485882
     36          1           0        5.460627   -0.580259    1.299792
     37          1           0        6.178178    0.615437    0.225999
     38          1           0        6.634986   -1.180936   -1.477246
     39          1           0        5.913358   -2.383425   -0.397352
     40          1           0        7.412795   -1.562372    0.068338
 ---------------------------------------------------------------------

 SCF Done:  E(RHF) =  -470.732344892     A.U. after   11 cycles
 E2 =    -0.1583590135D+01 EUMP2 =    -0.47231593502677D+03

 The electronic state is 1-A.
 Alpha  occ. eigenvalues --  -11.21624 -11.21607 -11.21581 -11.21480 -11.21416
 Alpha  occ. eigenvalues --  -11.21372 -11.21357 -11.21306 -11.21077 -11.21075
 Alpha  occ. eigenvalues --  -11.21059 -11.21056  -1.08452  -1.08385  -1.03596
 Alpha  occ. eigenvalues --   -1.03453  -0.96057  -0.95907  -0.87024  -0.86977
 Alpha  occ. eigenvalues --   -0.79637  -0.79543  -0.78254  -0.78207  -0.65176
 Alpha  occ. eigenvalues --   -0.64957  -0.61246  -0.60670  -0.59417  -0.59265
 Alpha  occ. eigenvalues --   -0.57647  -0.57540  -0.55543  -0.54972  -0.52731
 Alpha  occ. eigenvalues --   -0.52651  -0.52431  -0.52376  -0.49996  -0.49818
 Alpha  occ. eigenvalues --   -0.47951  -0.47853  -0.46631  -0.46560  -0.45798
 Alpha  occ. eigenvalues --   -0.45746  -0.45707  -0.45653  -0.43789  -0.43723
 Alpha virt. eigenvalues --    0.20920   0.23003   0.23658   0.24954   0.25999
 Alpha virt. eigenvalues --    0.26486   0.26762   0.27723   0.27843   0.29373
 Alpha virt. eigenvalues --    0.30671   0.31159   0.31612   0.32292   0.32348

 Mulliken charges:
               1
     1  C   -0.298688
     2  C   -0.300632
     3  C   -0.482727
     4  H    0.150084
     5  H    0.149630
     6  H    0.152651
     7  H    0.152041
     8  H    0.155250
     9  H    0.162987
    10  H    0.160226
    11  C   -0.298309
    12  C   -0.299696
    13  C   -0.475715
    14  H    0.149510
    15  H    0.149680
    16  H    0.152038
    17  H    0.151935
    18  H    0.155175
    19  H    0.155200
    20  H    0.160292
    21  C   -0.297915
    22  C   -0.306681
    23  C   -0.477398
    24  H    0.149766
    25  H    0.149139
    26  H    0.161757
    27  H    0.151030
    28  H    0.155763
    29  H    0.155140
    30  H    0.159184
    31  C   -0.298196
    32  C   -0.299632
    33  C   -0.475696
    34  H    0.148817
    35  H    0.149589
    36  H    0.152047
    37  H    0.151923
    38  H    0.155109
    39  H    0.155122
    40  H    0.160202
 Sum of Mulliken charges =  -0.00000

 Dipole moment (field-independent basis, Debye):
    X=             -0.0215    Y=             -0.0067    Z=              0.0126  Tot=              0.0258
 Quadrupole moment (field-independent basis, Debye-Ang):
   XX=            -86.0592   YY=            -84.1142   ZZ=            -84.7672
   XY=              1.1144   XZ=             -0.6132   YZ=             -0.9942

 Normal termination of Gaussian 16 at Thu May  6 08:27:10 2021.
