 Gaussian 16, Revision A.03,
 Gaussian 16:  EM64L-G16RevA.03 25-Dec-2016

 -------------
 #p 6-31g* mp2
 -------------

 ------------------------------------------------------
 Input file generated by CHIRIPA (05-May-2021 14:55:22)
 ------------------------------------------------------
 Symbolic Z-matrix:
 Charge =  0 Multiplicity = 1

                         Standard orientation:
 ---------------------------------------------------------------------
 Center     Atomic      Atomic             Coordinates (Angstroms)
 Number     Number       Type             X           Y           Z
 ---------------------------------------------------------------------
      1          6           0       -2.369156    2.453802    0.192873
      2          6           0       -2.678648    1.762197    1.368636
      3          6           0       -3.115184    0.435022    1.317730
      4          6           0       -3.231380   -0.172483    0.068440
      5          6           0       -2.930642    0.489967   -1.120680
      6          6           0       -2.495917    1.816603   -1.045848
      7          1           0       -2.030748    3.484574    0.241710
      8          1           0       -2.581138    2.254525    2.332041
      9          1           0       -3.361504   -0.123877    2.212368
     10          1           0       -3.037687   -0.027465   -2.066313
     11          1           0       -2.256265    2.351251   -1.960596
     12          7           0       -3.692562   -1.577219    0.001884
     13          8           0       -3.786621   -2.089928   -1.111183
     14          8           0       -3.951245   -2.138942    1.064045
     15          6           0        3.321524   -0.336420   -0.129795
     16          6           0        2.301597    0.734694   -0.517671
     17          6           0        0.871025    0.197525   -0.569721
     18          1           0        3.265342   -1.164814   -0.849207
     19          1           0        3.049812   -0.754004    0.849588
     20          1           0        2.575934    1.151105   -1.495402
     21          1           0        2.360345    1.560720    0.202637
     22          1           0        0.573220   -0.200415    0.405757
     23          1           0        0.790033   -0.612357   -1.301930
     24          1           0        0.158350    0.979832   -0.848919
     25          6           0        4.756226    0.185293   -0.073493
     26          6           0        5.776154   -0.885821    0.314383
     27          6           0        7.206726   -0.348652    0.366433
     28          1           0        5.027939    0.602877   -1.052876
     29          1           0        4.812408    1.013687    0.645919
     30          1           0        5.717405   -1.711847   -0.405925
     31          1           0        5.501816   -1.302232    1.292114
     32          1           0        7.287717    0.461231    1.098643
     33          1           0        7.504531    0.049288   -0.609044
     34          1           0        7.919400   -1.130959    0.645631
 ---------------------------------------------------------------------

 SCF Done:  E(RHF) =  -669.534502715     A.U. after   15 cycles
 E2 =    -0.2092774659D+01 EUMP2 =    -0.67162727737375D+03

 The electronic state is 1-A.
 Alpha  occ. eigenvalues --  -20.60776 -20.60771 -15.85830 -11.31220 -11.27792
 Alpha  occ. eigenvalues --  -11.27772 -11.27526 -11.26808 -11.26777 -11.21751
 Alpha  occ. eigenvalues --  -11.21671 -11.21502 -11.21438 -11.21149 -11.21018
 Alpha  occ. eigenvalues --   -1.59850  -1.39404  -1.19395  -1.08790  -1.08526
 Alpha  occ. eigenvalues --   -1.04807  -1.03617  -0.96056  -0.95616  -0.87076
 Alpha  occ. eigenvalues --   -0.86200  -0.82449  -0.79690  -0.78344  -0.77491
 Alpha  occ. eigenvalues --   -0.72050  -0.71170  -0.70499  -0.65161  -0.65048
 Alpha  occ. eigenvalues --   -0.64809  -0.62148  -0.61020  -0.59494  -0.57702
 Alpha  occ. eigenvalues --   -0.55348  -0.55301  -0.53639  -0.52895  -0.52497
 Alpha  occ. eigenvalues --   -0.52188  -0.49988  -0.48810  -0.48802  -0.48007
 Alpha  occ. eigenvalues --   -0.46727  -0.45882  -0.45814  -0.44805  -0.43875
 Alpha  occ. eigenvalues --   -0.37338  -0.36319
 Alpha virt. eigenvalues --    0.05042   0.11165   0.16516   0.21319   0.22778
 Alpha virt. eigenvalues --    0.24272   0.26538   0.27123   0.27367   0.28096
 Alpha virt. eigenvalues --    0.28286   0.30869   0.31283   0.31788   0.32119

 Mulliken charges:
               1
     1  C   -0.168683
     2  C   -0.217356
     3  C   -0.171177
     4  C    0.160253
     5  C   -0.165813
     6  C   -0.223278
     7  H    0.225899
     8  H    0.223519
     9  H    0.275716
    10  H    0.275911
    11  H    0.224003
    12  N    0.488010
    13  O   -0.460226
    14  O   -0.460474
    15  C   -0.298377
    16  C   -0.299353
    17  C   -0.480640
    18  H    0.151344
    19  H    0.150190
    20  H    0.149462
    21  H    0.148021
    22  H    0.155643
    23  H    0.155495
    24  H    0.162634
    25  C   -0.298062
    26  C   -0.299767
    27  C   -0.475698
    28  H    0.148914
    29  H    0.148239
    30  H    0.152904
    31  H    0.152378
    32  H    0.154552
    33  H    0.154966
    34  H    0.160851
 Sum of Mulliken charges =  -0.00000

 Dipole moment (field-independent basis, Debye):
    X=              1.5235    Y=              4.9319    Z=              0.2423  Tot=              5.1676
 Quadrupole moment (field-independent basis, Debye-Ang):
   XX=           -107.3169   YY=            -97.1483   ZZ=            -88.7526
   XY=            -16.8574   XZ=             -1.2552   YZ=              0.4244

 Normal termination of Gaussian 16 at Thu May  6 15:54:28 2021.
