 Gaussian 16, Revision A.03,
 Gaussian 16:  EM64L-G16RevA.03 25-Dec-2016

 -------------
 #p 6-31g* mp2
 -------------

 ------------------------------------------------------
 Input file generated by CHIRIPA (05-May-2021 14:57:25)
 ------------------------------------------------------
 Symbolic Z-matrix:
 Charge =  0 Multiplicity = 1

                         Standard orientation:
 ---------------------------------------------------------------------
 Center     Atomic      Atomic             Coordinates (Angstroms)
 Number     Number       Type             X           Y           Z
 ---------------------------------------------------------------------
      1          6           0       -6.152620    1.032143   -0.748010
      2          6           0       -6.186513    0.167766    0.351182
      3          6           0       -5.014977   -0.438979    0.813688
      4          6           0       -3.821619   -0.157711    0.150306
      5          6           0       -3.755431    0.698919   -0.947462
      6          6           0       -4.939326    1.294499   -1.392687
      7          1           0       -7.067497    1.499141   -1.100584
      8          1           0       -7.127342   -0.037821    0.853796
      9          1           0       -5.012610   -1.112185    1.662338
     10          1           0       -2.802483    0.884486   -1.427955
     11          1           0       -4.910005    1.965363   -2.246576
     12          7           0       -2.574824   -0.794135    0.630793
     13          8           0       -1.536209   -0.529982    0.029014
     14          8           0       -2.659810   -1.545065    1.600080
     15          6           0        3.423099   -2.300911   -0.750120
     16          6           0        2.415591   -1.381137   -0.441144
     17          6           0        2.738619   -0.074326   -0.063723
     18          6           0        4.085499    0.280371   -0.005472
     19          6           0        5.112072   -0.613127   -0.307301
     20          6           0        4.765756   -1.914651   -0.682332
     21          1           0        3.163118   -3.314019   -1.042382
     22          1           0        1.372019   -1.678323   -0.492930
     23          1           0        1.978730    0.657935    0.180780
     24          1           0        6.143432   -0.287501   -0.246625
     25          1           0        5.550305   -2.626842   -0.921730
     26          7           0        4.439801    1.661035    0.392821
     27          8           0        5.633939    1.948721    0.436498
     28          8           0        3.516656    2.429369    0.653786
 ---------------------------------------------------------------------

 SCF Done:  E(RHF) =  -868.340578137     A.U. after   16 cycles
 E2 =    -0.2598181137D+01 EUMP2 =    -0.87093875927352D+03

 The electronic state is 1-A.
 Alpha  occ. eigenvalues --  -20.61605 -20.61568 -20.59990 -20.59981 -15.86613
 Alpha  occ. eigenvalues --  -15.85030 -11.31687 -11.30193 -11.28222 -11.28215
 Alpha  occ. eigenvalues --  -11.27910 -11.27171 -11.27160 -11.26791 -11.26594
 Alpha  occ. eigenvalues --  -11.26431 -11.25807 -11.25478  -1.60642  -1.59067
 Alpha  occ. eigenvalues --   -1.40205  -1.38625  -1.19831  -1.18333  -1.09280
 Alpha  occ. eigenvalues --   -1.07777  -1.05190  -1.03669  -0.96165  -0.94646
 Alpha  occ. eigenvalues --   -0.86603  -0.85091  -0.83012  -0.81457  -0.78086
 Alpha  occ. eigenvalues --   -0.76525  -0.72854  -0.71936  -0.71256  -0.70937
 Alpha  occ. eigenvalues --   -0.70386  -0.69458  -0.65490  -0.65190  -0.63971
 Alpha  occ. eigenvalues --   -0.63637  -0.62541  -0.60989  -0.55702  -0.54223
 Alpha  occ. eigenvalues --   -0.53534  -0.53279  -0.52061  -0.51728  -0.49610
 Alpha  occ. eigenvalues --   -0.49566  -0.48019  -0.47992  -0.45672  -0.44075
 Alpha  occ. eigenvalues --   -0.37793  -0.36779  -0.36342  -0.35273
 Alpha virt. eigenvalues --    0.04424   0.05950   0.10880   0.12363   0.15974
 Alpha virt. eigenvalues --    0.17496   0.21030   0.22557   0.26978   0.27788
 Alpha virt. eigenvalues --    0.28634   0.29301   0.30657   0.32014   0.32266

 Mulliken charges:
               1
     1  C   -0.169721
     2  C   -0.218563
     3  C   -0.170219
     4  C    0.157698
     5  C   -0.170175
     6  C   -0.218426
     7  H    0.227676
     8  H    0.225152
     9  H    0.276243
    10  H    0.275228
    11  H    0.225655
    12  N    0.491376
    13  O   -0.472376
    14  O   -0.456582
    15  C   -0.172272
    16  C   -0.225029
    17  C   -0.173545
    18  C    0.157864
    19  C   -0.173382
    20  C   -0.218794
    21  H    0.223247
    22  H    0.245141
    23  H    0.280390
    24  H    0.271781
    25  H    0.219253
    26  N    0.488092
    27  O   -0.464044
    28  O   -0.461671
 Sum of Mulliken charges =  -0.00000

 Dipole moment (field-independent basis, Debye):
    X=             -6.2558    Y=             -2.6405    Z=             -3.0703  Tot=              7.4521
 Quadrupole moment (field-independent basis, Debye-Ang):
   XX=            -76.3786   YY=           -108.3145   ZZ=           -103.8405
   XY=            -28.3950   XZ=             -2.4385   YZ=             -1.8010

 Normal termination of Gaussian 16 at Thu May  6 09:49:59 2021.
