 Gaussian 16, Revision A.03,
 Gaussian 16:  EM64L-G16RevA.03 25-Dec-2016

 -------------
 #p 6-31g* mp2
 -------------

 ------------------------------------------------------
 Input file generated by CHIRIPA (05-May-2021 14:53:16)
 ------------------------------------------------------
 Symbolic Z-matrix:
 Charge =  0 Multiplicity = 1

                         Standard orientation:
 ---------------------------------------------------------------------
 Center     Atomic      Atomic             Coordinates (Angstroms)
 Number     Number       Type             X           Y           Z
 ---------------------------------------------------------------------
      1          6           0       -2.974245    0.700766   -0.190340
      2          6           0       -4.184462    1.623350   -0.041351
      3          6           0       -3.882231    3.065487   -0.449627
      4          1           0       -2.147131    1.090166    0.418918
      5          1           0       -2.631184    0.723134   -1.233989
      6          1           0       -4.525988    1.598179    1.001406
      7          1           0       -5.008853    1.231603   -0.650884
      8          1           0       -3.562632    3.110777   -1.495766
      9          1           0       -3.077024    3.479436    0.165913
     10          1           0       -4.761074    3.707684   -0.335272
     11          6           0       -3.260675   -0.744302    0.213969
     12          6           0       -2.050458   -1.666886    0.064980
     13          6           0       -2.352690   -3.109024    0.473256
     14          1           0       -3.603736   -0.766671    1.257618
     15          1           0       -4.087789   -1.133702   -0.395290
     16          1           0       -1.226068   -1.275139    0.674513
     17          1           0       -1.708932   -1.641716   -0.977777
     18          1           0       -3.157897   -3.522973   -0.142284
     19          1           0       -2.672289   -3.154313    1.519395
     20          1           0       -1.473846   -3.751221    0.358901
     21          6           0        3.228038    2.356579    0.504805
     22          6           0        2.724398    1.547354    1.528534
     23          6           0        2.282461    0.249445    1.255273
     24          6           0        2.358898   -0.209174   -0.058925
     25          6           0        2.855612    0.572892   -1.100528
     26          6           0        3.291925    1.867627   -0.804151
     27          1           0        3.569161    3.363593    0.726059
     28          1           0        2.673600    1.924441    2.546017
     29          1           0        1.888082   -0.398370    2.028719
     30          1           0        2.893792    0.169184   -2.105007
     31          1           0        3.682589    2.493845   -1.601195
     32          7           0        1.894016   -1.581533   -0.360450
     33          8           0        1.971875   -1.962100   -1.526531
     34          8           0        1.460585   -2.250636    0.575005
 ---------------------------------------------------------------------

 SCF Done:  E(RHF) =  -669.536340049     A.U. after   15 cycles
 E2 =    -0.2092039455D+01 EUMP2 =    -0.67162837950447D+03

 The electronic state is 1-A.
 Alpha  occ. eigenvalues --  -20.60945 -20.60932 -15.85949 -11.31276 -11.27841
 Alpha  occ. eigenvalues --  -11.27830 -11.27572 -11.26847 -11.26836 -11.21376
 Alpha  occ. eigenvalues --  -11.21028 -11.20984 -11.20748 -11.20578 -11.19879
 Alpha  occ. eigenvalues --   -1.59983  -1.39543  -1.19441  -1.08845  -1.07905
 Alpha  occ. eigenvalues --   -1.04839  -1.02909  -0.95691  -0.95372  -0.86404
 Alpha  occ. eigenvalues --   -0.86239  -0.82525  -0.79038  -0.77692  -0.77560
 Alpha  occ. eigenvalues --   -0.72182  -0.71281  -0.70552  -0.65100  -0.64844
 Alpha  occ. eigenvalues --   -0.64548  -0.62189  -0.60320  -0.58788  -0.56931
 Alpha  occ. eigenvalues --   -0.55343  -0.54699  -0.53164  -0.52933  -0.52032
 Alpha  occ. eigenvalues --   -0.51804  -0.49372  -0.48946  -0.48929  -0.47332
 Alpha  occ. eigenvalues --   -0.46138  -0.45432  -0.45166  -0.44585  -0.43162
 Alpha  occ. eigenvalues --   -0.37415  -0.36439
 Alpha virt. eigenvalues --    0.04930   0.11183   0.16399   0.21305   0.23289
 Alpha virt. eigenvalues --    0.24931   0.26881   0.27326   0.27699   0.28395
 Alpha virt. eigenvalues --    0.28647   0.30727   0.31730   0.32104   0.32686

 Mulliken charges:
               1
     1  C   -0.297228
     2  C   -0.298888
     3  C   -0.475011
     4  H    0.145251
     5  H    0.149082
     6  H    0.150889
     7  H    0.152472
     8  H    0.154585
     9  H    0.152234
    10  H    0.159254
    11  C   -0.298145
    12  C   -0.300493
    13  C   -0.477761
    14  H    0.146548
    15  H    0.148280
    16  H    0.153332
    17  H    0.153744
    18  H    0.149295
    19  H    0.148909
    20  H    0.177836
    21  C   -0.170524
    22  C   -0.218540
    23  C   -0.171822
    24  C    0.159342
    25  C   -0.170630
    26  C   -0.218369
    27  H    0.225982
    28  H    0.223703
    29  H    0.275628
    30  H    0.275733
    31  H    0.223829
    32  N    0.489364
    33  O   -0.459019
    34  O   -0.458861
 Sum of Mulliken charges =  -0.00000

 Dipole moment (field-independent basis, Debye):
    X=              1.8778    Y=              4.7095    Z=              1.0221  Tot=              5.1721
 Quadrupole moment (field-independent basis, Debye-Ang):
   XX=            -88.1072   YY=            -98.2829   ZZ=            -89.4443
   XY=             11.5351   XZ=              1.4884   YZ=             -0.6728

 Normal termination of Gaussian 16 at Thu May  6 10:36:56 2021.
