 Gaussian 16, Revision A.03,
 Gaussian 16:  EM64L-G16RevA.03 25-Dec-2016

 -------------
 #p 6-31g* mp2
 -------------

 ------------------------------------------------------
 Input file generated by CHIRIPA (05-May-2021 14:53:11)
 ------------------------------------------------------
 Symbolic Z-matrix:
 Charge =  0 Multiplicity = 1

                         Standard orientation:
 ---------------------------------------------------------------------
 Center     Atomic      Atomic             Coordinates (Angstroms)
 Number     Number       Type             X           Y           Z
 ---------------------------------------------------------------------
      1          6           0        3.202856    0.365255   -0.634902
      2          6           0        3.935145   -0.764073    0.090602
      3          6           0        4.779425   -1.622445   -0.851833
      4          1           0        2.560671   -0.064853   -1.415639
      5          1           0        3.938575    0.998899   -1.149302
      6          1           0        3.198368   -1.394597    0.604622
      7          1           0        4.575515   -0.331239    0.869831
      8          1           0        5.535923   -1.011825   -1.355275
      9          1           0        4.150951   -2.081225   -1.621991
     10          1           0        5.294148   -2.423612   -0.312341
     11          6           0        2.354613    1.232156    0.293912
     12          6           0        1.622325    2.361484   -0.431592
     13          6           0        0.778045    3.219855    0.510843
     14          1           0        1.618894    0.598512    0.808312
     15          1           0        2.996798    1.662264    1.074649
     16          1           0        0.981954    1.928650   -1.210821
     17          1           0        2.359102    2.992008   -0.945612
     18          1           0        1.406518    3.678635    1.281001
     19          1           0        0.021546    2.609236    1.014285
     20          1           0        0.263322    4.021023   -0.028649
     21          6           0       -3.892507    0.974896   -0.786319
     22          6           0       -3.755296   -0.301459   -1.341845
     23          6           0       -2.804745   -1.195630   -0.840387
     24          6           0       -2.004447   -0.778563    0.222095
     25          6           0       -2.117131    0.486400    0.796952
     26          6           0       -3.074430    1.364066    0.279428
     27          1           0       -4.633539    1.663098   -1.182103
     28          1           0       -4.389260   -0.606407   -2.169578
     29          1           0       -2.677325   -2.189655   -1.251599
     30          1           0       -1.470768    0.761805    1.621442
     31          1           0       -3.178768    2.354681    0.712834
     32          7           0       -0.994569   -1.716444    0.761470
     33          8           0       -0.301660   -1.324878    1.698054
     34          8           0       -0.915059   -2.825364    0.237435
 ---------------------------------------------------------------------

 SCF Done:  E(RHF) =  -669.535975450     A.U. after   15 cycles
 E2 =    -0.2093387958D+01 EUMP2 =    -0.67162936340798D+03

 The electronic state is 1-A.
 Alpha  occ. eigenvalues --  -20.61057 -20.61051 -15.86062 -11.31338 -11.27891
 Alpha  occ. eigenvalues --  -11.27884 -11.27611 -11.26890 -11.26874 -11.21413
 Alpha  occ. eigenvalues --  -11.21229 -11.20782 -11.20720 -11.20690 -11.20336
 Alpha  occ. eigenvalues --   -1.60103  -1.39661  -1.19502  -1.08911  -1.07889
 Alpha  occ. eigenvalues --   -1.04892  -1.03079  -0.95765  -0.95554  -0.86592
 Alpha  occ. eigenvalues --   -0.86290  -0.82597  -0.79156  -0.77737  -0.77556
 Alpha  occ. eigenvalues --   -0.72287  -0.71412  -0.70618  -0.65158  -0.64909
 Alpha  occ. eigenvalues --   -0.64507  -0.62272  -0.60462  -0.58959  -0.57137
 Alpha  occ. eigenvalues --   -0.55408  -0.54868  -0.53200  -0.52982  -0.52292
 Alpha  occ. eigenvalues --   -0.51977  -0.49548  -0.49042  -0.49037  -0.47464
 Alpha  occ. eigenvalues --   -0.46186  -0.45456  -0.45195  -0.44591  -0.43290
 Alpha  occ. eigenvalues --   -0.37472  -0.36457
 Alpha virt. eigenvalues --    0.04795   0.11108   0.16244   0.20576   0.23349
 Alpha virt. eigenvalues --    0.24460   0.26092   0.27263   0.27717   0.28457
 Alpha virt. eigenvalues --    0.29470   0.30791   0.31494   0.31886   0.32440

 Mulliken charges:
               1
     1  C   -0.296857
     2  C   -0.303601
     3  C   -0.475335
     4  H    0.147434
     5  H    0.145493
     6  H    0.167883
     7  H    0.149147
     8  H    0.150986
     9  H    0.155398
    10  H    0.160326
    11  C   -0.310738
    12  C   -0.298890
    13  C   -0.474889
    14  H    0.168065
    15  H    0.147799
    16  H    0.149851
    17  H    0.151314
    18  H    0.157409
    19  H    0.145114
    20  H    0.156092
    21  C   -0.170711
    22  C   -0.218355
    23  C   -0.171114
    24  C    0.157861
    25  C   -0.171541
    26  C   -0.217442
    27  H    0.226349
    28  H    0.224032
    29  H    0.275787
    30  H    0.277320
    31  H    0.225350
    32  N    0.487913
    33  O   -0.459381
    34  O   -0.458071
 Sum of Mulliken charges =  -0.00000

 Dipole moment (field-independent basis, Debye):
    X=             -3.7004    Y=              3.1024    Z=             -1.8327  Tot=              5.1649
 Quadrupole moment (field-independent basis, Debye-Ang):
   XX=            -80.7010   YY=            -98.3140   ZZ=            -94.1742
   XY=             -2.1414   XZ=              5.0911   YZ=              4.5274

 Normal termination of Gaussian 16 at Wed May  5 15:27:05 2021.
