 Gaussian 16, Revision A.03,
 Gaussian 16:  EM64L-G16RevA.03 25-Dec-2016

 -------------
 #p 6-31g* mp2
 -------------

 ------------------------------------------------------
 Input file generated by CHIRIPA (05-May-2021 14:51:08)
 ------------------------------------------------------
 Symbolic Z-matrix:
 Charge =  0 Multiplicity = 1

                         Standard orientation:
 ---------------------------------------------------------------------
 Center     Atomic      Atomic             Coordinates (Angstroms)
 Number     Number       Type             X           Y           Z
 ---------------------------------------------------------------------
      1          6           0       -3.110211   -0.425716   -0.347224
      2          6           0       -3.457941   -1.903186   -0.532018
      3          6           0       -2.226540   -2.772884   -0.787112
      4          1           0       -2.583574   -0.064924   -1.241331
      5          1           0       -2.407916   -0.323649    0.491680
      6          1           0       -4.160446   -2.002292   -1.369443
      7          1           0       -3.983980   -2.260452    0.362554
      8          1           0       -1.525682   -2.703673    0.051106
      9          1           0       -1.703150   -2.444046   -1.690732
     10          1           0       -2.498061   -3.825237   -0.916305
     11          6           0       -4.330833    0.456522   -0.091359
     12          6           0       -3.983104    1.933993    0.093435
     13          6           0       -5.214504    2.803691    0.348529
     14          1           0       -5.033128    0.354456   -0.930263
     15          1           0       -4.857470    0.095731    0.802748
     16          1           0       -3.457064    2.291259   -0.801137
     17          1           0       -3.280598    2.033098    0.930860
     18          1           0       -5.737894    2.474852    1.252149
     19          1           0       -5.915362    2.734480   -0.489689
     20          1           0       -4.942983    3.856043    0.477722
     21          6           0        3.378135   -0.620058    0.536459
     22          6           0        1.859730   -0.472269    0.639359
     23          6           0        1.189058   -1.689945    1.275959
     24          1           0        3.613783   -1.518650   -0.050013
     25          1           0        3.792411   -0.784747    1.540773
     26          1           0        1.448587   -0.306529   -0.364686
     27          1           0        1.627669    0.426180    1.225492
     28          1           0        1.571474   -1.854970    2.288445
     29          1           0        1.391375   -2.591843    0.689231
     30          1           0        0.103845   -1.563017    1.339689
     31          6           0        4.062910    0.589252   -0.097875
     32          6           0        5.581315    0.441463   -0.200777
     33          6           0        6.251987    1.659139   -0.837377
     34          1           0        3.648633    0.753940   -1.102191
     35          1           0        3.827261    1.487844    0.488596
     36          1           0        5.813376   -0.456987   -0.786910
     37          1           0        5.992457    0.275722    0.803268
     38          1           0        6.049670    2.561037   -0.250649
     39          1           0        5.869571    1.824164   -1.849862
     40          1           0        7.337200    1.532211   -0.901105
 ---------------------------------------------------------------------

 SCF Done:  E(RHF) =  -470.733065751     A.U. after   11 cycles
 E2 =    -0.1582732418D+01 EUMP2 =    -0.47231579816884D+03

 The electronic state is 1-A.
 Alpha  occ. eigenvalues --  -11.21597 -11.21596 -11.21590 -11.21576 -11.21407
 Alpha  occ. eigenvalues --  -11.21397 -11.21347 -11.21338 -11.21068 -11.21067
 Alpha  occ. eigenvalues --  -11.21067 -11.20979  -1.08432  -1.08414  -1.03546
 Alpha  occ. eigenvalues --   -1.03492  -0.96011  -0.95930  -0.87046  -0.86931
 Alpha  occ. eigenvalues --   -0.79633  -0.79530  -0.78238  -0.78233  -0.65069
 Alpha  occ. eigenvalues --   -0.65044  -0.60979  -0.60886  -0.59458  -0.59237
 Alpha  occ. eigenvalues --   -0.57660  -0.57501  -0.55343  -0.55180  -0.52771
 Alpha  occ. eigenvalues --   -0.52649  -0.52415  -0.52300  -0.49993  -0.49812
 Alpha  occ. eigenvalues --   -0.47964  -0.47823  -0.46660  -0.46549  -0.45789
 Alpha  occ. eigenvalues --   -0.45758  -0.45713  -0.45683  -0.43778  -0.43731
 Alpha virt. eigenvalues --    0.21182   0.23066   0.23517   0.25061   0.26025
 Alpha virt. eigenvalues --    0.26600   0.27115   0.27425   0.27922   0.29145
 Alpha virt. eigenvalues --    0.30434   0.31289   0.31646   0.31921   0.32019

 Mulliken charges:
               1
     1  C   -0.300256
     2  C   -0.299599
     3  C   -0.481739
     4  H    0.149700
     5  H    0.150663
     6  H    0.151767
     7  H    0.151660
     8  H    0.162909
     9  H    0.154289
    10  H    0.159813
    11  C   -0.298259
    12  C   -0.299624
    13  C   -0.475715
    14  H    0.149694
    15  H    0.149644
    16  H    0.152000
    17  H    0.151927
    18  H    0.155164
    19  H    0.155178
    20  H    0.160246
    21  C   -0.298619
    22  C   -0.299284
    23  C   -0.480920
    24  H    0.149822
    25  H    0.149443
    26  H    0.152909
    27  H    0.151635
    28  H    0.154900
    29  H    0.156369
    30  H    0.164270
    31  C   -0.298260
    32  C   -0.299650
    33  C   -0.475696
    34  H    0.149551
    35  H    0.149629
    36  H    0.151968
    37  H    0.151903
    38  H    0.155163
    39  H    0.155169
    40  H    0.160237
 Sum of Mulliken charges =  -0.00000

 Dipole moment (field-independent basis, Debye):
    X=              0.0165    Y=             -0.0001    Z=              0.0044  Tot=              0.0171
 Quadrupole moment (field-independent basis, Debye-Ang):
   XX=            -85.8829   YY=            -85.8320   ZZ=            -83.1458
   XY=              0.0723   XZ=              0.5936   YZ=              0.4279

 Normal termination of Gaussian 16 at Thu May  6 16:32:07 2021.
