 Gaussian 16, Revision A.03,
 Gaussian 16:  EM64L-G16RevA.03 25-Dec-2016

 -------------
 #p 6-31g* mp2
 -------------

 ------------------------------------------------------
 Input file generated by CHIRIPA (05-May-2021 14:53:13)
 ------------------------------------------------------
 Symbolic Z-matrix:
 Charge =  0 Multiplicity = 1

                         Standard orientation:
 ---------------------------------------------------------------------
 Center     Atomic      Atomic             Coordinates (Angstroms)
 Number     Number       Type             X           Y           Z
 ---------------------------------------------------------------------
      1          6           0        3.514745   -0.653684   -0.390368
      2          6           0        2.343683   -1.626752   -0.530864
      3          6           0        2.784397   -3.021992   -0.974564
      4          1           0        4.043115   -0.584640   -1.351098
      5          1           0        4.234677   -1.059411    0.333840
      6          1           0        1.625503   -1.218650   -1.253558
      7          1           0        1.817924   -1.693341    0.430260
      8          1           0        3.483720   -3.453347   -0.251045
      9          1           0        3.290206   -2.975959   -1.944430
     10          1           0        1.931526   -3.701419   -1.068641
     11          6           0        3.090129    0.745333    0.052557
     12          6           0        4.261190    1.718400    0.193053
     13          6           0        3.820477    3.113641    0.636753
     14          1           0        2.370197    1.151060   -0.671651
     15          1           0        2.561758    0.676289    1.013287
     16          1           0        4.786950    1.784990   -0.768071
     17          1           0        4.979370    1.310299    0.915747
     18          1           0        3.314668    3.067608    1.606619
     19          1           0        3.121154    3.544996   -0.086766
     20          1           0        4.673348    3.793068    0.730830
     21          6           0       -1.554939   -1.370938    2.011457
     22          6           0       -2.485617   -0.365561    2.293549
     23          6           0       -3.060008    0.380512    1.260109
     24          6           0       -2.679130    0.093276   -0.049745
     25          6           0       -1.754643   -0.901990   -0.362893
     26          6           0       -1.193061   -1.635478    0.686473
     27          1           0       -1.113713   -1.945617    2.820444
     28          1           0       -2.768536   -0.157927    3.321601
     29          1           0       -3.782952    1.164503    1.450178
     30          1           0       -1.492427   -1.085902   -1.397705
     31          1           0       -0.470540   -2.415674    0.464428
     32          7           0       -3.280433    0.876447   -1.152233
     33          8           0       -2.928153    0.603919   -2.297773
     34          8           0       -4.092628    1.747997   -0.849944
 ---------------------------------------------------------------------

 SCF Done:  E(RHF) =  -669.534902532     A.U. after   15 cycles
 E2 =    -0.2092253546D+01 EUMP2 =    -0.67162715607778D+03

 The electronic state is 1-A.
 Alpha  occ. eigenvalues --  -20.60750 -20.60744 -15.85801 -11.31158 -11.27713
 Alpha  occ. eigenvalues --  -11.27701 -11.27453 -11.26745 -11.26682 -11.22350
 Alpha  occ. eigenvalues --  -11.21888 -11.21848 -11.21847 -11.21698 -11.21232
 Alpha  occ. eigenvalues --   -1.59825  -1.39378  -1.19323  -1.08900  -1.08720
 Alpha  occ. eigenvalues --   -1.04727  -1.04015  -0.96445  -0.95560  -0.87457
 Alpha  occ. eigenvalues --   -0.86128  -0.82401  -0.80121  -0.78688  -0.77420
 Alpha  occ. eigenvalues --   -0.72020  -0.71147  -0.70435  -0.65553  -0.64973
 Alpha  occ. eigenvalues --   -0.64730  -0.62114  -0.61396  -0.59832  -0.58056
 Alpha  occ. eigenvalues --   -0.55710  -0.55226  -0.53196  -0.53051  -0.52846
 Alpha  occ. eigenvalues --   -0.52814  -0.50368  -0.48787  -0.48776  -0.48387
 Alpha  occ. eigenvalues --   -0.47131  -0.46211  -0.46115  -0.44786  -0.44252
 Alpha  occ. eigenvalues --   -0.37300  -0.36280
 Alpha virt. eigenvalues --    0.05077   0.11238   0.16543   0.20060   0.22688
 Alpha virt. eigenvalues --    0.23775   0.25601   0.26034   0.26974   0.28149
 Alpha virt. eigenvalues --    0.29015   0.29982   0.30885   0.31745   0.32001

 Mulliken charges:
               1
     1  C   -0.298186
     2  C   -0.304076
     3  C   -0.477504
     4  H    0.152584
     5  H    0.149683
     6  H    0.152582
     7  H    0.146520
     8  H    0.157244
     9  H    0.160901
    10  H    0.154562
    11  C   -0.298989
    12  C   -0.300146
    13  C   -0.476075
    14  H    0.153247
    15  H    0.148558
    16  H    0.153328
    17  H    0.151127
    18  H    0.154289
    19  H    0.157973
    20  H    0.161099
    21  C   -0.173467
    22  C   -0.218063
    23  C   -0.171302
    24  C    0.158579
    25  C   -0.172945
    26  C   -0.215970
    27  H    0.225132
    28  H    0.223158
    29  H    0.275381
    30  H    0.275075
    31  H    0.228792
    32  N    0.488117
    33  O   -0.460751
    34  O   -0.460457
 Sum of Mulliken charges =  -0.00000

 Dipole moment (field-independent basis, Debye):
    X=              2.2396    Y=             -2.6856    Z=              3.8473  Tot=              5.1991
 Quadrupole moment (field-independent basis, Debye-Ang):
   XX=           -105.0153   YY=            -95.5422   ZZ=            -92.4131
   XY=              6.2101   XZ=            -12.6821   YZ=              1.8702

 Normal termination of Gaussian 16 at Wed May  5 20:12:02 2021.
