 Gaussian 16, Revision A.03,
 Gaussian 16:  EM64L-G16RevA.03 25-Dec-2016

 -------------
 #p 6-31g* mp2
 -------------

 ------------------------------------------------------
 Input file generated by CHIRIPA (05-May-2021 14:51:13)
 ------------------------------------------------------
 Symbolic Z-matrix:
 Charge =  0 Multiplicity = 1

                         Standard orientation:
 ---------------------------------------------------------------------
 Center     Atomic      Atomic             Coordinates (Angstroms)
 Number     Number       Type             X           Y           Z
 ---------------------------------------------------------------------
      1          6           0       -3.450643    0.624461    0.219960
      2          6           0       -3.325989    1.861004   -0.670774
      3          6           0       -2.514148    2.980276   -0.018135
      4          1           0       -3.918350    0.911600    1.171667
      5          1           0       -2.445306    0.254655    0.464781
      6          1           0       -4.331287    2.227551   -0.914977
      7          1           0       -2.858699    1.570852   -1.620546
      8          1           0       -1.499782    2.637554    0.210346
      9          1           0       -2.980738    3.297985    0.919924
     10          1           0       -2.437624    3.854525   -0.672118
     11          6           0       -4.259517   -0.503173   -0.418705
     12          6           0       -4.384170   -1.739716    0.472030
     13          6           0       -5.196011   -2.858988   -0.180609
     14          1           0       -5.264853   -0.133367   -0.663526
     15          1           0       -3.791809   -0.790312   -1.370411
     16          1           0       -4.851461   -1.449563    1.421802
     17          1           0       -3.378872   -2.106263    0.716233
     18          1           0       -4.729421   -3.176697   -1.118669
     19          1           0       -6.210377   -2.516266   -0.409091
     20          1           0       -5.272536   -3.733237    0.473373
     21          6           0        3.183990    0.200360   -0.155475
     22          6           0        2.137353    0.360843    0.947604
     23          6           0        0.800125    0.883825    0.422145
     24          1           0        3.336633    1.168902   -0.651026
     25          1           0        2.796689   -0.485256   -0.921845
     26          1           0        2.527072    1.044872    1.712351
     27          1           0        1.987324   -0.608151    1.440713
     28          1           0        0.385849    0.199674   -0.325461
     29          1           0        0.928663    1.862090   -0.052279
     30          1           0        0.066616    0.991016    1.227336
     31          6           0        4.526170   -0.321649    0.354219
     32          6           0        5.572806   -0.482131   -0.748859
     33          6           0        6.910034   -1.005113   -0.223401
     34          1           0        4.913470    0.363968    1.120589
     35          1           0        4.373526   -1.290191    0.849771
     36          1           0        5.722836    0.486863   -1.241968
     37          1           0        5.183088   -1.166160   -1.513608
     38          1           0        6.781496   -1.983378    0.251023
     39          1           0        7.324310   -0.320962    0.524205
     40          1           0        7.643544   -1.112304   -1.028591
 ---------------------------------------------------------------------

 SCF Done:  E(RHF) =  -470.732707842     A.U. after   11 cycles
 E2 =    -0.1583209127D+01 EUMP2 =    -0.47231591696939D+03

 The electronic state is 1-A.
 Alpha  occ. eigenvalues --  -11.21679 -11.21637 -11.21562 -11.21478 -11.21460
 Alpha  occ. eigenvalues --  -11.21398 -11.21323 -11.21241 -11.21193 -11.21098
 Alpha  occ. eigenvalues --  -11.21044 -11.20854  -1.08491  -1.08343  -1.03610
 Alpha  occ. eigenvalues --   -1.03431  -0.96073  -0.95876  -0.87106  -0.86889
 Alpha  occ. eigenvalues --   -0.79722  -0.79465  -0.78307  -0.78147  -0.65121
 Alpha  occ. eigenvalues --   -0.64980  -0.61009  -0.60860  -0.59472  -0.59205
 Alpha  occ. eigenvalues --   -0.57661  -0.57504  -0.55467  -0.55082  -0.52818
 Alpha  occ. eigenvalues --   -0.52579  -0.52484  -0.52279  -0.50129  -0.49679
 Alpha  occ. eigenvalues --   -0.47981  -0.47813  -0.46701  -0.46518  -0.45862
 Alpha  occ. eigenvalues --   -0.45763  -0.45694  -0.45608  -0.43769  -0.43685
 Alpha virt. eigenvalues --    0.21686   0.22979   0.23737   0.24720   0.26209
 Alpha virt. eigenvalues --    0.26483   0.27253   0.27470   0.27952   0.29188
 Alpha virt. eigenvalues --    0.30659   0.30871   0.31375   0.31890   0.32274

 Mulliken charges:
               1
     1  C   -0.303726
     2  C   -0.297973
     3  C   -0.485528
     4  H    0.148753
     5  H    0.155213
     6  H    0.151128
     7  H    0.151250
     8  H    0.167970
     9  H    0.153590
    10  H    0.158804
    11  C   -0.297957
    12  C   -0.299538
    13  C   -0.475620
    14  H    0.149354
    15  H    0.149163
    16  H    0.151825
    17  H    0.151553
    18  H    0.154982
    19  H    0.155188
    20  H    0.160015
    21  C   -0.298868
    22  C   -0.299978
    23  C   -0.480952
    24  H    0.149972
    25  H    0.149477
    26  H    0.152586
    27  H    0.152196
    28  H    0.155926
    29  H    0.156775
    30  H    0.163876
    31  C   -0.298381
    32  C   -0.299661
    33  C   -0.475740
    34  H    0.149719
    35  H    0.149748
    36  H    0.152045
    37  H    0.151940
    38  H    0.155226
    39  H    0.155271
    40  H    0.160380
 Sum of Mulliken charges =  -0.00000

 Dipole moment (field-independent basis, Debye):
    X=              0.0943    Y=             -0.0096    Z=              0.0155  Tot=              0.0961
 Quadrupole moment (field-independent basis, Debye-Ang):
   XX=            -85.5659   YY=            -84.7955   ZZ=            -84.7773
   XY=             -0.0132   XZ=             -0.7405   YZ=              0.1197

 Normal termination of Gaussian 16 at Thu May  6 03:57:52 2021.
