 Gaussian 16, Revision A.03,
 Gaussian 16:  EM64L-G16RevA.03 25-Dec-2016

 -------------
 #p 6-31g* mp2
 -------------

 ------------------------------------------------------
 Input file generated by CHIRIPA (05-May-2021 14:53:14)
 ------------------------------------------------------
 Symbolic Z-matrix:
 Charge =  0 Multiplicity = 1

                         Standard orientation:
 ---------------------------------------------------------------------
 Center     Atomic      Atomic             Coordinates (Angstroms)
 Number     Number       Type             X           Y           Z
 ---------------------------------------------------------------------
      1          6           0        3.397308    0.628659    0.106365
      2          6           0        3.242180    1.622390    1.258068
      3          6           0        2.068810    2.581852    1.056999
      4          1           0        3.531999    1.183232   -0.832386
      5          1           0        2.466839    0.054079   -0.000779
      6          1           0        4.173156    2.193966    1.363899
      7          1           0        3.108034    1.065385    2.194212
      8          1           0        1.128195    2.027912    0.973373
      9          1           0        2.199368    3.162906    0.138341
     10          1           0        1.976284    3.283434    1.891914
     11          6           0        4.566097   -0.337196    0.292868
     12          6           0        4.721225   -1.330927   -0.858836
     13          6           0        5.894595   -2.290390   -0.657767
     14          1           0        5.496567    0.237383    0.400011
     15          1           0        4.431406   -0.891769    1.231618
     16          1           0        4.855371   -0.773922   -1.794980
     17          1           0        3.790249   -1.902503   -0.964667
     18          1           0        5.764037   -2.871443    0.260891
     19          1           0        6.835211   -1.736450   -0.574140
     20          1           0        5.987121   -2.991972   -1.492681
     21          6           0       -4.538677   -1.976516    0.769959
     22          6           0       -3.144515   -2.088439    0.787449
     23          6           0       -2.343408   -1.062595    0.277135
     24          6           0       -2.972654    0.066223   -0.245464
     25          6           0       -4.359161    0.207262   -0.277049
     26          6           0       -5.140490   -0.831042    0.238702
     27          1           0       -5.153314   -2.778255    1.168494
     28          1           0       -2.674398   -2.976877    1.199410
     29          1           0       -1.261860   -1.123188    0.278182
     30          1           0       -4.798905    1.105031   -0.694246
     31          1           0       -6.222980   -0.741390    0.223809
     32          7           0       -2.135027    1.158833   -0.788587
     33          8           0       -2.713786    2.143082   -1.243481
     34          8           0       -0.915597    1.010283   -0.749110
 ---------------------------------------------------------------------

 SCF Done:  E(RHF) =  -669.535978219     A.U. after   15 cycles
 E2 =    -0.2091057654D+01 EUMP2 =    -0.67162703587347D+03

 The electronic state is 1-A.
 Alpha  occ. eigenvalues --  -20.60941 -20.60931 -15.85969 -11.31300 -11.27871
 Alpha  occ. eigenvalues --  -11.27859 -11.27602 -11.26875 -11.26864 -11.21171
 Alpha  occ. eigenvalues --  -11.20822 -11.20760 -11.20710 -11.20526 -11.19730
 Alpha  occ. eigenvalues --   -1.59997  -1.39554  -1.19470  -1.08871  -1.07743
 Alpha  occ. eigenvalues --   -1.04868  -1.02801  -0.95713  -0.95225  -0.86270
 Alpha  occ. eigenvalues --   -0.86233  -0.82547  -0.78895  -0.77619  -0.77484
 Alpha  occ. eigenvalues --   -0.72192  -0.71310  -0.70579  -0.65127  -0.64871
 Alpha  occ. eigenvalues --   -0.64388  -0.62217  -0.60208  -0.58648  -0.56826
 Alpha  occ. eigenvalues --   -0.55371  -0.54510  -0.53198  -0.52961  -0.51943
 Alpha  occ. eigenvalues --   -0.51621  -0.49182  -0.48953  -0.48923  -0.47181
 Alpha  occ. eigenvalues --   -0.45966  -0.45118  -0.45024  -0.44768  -0.43068
 Alpha  occ. eigenvalues --   -0.37447  -0.36470
 Alpha virt. eigenvalues --    0.04899   0.11185   0.16368   0.21156   0.23382
 Alpha virt. eigenvalues --    0.24914   0.26587   0.27418   0.27801   0.28687
 Alpha virt. eigenvalues --    0.28917   0.30795   0.31853   0.32292   0.32566

 Mulliken charges:
               1
     1  C   -0.297148
     2  C   -0.299801
     3  C   -0.480290
     4  H    0.152190
     5  H    0.152718
     6  H    0.147925
     7  H    0.145424
     8  H    0.173170
     9  H    0.157747
    10  H    0.152345
    11  C   -0.297902
    12  C   -0.298416
    13  C   -0.475185
    14  H    0.148311
    15  H    0.145688
    16  H    0.153266
    17  H    0.149437
    18  H    0.153016
    19  H    0.155058
    20  H    0.158641
    21  C   -0.170623
    22  C   -0.218458
    23  C   -0.170734
    24  C    0.158203
    25  C   -0.170728
    26  C   -0.218516
    27  H    0.226036
    28  H    0.223804
    29  H    0.274929
    30  H    0.275950
    31  H    0.223876
    32  N    0.490151
    33  O   -0.458440
    34  O   -0.461645
 Sum of Mulliken charges =  -0.00000

 Dipole moment (field-independent basis, Debye):
    X=             -3.2398    Y=             -3.8037    Z=              1.7990  Tot=              5.3104
 Quadrupole moment (field-independent basis, Debye-Ang):
   XX=            -74.9955   YY=            -94.7594   ZZ=            -96.2922
   XY=             10.1102   XZ=             -4.6737   YZ=             -0.3180

 Normal termination of Gaussian 16 at Thu May  6 13:47:28 2021.
