 Gaussian 16, Revision A.03,
 Gaussian 16:  EM64L-G16RevA.03 25-Dec-2016

 -------------
 #p 6-31g* mp2
 -------------

 ------------------------------------------------------
 Input file generated by CHIRIPA (05-May-2021 14:53:12)
 ------------------------------------------------------
 Symbolic Z-matrix:
 Charge =  0 Multiplicity = 1

                         Standard orientation:
 ---------------------------------------------------------------------
 Center     Atomic      Atomic             Coordinates (Angstroms)
 Number     Number       Type             X           Y           Z
 ---------------------------------------------------------------------
      1          6           0        3.243704   -0.410915   -0.123870
      2          6           0        4.486993   -1.055509   -0.737641
      3          6           0        4.393269   -2.580395   -0.798729
      4          1           0        3.092522   -0.811237    0.887976
      5          1           0        2.361070   -0.701756   -0.710184
      6          1           0        5.367195   -0.762419   -0.151161
      7          1           0        4.635343   -0.653464   -1.748070
      8          1           0        3.532816   -2.889658   -1.400874
      9          1           0        4.268827   -2.999232    0.205109
     10          1           0        5.292530   -3.020498   -1.240882
     11          6           0        3.322377    1.113199   -0.055936
     12          6           0        2.079087    1.757792    0.557835
     13          6           0        2.172811    3.282678    0.618923
     14          1           0        4.205011    1.404039    0.530378
     15          1           0        3.473559    1.513520   -1.067782
     16          1           0        1.930738    1.355747    1.568264
     17          1           0        1.198885    1.464702   -0.028645
     18          1           0        2.297253    3.701515   -0.384915
     19          1           0        3.033264    3.591941    1.221068
     20          1           0        1.273550    3.722781    1.061076
     21          6           0       -1.387311   -0.927623    2.203890
     22          6           0       -0.643020   -0.588606    1.069156
     23          6           0       -1.284879   -0.225062   -0.118448
     24          6           0       -2.678717   -0.211171   -0.136037
     25          6           0       -3.448089   -0.543725    0.977860
     26          6           0       -2.785006   -0.904142    2.154706
     27          1           0       -0.880456   -1.208818    3.122270
     28          1           0        0.442566   -0.605961    1.104447
     29          1           0       -0.733218    0.041998   -1.011626
     30          1           0       -4.529007   -0.517161    0.912065
     31          1           0       -3.365604   -1.166945    3.034413
     32          7           0       -3.369459    0.172041   -1.387605
     33          8           0       -4.598488    0.176459   -1.377255
     34          8           0       -2.668755    0.460728   -2.355237
 ---------------------------------------------------------------------

 SCF Done:  E(RHF) =  -669.533847215     A.U. after   15 cycles
 E2 =    -0.2093935058D+01 EUMP2 =    -0.67162778227350D+03

 The electronic state is 1-A.
 Alpha  occ. eigenvalues --  -20.60714 -20.60709 -15.85763 -11.31104 -11.27645
 Alpha  occ. eigenvalues --  -11.27626 -11.27353 -11.26681 -11.26521 -11.22447
 Alpha  occ. eigenvalues --  -11.22422 -11.22294 -11.22158 -11.21654 -11.21617
 Alpha  occ. eigenvalues --   -1.59789  -1.39343  -1.19255  -1.09291  -1.08651
 Alpha  occ. eigenvalues --   -1.04667  -1.04235  -0.96683  -0.95501  -0.87698
 Alpha  occ. eigenvalues --   -0.86054  -0.82371  -0.80357  -0.79219  -0.77324
 Alpha  occ. eigenvalues --   -0.71983  -0.71110  -0.70376  -0.65920  -0.64895
 Alpha  occ. eigenvalues --   -0.64651  -0.62063  -0.61609  -0.60030  -0.58323
 Alpha  occ. eigenvalues --   -0.55959  -0.55157  -0.53386  -0.53152  -0.52944
 Alpha  occ. eigenvalues --   -0.52716  -0.50615  -0.48752  -0.48744  -0.48631
 Alpha  occ. eigenvalues --   -0.47376  -0.46590  -0.46538  -0.44754  -0.44537
 Alpha  occ. eigenvalues --   -0.37233  -0.36198
 Alpha virt. eigenvalues --    0.05105   0.11354   0.16551   0.19917   0.22651
 Alpha virt. eigenvalues --    0.23749   0.24185   0.25124   0.27239   0.28526
 Alpha virt. eigenvalues --    0.29987   0.30769   0.31162   0.31423   0.31802

 Mulliken charges:
               1
     1  C   -0.305488
     2  C   -0.299258
     3  C   -0.476830
     4  H    0.144316
     5  H    0.146570
     6  H    0.154358
     7  H    0.156309
     8  H    0.157050
     9  H    0.153872
    10  H    0.163664
    11  C   -0.296877
    12  C   -0.307150
    13  C   -0.475543
    14  H    0.152535
    15  H    0.154997
    16  H    0.146451
    17  H    0.152436
    18  H    0.159565
    19  H    0.156273
    20  H    0.163824
    21  C   -0.174923
    22  C   -0.219515
    23  C   -0.177820
    24  C    0.158674
    25  C   -0.172114
    26  C   -0.217913
    27  H    0.225007
    28  H    0.238900
    29  H    0.274134
    30  H    0.275043
    31  H    0.222844
    32  N    0.488385
    33  O   -0.460606
    34  O   -0.461171
 Sum of Mulliken charges =  -0.00000

 Dipole moment (field-independent basis, Debye):
    X=              2.6749    Y=             -1.2590    Z=              4.3506  Tot=              5.2601
 Quadrupole moment (field-independent basis, Debye-Ang):
   XX=           -103.1216   YY=            -95.6742   ZZ=            -94.6424
   XY=              3.9453   XZ=            -14.4268   YZ=             -1.2502

 Normal termination of Gaussian 16 at Wed May  5 21:45:16 2021.
