 Gaussian 16, Revision A.03,
 Gaussian 16:  EM64L-G16RevA.03 25-Dec-2016

 -------------
 #p 6-31g* mp2
 -------------

 ------------------------------------------------------
 Input file generated by CHIRIPA (05-May-2021 14:51:10)
 ------------------------------------------------------
 Symbolic Z-matrix:
 Charge =  0 Multiplicity = 1

                         Standard orientation:
 ---------------------------------------------------------------------
 Center     Atomic      Atomic             Coordinates (Angstroms)
 Number     Number       Type             X           Y           Z
 ---------------------------------------------------------------------
      1          6           0        1.736761   -0.799603    0.649019
      2          6           0        1.601387   -2.283863    0.990535
      3          6           0        0.401075   -2.576083    1.891452
      4          1           0        1.825784   -0.222415    1.579542
      5          1           0        0.815722   -0.458360    0.156438
      6          1           0        2.522950   -2.622539    1.481081
      7          1           0        1.512868   -2.857603    0.059083
      8          1           0       -0.529708   -2.265460    1.405904
      9          1           0        0.486113   -2.029060    2.835982
     10          1           0        0.323260   -3.642926    2.123081
     11          6           0        2.932114   -0.491617   -0.250983
     12          6           0        3.067487    0.992643   -0.592498
     13          6           0        4.267799    1.284863   -1.493416
     14          1           0        3.853152   -0.832860    0.241598
     15          1           0        2.843090   -1.068805   -1.181506
     16          1           0        3.156006    1.566384    0.338953
     17          1           0        2.145925    1.331319   -1.083045
     18          1           0        4.182761    0.737841   -2.437946
     19          1           0        5.198582    0.974240   -1.007868
     20          1           0        4.345614    2.351706   -1.725045
     21          6           0       -1.949029    1.305062   -0.203025
     22          6           0       -2.093738    2.099860    1.095181
     23          6           0       -1.316996    3.416646    1.071857
     24          1           0       -0.884751    1.101467   -0.384146
     25          1           0       -2.296634    1.922051   -1.043198
     26          1           0       -1.747256    1.481050    1.932820
     27          1           0       -3.157811    2.301422    1.273332
     28          1           0       -1.667513    4.056261    0.255382
     29          1           0       -0.248943    3.231228    0.918617
     30          1           0       -1.434379    3.968658    2.009601
     31          6           0       -2.719845   -0.013842   -0.195011
     32          6           0       -2.575137   -0.808641   -1.493217
     33          6           0       -3.351878   -2.125426   -1.469893
     34          1           0       -2.372240   -0.630832    0.645161
     35          1           0       -3.784124    0.189753   -0.013890
     36          1           0       -1.511063   -1.010202   -1.671368
     37          1           0       -2.921619   -0.189829   -2.330856
     38          1           0       -4.419931   -1.940008   -1.316654
     39          1           0       -3.001362   -2.765041   -0.653418
     40          1           0       -3.234495   -2.677438   -2.407637
 ---------------------------------------------------------------------

 SCF Done:  E(RHF) =  -470.733111955     A.U. after   11 cycles
 E2 =    -0.1584712309D+01 EUMP2 =    -0.47231782426374D+03

 The electronic state is 1-A.
 Alpha  occ. eigenvalues --  -11.21676 -11.21669 -11.21657 -11.21573 -11.21472
 Alpha  occ. eigenvalues --  -11.21413 -11.21412 -11.21342 -11.21155 -11.21111
 Alpha  occ. eigenvalues --  -11.21108 -11.21035  -1.08529  -1.08424  -1.03600
 Alpha  occ. eigenvalues --   -1.03535  -0.96050  -0.95985  -0.87071  -0.86996
 Alpha  occ. eigenvalues --   -0.79666  -0.79599  -0.78395  -0.78200  -0.65412
 Alpha  occ. eigenvalues --   -0.64836  -0.61073  -0.60856  -0.59413  -0.59353
 Alpha  occ. eigenvalues --   -0.57696  -0.57565  -0.55382  -0.55247  -0.52739
 Alpha  occ. eigenvalues --   -0.52681  -0.52484  -0.52412  -0.50068  -0.49867
 Alpha  occ. eigenvalues --   -0.48018  -0.47887  -0.46781  -0.46617  -0.46305
 Alpha  occ. eigenvalues --   -0.45832  -0.45680  -0.45182  -0.43850  -0.43790
 Alpha virt. eigenvalues --    0.18920   0.22062   0.23633   0.24869   0.25241
 Alpha virt. eigenvalues --    0.25749   0.26827   0.27867   0.28996   0.30040
 Alpha virt. eigenvalues --    0.30899   0.31187   0.31701   0.31938   0.32717

 Mulliken charges:
               1
     1  C   -0.308061
     2  C   -0.298830
     3  C   -0.481511
     4  H    0.149556
     5  H    0.158427
     6  H    0.152470
     7  H    0.152068
     8  H    0.159450
     9  H    0.155410
    10  H    0.160962
    11  C   -0.297742
    12  C   -0.301949
    13  C   -0.475721
    14  H    0.149990
    15  H    0.149693
    16  H    0.152018
    17  H    0.153201
    18  H    0.155412
    19  H    0.155425
    20  H    0.160669
    21  C   -0.304887
    22  C   -0.299414
    23  C   -0.476576
    24  H    0.155469
    25  H    0.149593
    26  H    0.152691
    27  H    0.151796
    28  H    0.154871
    29  H    0.156420
    30  H    0.160023
    31  C   -0.303747
    32  C   -0.300845
    33  C   -0.476512
    34  H    0.154207
    35  H    0.150394
    36  H    0.151374
    37  H    0.152457
    38  H    0.155621
    39  H    0.155769
    40  H    0.160359
 Sum of Mulliken charges =  -0.00000

 Dipole moment (field-independent basis, Debye):
    X=              0.0184    Y=             -0.0058    Z=              0.0042  Tot=              0.0197
 Quadrupole moment (field-independent basis, Debye-Ang):
   XX=            -84.6040   YY=            -85.6523   ZZ=            -84.3710
   XY=             -1.0900   XZ=              1.2590   YZ=              0.0275

 Normal termination of Gaussian 16 at Thu May  6 03:49:06 2021.
