 Gaussian 16, Revision A.03,
 Gaussian 16:  EM64L-G16RevA.03 25-Dec-2016

 -------------
 #p 6-31g* mp2
 -------------

 ------------------------------------------------------
 Input file generated by CHIRIPA (05-May-2021 14:57:23)
 ------------------------------------------------------
 Symbolic Z-matrix:
 Charge =  0 Multiplicity = 1

                         Standard orientation:
 ---------------------------------------------------------------------
 Center     Atomic      Atomic             Coordinates (Angstroms)
 Number     Number       Type             X           Y           Z
 ---------------------------------------------------------------------
      1          6           0        2.208840    2.765276    0.223659
      2          6           0        3.546882    2.408800    0.421373
      3          6           0        3.961884    1.084940    0.248990
      4          6           0        3.007958    0.138978   -0.123129
      5          6           0        1.667614    0.462979   -0.327556
      6          6           0        1.275123    1.792942   -0.149516
      7          1           0        1.895200    3.796052    0.359768
      8          1           0        4.274205    3.161819    0.711214
      9          1           0        4.991380    0.781470    0.395488
     10          1           0        0.965621   -0.309886   -0.616178
     11          1           0        0.235314    2.066903   -0.303751
     12          7           0        3.435387   -1.265763   -0.308617
     13          8           0        2.575526   -2.080398   -0.636713
     14          8           0        4.622173   -1.525566   -0.122395
     15          6           0       -1.159363   -2.019740    0.788333
     16          6           0       -1.402792   -1.783816   -0.568724
     17          6           0       -2.385562   -0.872192   -0.965777
     18          6           0       -3.109418   -0.211054    0.025293
     19          6           0       -2.890312   -0.424517    1.385336
     20          6           0       -1.902589   -1.340534    1.759320
     21          1           0       -0.393998   -2.729617    1.087813
     22          1           0       -0.827132   -2.309856   -1.324993
     23          1           0       -2.594690   -0.670496   -2.009329
     24          1           0       -3.480375    0.115041    2.116171
     25          1           0       -1.715704   -1.521758    2.813965
     26          7           0       -4.152454    0.756367   -0.382839
     27          8           0       -4.776481    1.326019    0.509757
     28          8           0       -4.326210    0.926662   -1.587598
 ---------------------------------------------------------------------

 SCF Done:  E(RHF) =  -868.339716269     A.U. after   16 cycles
 E2 =    -0.2601313038D+01 EUMP2 =    -0.87094102930649D+03

 The electronic state is 1-A.
 Alpha  occ. eigenvalues --  -20.61470 -20.61403 -20.61195 -20.61189 -15.86473
 Alpha  occ. eigenvalues --  -15.86248 -11.31596 -11.31521 -11.28156 -11.28152
 Alpha  occ. eigenvalues --  -11.28080 -11.27961 -11.27748 -11.27697 -11.27061
 Alpha  occ. eigenvalues --  -11.27029 -11.26977 -11.26966  -1.60503  -1.60278
 Alpha  occ. eigenvalues --   -1.40072  -1.39829  -1.19763  -1.19671  -1.09130
 Alpha  occ. eigenvalues --   -1.09108  -1.05152  -1.05009  -0.96024  -0.95931
 Alpha  occ. eigenvalues --   -0.86540  -0.86397  -0.82862  -0.82765  -0.77976
 Alpha  occ. eigenvalues --   -0.77829  -0.72712  -0.72450  -0.71817  -0.71618
 Alpha  occ. eigenvalues --   -0.70791  -0.70706  -0.65364  -0.65323  -0.65126
 Alpha  occ. eigenvalues --   -0.64942  -0.62508  -0.62340  -0.55571  -0.55460
 Alpha  occ. eigenvalues --   -0.53627  -0.53366  -0.53151  -0.52942  -0.49475
 Alpha  occ. eigenvalues --   -0.49413  -0.49217  -0.49208  -0.45544  -0.45238
 Alpha  occ. eigenvalues --   -0.37746  -0.37606  -0.36775  -0.36584
 Alpha virt. eigenvalues --    0.04429   0.04767   0.10756   0.11020   0.16106
 Alpha virt. eigenvalues --    0.16157   0.20983   0.21630   0.26693   0.27290
 Alpha virt. eigenvalues --    0.28179   0.28629   0.30748   0.31212   0.31949

 Mulliken charges:
               1
     1  C   -0.169959
     2  C   -0.219489
     3  C   -0.170164
     4  C    0.155088
     5  C   -0.176052
     6  C   -0.224282
     7  H    0.228457
     8  H    0.224531
     9  H    0.275410
    10  H    0.282851
    11  H    0.227796
    12  N    0.488530
    13  O   -0.472479
    14  O   -0.456518
    15  C   -0.170673
    16  C   -0.239153
    17  C   -0.175514
    18  C    0.154827
    19  C   -0.171940
    20  C   -0.218941
    21  H    0.241653
    22  H    0.239411
    23  H    0.277062
    24  H    0.276074
    25  H    0.226139
    26  N    0.487517
    27  O   -0.460086
    28  O   -0.460095
 Sum of Mulliken charges =  -0.00000

 Dipole moment (field-independent basis, Debye):
    X=              2.1679    Y=              1.4714    Z=              2.1902  Tot=              3.4149
 Quadrupole moment (field-independent basis, Debye-Ang):
   XX=           -133.0275   YY=           -102.0369   ZZ=           -100.7184
   XY=             26.2386   XZ=             -2.0911   YZ=              0.3347

 Normal termination of Gaussian 16 at Wed May  5 19:25:35 2021.
