 Gaussian 16, Revision A.03,
 Gaussian 16:  EM64L-G16RevA.03 25-Dec-2016

 -------------
 #p 6-31g* mp2
 -------------

 ------------------------------------------------------
 Input file generated by CHIRIPA (05-May-2021 14:51:11)
 ------------------------------------------------------
 Symbolic Z-matrix:
 Charge =  0 Multiplicity = 1

                         Standard orientation:
 ---------------------------------------------------------------------
 Center     Atomic      Atomic             Coordinates (Angstroms)
 Number     Number       Type             X           Y           Z
 ---------------------------------------------------------------------
      1          6           0       -3.005634   -0.739369    0.480481
      2          6           0       -1.601453   -0.318130    0.915012
      3          6           0       -0.755631   -1.494827    1.402624
      4          1           0       -3.510858   -1.231859    1.322590
      5          1           0       -2.925092   -1.489979   -0.317950
      6          1           0       -1.684630    0.432480    1.711430
      7          1           0       -1.099582    0.173585    0.071829
      8          1           0       -0.643014   -2.242536    0.610885
      9          1           0       -1.231386   -1.982169    2.259802
     10          1           0        0.244200   -1.171137    1.708276
     11          6           0       -3.863268    0.425987   -0.009554
     12          6           0       -5.267450    0.004748   -0.444085
     13          6           0       -6.113272    1.181445   -0.931697
     14          1           0       -3.943811    1.176597    0.788877
     15          1           0       -3.358044    0.918477   -0.851663
     16          1           0       -5.769321   -0.486967    0.399098
     17          1           0       -5.184272   -0.745862   -1.240503
     18          1           0       -5.637516    1.668787   -1.788875
     19          1           0       -6.225889    1.929154   -0.139958
     20          1           0       -7.113103    0.857755   -1.237349
     21          6           0        3.438496   -0.447634   -0.702589
     22          6           0        3.195652   -1.773560    0.019167
     23          6           0        3.206640   -2.973243   -0.928691
     24          1           0        2.670282   -0.312540   -1.476245
     25          1           0        4.403835   -0.494203   -1.225414
     26          1           0        2.231696   -1.724001    0.541612
     27          1           0        3.964419   -1.905424    0.791322
     28          1           0        4.171230   -3.050863   -1.440689
     29          1           0        2.428662   -2.868410   -1.691817
     30          1           0        3.031114   -3.910694   -0.391816
     31          6           0        3.430407    0.761017    0.231662
     32          6           0        3.673252    2.086942   -0.490094
     33          6           0        3.662263    3.286625    0.457765
     34          1           0        2.465068    0.807586    0.754488
     35          1           0        4.198620    0.625922    1.005317
     36          1           0        2.904483    2.218806   -1.262249
     37          1           0        4.637207    2.037384   -1.012540
     38          1           0        4.440241    3.181792    1.220891
     39          1           0        2.697673    3.364245    0.969762
     40          1           0        3.837789    4.224077   -0.079111
 ---------------------------------------------------------------------

 SCF Done:  E(RHF) =  -470.733148746     A.U. after   11 cycles
 E2 =    -0.1582888069D+01 EUMP2 =    -0.47231603681500D+03

 The electronic state is 1-A.
 Alpha  occ. eigenvalues --  -11.21685 -11.21636 -11.21593 -11.21491 -11.21458
 Alpha  occ. eigenvalues --  -11.21397 -11.21385 -11.21319 -11.21146 -11.21098
 Alpha  occ. eigenvalues --  -11.21061 -11.21026  -1.08487  -1.08398  -1.03595
 Alpha  occ. eigenvalues --   -1.03488  -0.96042  -0.95947  -0.87068  -0.86957
 Alpha  occ. eigenvalues --   -0.79685  -0.79529  -0.78297  -0.78215  -0.65146
 Alpha  occ. eigenvalues --   -0.65017  -0.61046  -0.60857  -0.59456  -0.59266
 Alpha  occ. eigenvalues --   -0.57651  -0.57558  -0.55339  -0.55221  -0.52797
 Alpha  occ. eigenvalues --   -0.52622  -0.52465  -0.52363  -0.50004  -0.49866
 Alpha  occ. eigenvalues --   -0.48004  -0.47846  -0.46731  -0.46531  -0.45840
 Alpha  occ. eigenvalues --   -0.45764  -0.45751  -0.45662  -0.43800  -0.43731
 Alpha virt. eigenvalues --    0.20737   0.23145   0.23942   0.24522   0.26046
 Alpha virt. eigenvalues --    0.26572   0.27130   0.27265   0.28033   0.29209
 Alpha virt. eigenvalues --    0.31013   0.31334   0.31718   0.32024   0.32055

 Mulliken charges:
               1
     1  C   -0.298565
     2  C   -0.299901
     3  C   -0.481545
     4  H    0.149999
     5  H    0.149738
     6  H    0.152181
     7  H    0.151634
     8  H    0.156088
     9  H    0.156038
    10  H    0.165049
    11  C   -0.298346
    12  C   -0.299706
    13  C   -0.475740
    14  H    0.149649
    15  H    0.149601
    16  H    0.152052
    17  H    0.152007
    18  H    0.155208
    19  H    0.155251
    20  H    0.160392
    21  C   -0.297418
    22  C   -0.308618
    23  C   -0.475152
    24  H    0.148952
    25  H    0.149332
    26  H    0.162075
    27  H    0.151175
    28  H    0.154881
    29  H    0.154374
    30  H    0.160213
    31  C   -0.299965
    32  C   -0.299481
    33  C   -0.475772
    34  H    0.150203
    35  H    0.149667
    36  H    0.151767
    37  H    0.152028
    38  H    0.155131
    39  H    0.155323
    40  H    0.160200
 Sum of Mulliken charges =  -0.00000

 Dipole moment (field-independent basis, Debye):
    X=             -0.0446    Y=             -0.0058    Z=              0.0238  Tot=              0.0508
 Quadrupole moment (field-independent basis, Debye-Ang):
   XX=            -84.2517   YY=            -86.2699   ZZ=            -84.2906
   XY=              0.4158   XZ=             -0.4476   YZ=             -0.1671

 Normal termination of Gaussian 16 at Thu May  6 05:28:23 2021.
