 Gaussian 16, Revision A.03,
 Gaussian 16:  EM64L-G16RevA.03 25-Dec-2016

 -------------
 #p 6-31g* mp2
 -------------

 ------------------------------------------------------
 Input file generated by CHIRIPA (05-May-2021 14:51:10)
 ------------------------------------------------------
 Symbolic Z-matrix:
 Charge =  0 Multiplicity = 1

                         Standard orientation:
 ---------------------------------------------------------------------
 Center     Atomic      Atomic             Coordinates (Angstroms)
 Number     Number       Type             X           Y           Z
 ---------------------------------------------------------------------
      1          6           0        2.019556   -0.910112    0.250604
      2          6           0        1.664233   -1.376303    1.662835
      3          6           0        0.256925   -1.967069    1.753784
      4          1           0        1.284572   -0.162451   -0.077645
      5          1           0        1.931938   -1.759274   -0.441236
      6          1           0        1.753836   -0.526838    2.352035
      7          1           0        2.400259   -2.122800    1.987834
      8          1           0        0.158212   -2.831308    1.088992
      9          1           0       -0.491884   -1.226278    1.455262
     10          1           0        0.023735   -2.293869    2.771961
     11          6           0        3.423350   -0.317113    0.143635
     12          6           0        3.778673    0.149078   -1.268596
     13          6           0        5.185981    0.739844   -1.359545
     14          1           0        3.510968    0.532049    0.835474
     15          1           0        4.158334   -1.064774    0.471884
     16          1           0        3.042647    0.895575   -1.593596
     17          1           0        3.689070   -0.700387   -1.957796
     18          1           0        5.934790   -0.000947   -1.061023
     19          1           0        5.284694    1.604083   -0.694753
     20          1           0        5.419171    1.066644   -2.377722
     21          6           0       -2.225055    0.961814    0.267398
     22          6           0       -2.202348    2.481607    0.100972
     23          6           0       -1.204377    3.163954    1.037056
     24          1           0       -2.471445    0.717109    1.309683
     25          1           0       -1.217275    0.564642    0.082924
     26          1           0       -3.210176    2.875650    0.284350
     27          1           0       -1.956172    2.722721   -0.941082
     28          1           0       -0.189306    2.798777    0.850306
     29          1           0       -1.450435    2.952575    2.082702
     30          1           0       -1.204552    4.249976    0.901346
     31          6           0       -3.217851    0.265411   -0.661637
     32          6           0       -3.240558   -1.254382   -0.495211
     33          6           0       -4.238529   -1.936729   -1.431295
     34          1           0       -4.225630    0.662583   -0.477163
     35          1           0       -2.971462    0.510117   -1.703922
     36          1           0       -3.486735   -1.495495    0.546844
     37          1           0       -2.232730   -1.648424   -0.678589
     38          1           0       -3.992471   -1.725349   -2.476940
     39          1           0       -5.253600   -1.571552   -1.244545
     40          1           0       -4.238354   -3.022751   -1.295586
 ---------------------------------------------------------------------

 SCF Done:  E(RHF) =  -470.732586334     A.U. after   11 cycles
 E2 =    -0.1584378416D+01 EUMP2 =    -0.47231696474925D+03

 The electronic state is 1-A.
 Alpha  occ. eigenvalues --  -11.21661 -11.21626 -11.21562 -11.21557 -11.21447
 Alpha  occ. eigenvalues --  -11.21426 -11.21378 -11.21367 -11.21146 -11.21086
 Alpha  occ. eigenvalues --  -11.21051 -11.20898  -1.08493  -1.08416  -1.03554
 Alpha  occ. eigenvalues --   -1.03509  -0.96024  -0.95947  -0.87029  -0.86975
 Alpha  occ. eigenvalues --   -0.79622  -0.79599  -0.78428  -0.78120  -0.65217
 Alpha  occ. eigenvalues --   -0.64964  -0.60979  -0.60887  -0.59381  -0.59332
 Alpha  occ. eigenvalues --   -0.57675  -0.57533  -0.55317  -0.55235  -0.52728
 Alpha  occ. eigenvalues --   -0.52642  -0.52445  -0.52367  -0.49962  -0.49907
 Alpha  occ. eigenvalues --   -0.47989  -0.47936  -0.46817  -0.46607  -0.46162
 Alpha  occ. eigenvalues --   -0.45762  -0.45731  -0.45058  -0.43810  -0.43771
 Alpha virt. eigenvalues --    0.20412   0.23122   0.23979   0.24129   0.25736
 Alpha virt. eigenvalues --    0.26013   0.26952   0.27625   0.28216   0.30041
 Alpha virt. eigenvalues --    0.31049   0.31388   0.31658   0.31868   0.32019

 Mulliken charges:
               1
     1  C   -0.303733
     2  C   -0.299162
     3  C   -0.485209
     4  H    0.152629
     5  H    0.149385
     6  H    0.151812
     7  H    0.151637
     8  H    0.154004
     9  H    0.167763
    10  H    0.159155
    11  C   -0.298006
    12  C   -0.299609
    13  C   -0.475720
    14  H    0.149677
    15  H    0.150048
    16  H    0.151388
    17  H    0.151924
    18  H    0.155302
    19  H    0.155332
    20  H    0.160266
    21  C   -0.308898
    22  C   -0.298525
    23  C   -0.476221
    24  H    0.150513
    25  H    0.157566
    26  H    0.152361
    27  H    0.151970
    28  H    0.154296
    29  H    0.155521
    30  H    0.160744
    31  C   -0.297386
    32  C   -0.302303
    33  C   -0.475761
    34  H    0.149537
    35  H    0.149480
    36  H    0.152532
    37  H    0.155321
    38  H    0.154986
    39  H    0.154963
    40  H    0.160418
 Sum of Mulliken charges =  -0.00000

 Dipole moment (field-independent basis, Debye):
    X=             -0.0340    Y=              0.0166    Z=             -0.0048  Tot=              0.0381
 Quadrupole moment (field-independent basis, Debye-Ang):
   XX=            -85.5194   YY=            -84.5753   ZZ=            -84.6932
   XY=             -1.2875   XZ=             -0.8427   YZ=              0.0310

 Normal termination of Gaussian 16 at Thu May  6 00:36:16 2021.
