 Gaussian 16, Revision A.03,
 Gaussian 16:  EM64L-G16RevA.03 25-Dec-2016

 -------------
 #p 6-31g* mp2
 -------------

 ------------------------------------------------------
 Input file generated by CHIRIPA (05-May-2021 14:53:17)
 ------------------------------------------------------
 Symbolic Z-matrix:
 Charge =  0 Multiplicity = 1

                         Standard orientation:
 ---------------------------------------------------------------------
 Center     Atomic      Atomic             Coordinates (Angstroms)
 Number     Number       Type             X           Y           Z
 ---------------------------------------------------------------------
      1          6           0       -5.175803    0.200252   -0.449909
      2          6           0       -5.867115   -0.959890    0.267129
      3          6           0       -7.215023   -1.321783   -0.357347
      4          1           0       -5.836142    1.078125   -0.434572
      5          1           0       -5.032139   -0.064384   -1.506661
      6          1           0       -6.008185   -0.693695    1.322523
      7          1           0       -5.204974   -1.835047    0.250251
      8          1           0       -7.088404   -1.613064   -1.405070
      9          1           0       -7.896180   -0.465227   -0.326706
     10          1           0       -7.691797   -2.153443    0.170753
     11          6           0       -3.827156    0.573741    0.162777
     12          6           0       -3.135844    1.733882   -0.554261
     13          6           0       -1.787936    2.095776    0.070215
     14          1           0       -3.970820    0.838377    1.219529
     15          1           0       -3.166816   -0.304133    0.147440
     16          1           0       -3.797985    2.609040   -0.537383
     17          1           0       -2.994774    1.467688   -1.609655
     18          1           0       -1.106779    1.239220    0.039574
     19          1           0       -1.914554    2.387057    1.117938
     20          1           0       -1.311162    2.927435   -0.457885
     21          6           0        5.830268    0.326669   -0.673999
     22          6           0        5.022093    1.278733   -0.043962
     23          6           0        3.738576    0.941372    0.395720
     24          6           0        3.293121   -0.363151    0.188163
     25          6           0        4.074520   -1.334108   -0.436296
     26          6           0        5.354740   -0.974419   -0.867813
     27          1           0        6.826054    0.597412   -1.012383
     28          1           0        5.388774    2.289936    0.107893
     29          1           0        3.091908    1.658672    0.886351
     30          1           0        3.681389   -2.334116   -0.573587
     31          1           0        5.980178   -1.715877   -1.356808
     32          7           0        1.936064   -0.732119    0.649314
     33          8           0        1.566924   -1.888166    0.454565
     34          8           0        1.267239    0.141718    1.196780
 ---------------------------------------------------------------------

 SCF Done:  E(RHF) =  -669.536117375     A.U. after   15 cycles
 E2 =    -0.2090728573D+01 EUMP2 =    -0.67162684594767D+03

 The electronic state is 1-A.
 Alpha  occ. eigenvalues --  -20.60945 -20.60931 -15.85965 -11.31280 -11.27846
 Alpha  occ. eigenvalues --  -11.27837 -11.27583 -11.26851 -11.26840 -11.20876
 Alpha  occ. eigenvalues --  -11.20589 -11.20580 -11.20483 -11.20345 -11.19719
 Alpha  occ. eigenvalues --   -1.60002  -1.39557  -1.19450  -1.08857  -1.07533
 Alpha  occ. eigenvalues --   -1.04844  -1.02621  -0.95700  -0.95053  -0.86246
 Alpha  occ. eigenvalues --   -0.86065  -0.82531  -0.78697  -0.77585  -0.77319
 Alpha  occ. eigenvalues --   -0.72186  -0.71315  -0.70558  -0.65105  -0.64848
 Alpha  occ. eigenvalues --   -0.64168  -0.62191  -0.60019  -0.58463  -0.56664
 Alpha  occ. eigenvalues --   -0.55352  -0.54331  -0.53177  -0.52936  -0.51779
 Alpha  occ. eigenvalues --   -0.51459  -0.49089  -0.48949  -0.48841  -0.46998
 Alpha  occ. eigenvalues --   -0.45763  -0.45019  -0.44840  -0.44667  -0.42888
 Alpha  occ. eigenvalues --   -0.37429  -0.36445
 Alpha virt. eigenvalues --    0.04913   0.11210   0.16393   0.21342   0.23736
 Alpha virt. eigenvalues --    0.25250   0.27262   0.27559   0.28145   0.28427
 Alpha virt. eigenvalues --    0.29020   0.30899   0.32285   0.32464   0.32706

 Mulliken charges:
               1
     1  C   -0.297645
     2  C   -0.299400
     3  C   -0.475220
     4  H    0.146775
     5  H    0.147651
     6  H    0.151398
     7  H    0.153941
     8  H    0.154055
     9  H    0.153547
    10  H    0.158739
    11  C   -0.298875
    12  C   -0.299171
    13  C   -0.481620
    14  H    0.148893
    15  H    0.157530
    16  H    0.146456
    17  H    0.147870
    18  H    0.177574
    19  H    0.153510
    20  H    0.149757
    21  C   -0.170568
    22  C   -0.218608
    23  C   -0.170712
    24  C    0.158024
    25  C   -0.170783
    26  C   -0.218611
    27  H    0.225950
    28  H    0.223886
    29  H    0.276506
    30  H    0.275706
    31  H    0.223729
    32  N    0.488218
    33  O   -0.459648
    34  O   -0.458855
 Sum of Mulliken charges =  -0.00000

 Dipole moment (field-independent basis, Debye):
    X=              5.0855    Y=              1.1773    Z=             -1.5459  Tot=              5.4441
 Quadrupole moment (field-independent basis, Debye-Ang):
   XX=            -65.5615   YY=            -91.6207   ZZ=            -95.3951
   XY=              1.5649   XZ=             -5.7695   YZ=              3.1214

 Normal termination of Gaussian 16 at Wed May  5 23:38:37 2021.
