 Gaussian 16, Revision A.03,
 Gaussian 16:  EM64L-G16RevA.03 25-Dec-2016

 -------------
 #p 6-31g* mp2
 -------------

 ------------------------------------------------------
 Input file generated by CHIRIPA (05-May-2021 14:55:26)
 ------------------------------------------------------
 Symbolic Z-matrix:
 Charge =  0 Multiplicity = 1

                         Standard orientation:
 ---------------------------------------------------------------------
 Center     Atomic      Atomic             Coordinates (Angstroms)
 Number     Number       Type             X           Y           Z
 ---------------------------------------------------------------------
      1          6           0        2.855837   -1.975358    0.068492
      2          6           0        3.026688   -1.230768   -1.103223
      3          6           0        2.729513    0.135142   -1.126148
      4          6           0        2.261351    0.726932    0.045987
      5          6           0        2.080656    0.012012    1.229004
      6          6           0        2.384198   -1.352689    1.228821
      7          1           0        3.089163   -3.035960    0.077325
      8          1           0        3.392808   -1.711696   -2.005835
      9          1           0        2.852540    0.735345   -2.019478
     10          1           0        1.713990    0.519289    2.113111
     11          1           0        2.250544   -1.928457    2.140233
     12          7           0        1.943374    2.172319    0.033949
     13          8           0        1.532357    2.670163    1.079824
     14          8           0        2.111182    2.780003   -1.021133
     15          6           0       -2.724337   -1.343692   -0.168232
     16          6           0       -1.231224   -1.535207    0.099953
     17          6           0       -0.771637   -2.977100   -0.118029
     18          1           0       -3.296978   -2.015418    0.485841
     19          1           0       -2.946386   -1.648221   -1.200390
     20          1           0       -1.011812   -1.229101    1.130863
     21          1           0       -0.662078   -0.862808   -0.554697
     22          1           0       -0.961963   -3.290308   -1.149668
     23          1           0       -1.313685   -3.658682    0.545471
     24          1           0        0.298818   -3.091439    0.079231
     25          6           0       -3.198881    0.092584    0.045426
     26          6           0       -4.691993    0.284098   -0.222759
     27          6           0       -5.151580    1.725992   -0.004776
     28          1           0       -2.976831    0.397113    1.077585
     29          1           0       -2.626240    0.764309   -0.608646
     30          1           0       -5.261140   -0.388300    0.431893
     31          1           0       -4.911405   -0.022007   -1.253668
     32          1           0       -4.609533    2.407574   -0.668276
     33          1           0       -4.961254    2.039200    1.026862
     34          1           0       -6.222035    1.840331   -0.202035
 ---------------------------------------------------------------------

 SCF Done:  E(RHF) =  -669.534086581     A.U. after   15 cycles
 E2 =    -0.2094523339D+01 EUMP2 =    -0.67162860991975D+03

 The electronic state is 1-A.
 Alpha  occ. eigenvalues --  -20.60809 -20.60801 -15.85864 -11.31239 -11.27840
 Alpha  occ. eigenvalues --  -11.27814 -11.27562 -11.26841 -11.26821 -11.21681
 Alpha  occ. eigenvalues --  -11.21444 -11.21382 -11.21270 -11.21221 -11.20815
 Alpha  occ. eigenvalues --   -1.59884  -1.39437  -1.19438  -1.08838  -1.08380
 Alpha  occ. eigenvalues --   -1.04842  -1.03498  -0.95967  -0.95653  -0.86984
 Alpha  occ. eigenvalues --   -0.86235  -0.82488  -0.79576  -0.78176  -0.77525
 Alpha  occ. eigenvalues --   -0.72082  -0.71208  -0.70557  -0.65092  -0.65017
 Alpha  occ. eigenvalues --   -0.64840  -0.62185  -0.60904  -0.59455  -0.57649
 Alpha  occ. eigenvalues --   -0.55352  -0.55243  -0.53293  -0.52929  -0.52521
 Alpha  occ. eigenvalues --   -0.52246  -0.49896  -0.48842  -0.48835  -0.47907
 Alpha  occ. eigenvalues --   -0.46611  -0.45716  -0.45639  -0.44838  -0.43779
 Alpha  occ. eigenvalues --   -0.37298  -0.36396
 Alpha virt. eigenvalues --    0.04972   0.11173   0.16374   0.21006   0.22960
 Alpha virt. eigenvalues --    0.24454   0.26460   0.27038   0.27322   0.27871
 Alpha virt. eigenvalues --    0.28541   0.30745   0.31334   0.31901   0.32227

 Mulliken charges:
               1
     1  C   -0.172948
     2  C   -0.217297
     3  C   -0.172456
     4  C    0.159380
     5  C   -0.168039
     6  C   -0.214715
     7  H    0.226861
     8  H    0.224004
     9  H    0.275891
    10  H    0.275700
    11  H    0.224346
    12  N    0.487832
    13  O   -0.460016
    14  O   -0.460712
    15  C   -0.298624
    16  C   -0.297080
    17  C   -0.478664
    18  H    0.148190
    19  H    0.148908
    20  H    0.147216
    21  H    0.154888
    22  H    0.153983
    23  H    0.152603
    24  H    0.156626
    25  C   -0.298894
    26  C   -0.299696
    27  C   -0.475970
    28  H    0.150486
    29  H    0.152988
    30  H    0.150465
    31  H    0.151161
    32  H    0.158087
    33  H    0.156235
    34  H    0.159261
 Sum of Mulliken charges =  -0.00000

 Dipole moment (field-independent basis, Debye):
    X=              1.2107    Y=             -4.9740    Z=              0.0429  Tot=              5.1194
 Quadrupole moment (field-independent basis, Debye-Ang):
   XX=            -90.2587   YY=           -104.1691   ZZ=            -89.1918
   XY=            -10.6172   XZ=             -1.4531   YZ=             -0.8005

 Normal termination of Gaussian 16 at Thu May  6 04:50:27 2021.
