 Gaussian 16, Revision A.03,
 Gaussian 16:  EM64L-G16RevA.03 25-Dec-2016

 -------------
 #p 6-31g* mp2
 -------------

 ------------------------------------------------------
 Input file generated by CHIRIPA (05-May-2021 14:51:13)
 ------------------------------------------------------
 Symbolic Z-matrix:
 Charge =  0 Multiplicity = 1

                         Standard orientation:
 ---------------------------------------------------------------------
 Center     Atomic      Atomic             Coordinates (Angstroms)
 Number     Number       Type             X           Y           Z
 ---------------------------------------------------------------------
      1          6           0        2.916067    0.403336    0.564400
      2          6           0        1.573110   -0.273603    0.840453
      3          6           0        0.554331    0.671996    1.477418
      4          1           0        3.320147    0.799584    1.506023
      5          1           0        2.754518    1.267600   -0.094648
      6          1           0        1.737329   -1.137153    1.497668
      7          1           0        1.172272   -0.668453   -0.101905
      8          1           0        0.361251    1.527928    0.822665
      9          1           0        0.929519    1.056566    2.431326
     10          1           0       -0.398422    0.167518    1.666163
     11          6           0        3.945000   -0.529192   -0.072321
     12          6           0        5.287957    0.147747   -0.348374
     13          6           0        6.306737   -0.797852   -0.985339
     14          1           0        4.106550   -1.393456    0.586727
     15          1           0        3.540921   -0.925440   -1.013943
     16          1           0        5.688796    0.542597    0.593984
     17          1           0        5.123738    1.011297   -1.005588
     18          1           0        5.931548   -1.182422   -1.939246
     19          1           0        6.499816   -1.653784   -0.330586
     20          1           0        7.259489   -0.293373   -1.174083
     21          6           0       -3.833615   -0.540220   -0.485140
     22          6           0       -3.518526   -1.823608    0.284028
     23          6           0       -4.332813   -3.021424   -0.205839
     24          1           0       -4.905752   -0.318915   -0.392990
     25          1           0       -3.639114   -0.704516   -1.554051
     26          1           0       -3.712246   -1.656511    1.351346
     27          1           0       -2.446979   -2.041779    0.190195
     28          1           0       -4.132563   -3.216397   -1.264369
     29          1           0       -5.405017   -2.828940   -0.096621
     30          1           0       -4.091786   -3.928192    0.357665
     31          6           0       -3.027452    0.666076   -0.006939
     32          6           0       -3.342541    1.949464   -0.776107
     33          6           0       -2.528254    3.147279   -0.286240
     34          1           0       -3.221953    0.830372    1.061972
     35          1           0       -1.955315    0.444771   -0.099089
     36          1           0       -4.414088    2.167635   -0.682274
     37          1           0       -3.148822    1.782368   -1.843425
     38          1           0       -1.456050    2.954796   -0.395458
     39          1           0       -2.728505    3.342253    0.772290
     40          1           0       -2.769282    4.054048   -0.849744
 ---------------------------------------------------------------------

 SCF Done:  E(RHF) =  -470.732334180     A.U. after   11 cycles
 E2 =    -0.1583640638D+01 EUMP2 =    -0.47231597481795D+03

 The electronic state is 1-A.
 Alpha  occ. eigenvalues --  -11.21616 -11.21610 -11.21607 -11.21569 -11.21416
 Alpha  occ. eigenvalues --  -11.21357 -11.21356 -11.21258 -11.21079 -11.21073
 Alpha  occ. eigenvalues --  -11.21046 -11.20980  -1.08452  -1.08393  -1.03553
 Alpha  occ. eigenvalues --   -1.03494  -0.95999  -0.95941  -0.87024  -0.86955
 Alpha  occ. eigenvalues --   -0.79674  -0.79517  -0.78273  -0.78193  -0.65145
 Alpha  occ. eigenvalues --   -0.64979  -0.61036  -0.60823  -0.59407  -0.59294
 Alpha  occ. eigenvalues --   -0.57748  -0.57427  -0.55278  -0.55249  -0.52800
 Alpha  occ. eigenvalues --   -0.52629  -0.52494  -0.52208  -0.49973  -0.49894
 Alpha  occ. eigenvalues --   -0.47933  -0.47856  -0.46749  -0.46511  -0.45810
 Alpha  occ. eigenvalues --   -0.45759  -0.45705  -0.45567  -0.43776  -0.43690
 Alpha virt. eigenvalues --    0.21166   0.23184   0.23524   0.24175   0.26070
 Alpha virt. eigenvalues --    0.26427   0.26728   0.27067   0.28009   0.29726
 Alpha virt. eigenvalues --    0.30472   0.31226   0.31790   0.31792   0.32317

 Mulliken charges:
               1
     1  C   -0.298155
     2  C   -0.301382
     3  C   -0.482906
     4  H    0.150041
     5  H    0.149276
     6  H    0.152275
     7  H    0.150976
     8  H    0.157672
     9  H    0.155215
    10  H    0.165989
    11  C   -0.298237
    12  C   -0.299664
    13  C   -0.475706
    14  H    0.149599
    15  H    0.149412
    16  H    0.152025
    17  H    0.151914
    18  H    0.155124
    19  H    0.155207
    20  H    0.160298
    21  C   -0.297615
    22  C   -0.300725
    23  C   -0.475523
    24  H    0.149338
    25  H    0.149014
    26  H    0.151712
    27  H    0.152061
    28  H    0.155184
    29  H    0.155306
    30  H    0.160243
    31  C   -0.304726
    32  C   -0.299463
    33  C   -0.477964
    34  H    0.148795
    35  H    0.159762
    36  H    0.151640
    37  H    0.151223
    38  H    0.157074
    39  H    0.155761
    40  H    0.159932
 Sum of Mulliken charges =  -0.00000

 Dipole moment (field-independent basis, Debye):
    X=              0.0025    Y=              0.0030    Z=              0.0175  Tot=              0.0180
 Quadrupole moment (field-independent basis, Debye-Ang):
   XX=            -85.2341   YY=            -85.9513   ZZ=            -83.7261
   XY=             -0.2703   XZ=              0.0365   YZ=             -0.5761

 Normal termination of Gaussian 16 at Thu May  6 02:24:18 2021.
