 Gaussian 16, Revision A.03,
 Gaussian 16:  EM64L-G16RevA.03 25-Dec-2016

 -------------
 #p 6-31g* mp2
 -------------

 ------------------------------------------------------
 Input file generated by CHIRIPA (05-May-2021 14:55:24)
 ------------------------------------------------------
 Symbolic Z-matrix:
 Charge =  0 Multiplicity = 1

                         Standard orientation:
 ---------------------------------------------------------------------
 Center     Atomic      Atomic             Coordinates (Angstroms)
 Number     Number       Type             X           Y           Z
 ---------------------------------------------------------------------
      1          6           0       -5.817878   -0.857636   -0.452940
      2          6           0       -4.926477   -0.598093   -1.499154
      3          6           0       -3.615899   -0.191863   -1.230993
      4          6           0       -3.228543   -0.054709    0.101086
      5          6           0       -4.093277   -0.305816    1.165262
      6          6           0       -5.399171   -0.710928    0.873590
      7          1           0       -6.834147   -1.172771   -0.670386
      8          1           0       -5.248892   -0.711195   -2.530319
      9          1           0       -2.905166    0.015669   -2.021694
     10          1           0       -3.742822   -0.184284    2.183020
     11          1           0       -6.089281   -0.911801    1.688110
     12          7           0       -1.843572    0.374757    0.397421
     13          8           0       -1.526842    0.488171    1.579561
     14          8           0       -1.100987    0.589825   -0.558063
     15          6           0        5.104936   -0.145548   -0.231126
     16          6           0        5.253276   -1.588359    0.252895
     17          6           0        6.619443   -2.187100   -0.083098
     18          1           0        5.264514   -0.111743   -1.317559
     19          1           0        5.896478    0.468501    0.220316
     20          1           0        4.460853   -2.199227   -0.198241
     21          1           0        5.093138   -1.618763    1.338274
     22          1           0        7.420787   -1.602239    0.379918
     23          1           0        6.784911   -2.186000   -1.165327
     24          1           0        6.703866   -3.218926    0.271964
     25          6           0        3.744481    0.466803    0.097376
     26          6           0        3.596140    1.909615   -0.386646
     27          6           0        2.229974    2.508356   -0.050653
     28          1           0        2.952939   -0.147246   -0.354066
     29          1           0        3.584904    0.432998    1.183808
     30          1           0        3.756279    1.940017   -1.472025
     31          1           0        4.388563    2.520481    0.064490
     32          1           0        2.064506    2.507255    1.031576
     33          1           0        1.428629    1.923493   -0.513669
     34          1           0        2.145551    3.540181   -0.405714
 ---------------------------------------------------------------------

 SCF Done:  E(RHF) =  -669.536276534     A.U. after   15 cycles
 E2 =    -0.2090979486D+01 EUMP2 =    -0.67162725602028D+03

 The electronic state is 1-A.
 Alpha  occ. eigenvalues --  -20.60983 -20.60968 -15.86005 -11.31317 -11.27877
 Alpha  occ. eigenvalues --  -11.27872 -11.27611 -11.26881 -11.26871 -11.20809
 Alpha  occ. eigenvalues --  -11.20442 -11.20426 -11.20238 -11.20092 -11.19162
 Alpha  occ. eigenvalues --   -1.60029  -1.39587  -1.19481  -1.08887  -1.07330
 Alpha  occ. eigenvalues --   -1.04876  -1.02377  -0.95732  -0.94800  -0.86277
 Alpha  occ. eigenvalues --   -0.85809  -0.82566  -0.78483  -0.77619  -0.77081
 Alpha  occ. eigenvalues --   -0.72226  -0.71341  -0.70590  -0.65138  -0.64879
 Alpha  occ. eigenvalues --   -0.63971  -0.62223  -0.59778  -0.58252  -0.56405
 Alpha  occ. eigenvalues --   -0.55381  -0.54079  -0.53208  -0.52968  -0.51525
 Alpha  occ. eigenvalues --   -0.51216  -0.49125  -0.48971  -0.48579  -0.46732
 Alpha  occ. eigenvalues --   -0.45517  -0.44999  -0.44620  -0.44500  -0.42647
 Alpha  occ. eigenvalues --   -0.37460  -0.36476
 Alpha virt. eigenvalues --    0.04912   0.11179   0.16415   0.21313   0.23889
 Alpha virt. eigenvalues --    0.25530   0.27232   0.27732   0.28186   0.28572
 Alpha virt. eigenvalues --    0.29295   0.30885   0.32362   0.32633   0.32742

 Mulliken charges:
               1
     1  C   -0.170551
     2  C   -0.218537
     3  C   -0.170767
     4  C    0.157769
     5  C   -0.170529
     6  C   -0.218591
     7  H    0.226061
     8  H    0.223866
     9  H    0.275655
    10  H    0.275963
    11  H    0.223904
    12  N    0.490141
    13  O   -0.458168
    14  O   -0.461119
    15  C   -0.297531
    16  C   -0.298755
    17  C   -0.475021
    18  H    0.146959
    19  H    0.146819
    20  H    0.151490
    21  H    0.151630
    22  H    0.153969
    23  H    0.153676
    24  H    0.157749
    25  C   -0.297826
    26  C   -0.298987
    27  C   -0.485270
    28  H    0.155140
    29  H    0.150266
    30  H    0.146567
    31  H    0.145432
    32  H    0.155508
    33  H    0.183192
    34  H    0.149893
 Sum of Mulliken charges =  -0.00000

 Dipole moment (field-independent basis, Debye):
    X=             -5.3065    Y=             -1.5785    Z=             -1.0126  Tot=              5.6282
 Quadrupole moment (field-independent basis, Debye-Ang):
   XX=            -65.9204   YY=            -96.3481   ZZ=            -89.3885
   XY=              5.8213   XZ=              2.4395   YZ=             -0.0863

 Normal termination of Gaussian 16 at Thu May  6 03:11:04 2021.
