 Gaussian 16, Revision A.03,
 Gaussian 16:  EM64L-G16RevA.03 25-Dec-2016

 -------------
 #p 6-31g* mp2
 -------------

 ------------------------------------------------------
 Input file generated by CHIRIPA (05-May-2021 14:55:20)
 ------------------------------------------------------
 Symbolic Z-matrix:
 Charge =  0 Multiplicity = 1

                         Standard orientation:
 ---------------------------------------------------------------------
 Center     Atomic      Atomic             Coordinates (Angstroms)
 Number     Number       Type             X           Y           Z
 ---------------------------------------------------------------------
      1          6           0       -0.304128   -1.347054    0.989712
      2          6           0       -1.269038   -0.860605    1.877878
      3          6           0       -2.479787   -0.349652    1.400846
      4          6           0       -2.693443   -0.340293    0.023329
      5          6           0       -1.751731   -0.817759   -0.886888
      6          6           0       -0.548124   -1.324119   -0.387408
      7          1           0        0.633636   -1.742190    1.369001
      8          1           0       -1.082270   -0.877168    2.947873
      9          1           0       -3.244127    0.033289    2.066097
     10          1           0       -1.966604   -0.788099   -1.948192
     11          1           0        0.199419   -1.701236   -1.079511
     12          7           0       -3.971428    0.198199   -0.493566
     13          8           0       -4.135433    0.195344   -1.711651
     14          8           0       -4.784909    0.612928    0.329164
     15          6           0        3.730784    0.040332   -0.001266
     16          6           0        3.434837   -1.346252   -0.573790
     17          6           0        4.549937   -2.353210   -0.290271
     18          1           0        4.676014    0.409681   -0.422058
     19          1           0        3.883249   -0.043507    1.083687
     20          1           0        3.281609   -1.259616   -1.657132
     21          1           0        2.490105   -1.712264   -0.151732
     22          1           0        4.699308   -2.469126    0.788085
     23          1           0        5.495309   -2.013907   -0.725868
     24          1           0        4.317736   -3.337660   -0.708364
     25          6           0        2.625223    1.058017   -0.276543
     26          6           0        2.921170    2.444602    0.295981
     27          6           0        1.806071    3.451559    0.012462
     28          1           0        2.472758    1.141856   -1.361495
     29          1           0        1.679994    0.688667    0.144249
     30          1           0        3.865903    2.810613   -0.126077
     31          1           0        3.074399    2.357965    1.379324
     32          1           0        0.860698    3.112256    0.448059
     33          1           0        1.656701    3.567475   -1.065895
     34          1           0        2.038272    4.436009    0.430555
 ---------------------------------------------------------------------

 SCF Done:  E(RHF) =  -669.534150260     A.U. after   15 cycles
 E2 =    -0.2094067323D+01 EUMP2 =    -0.67162821758301D+03

 The electronic state is 1-A.
 Alpha  occ. eigenvalues --  -20.60777 -20.60771 -15.85829 -11.31213 -11.27779
 Alpha  occ. eigenvalues --  -11.27753 -11.27508 -11.26814 -11.26746 -11.22788
 Alpha  occ. eigenvalues --  -11.22226 -11.22060 -11.22027 -11.21907 -11.21365
 Alpha  occ. eigenvalues --   -1.59851  -1.39404  -1.19390  -1.09219  -1.08776
 Alpha  occ. eigenvalues --   -1.04787  -1.04261  -0.96661  -0.95622  -0.87683
 Alpha  occ. eigenvalues --   -0.86197  -0.82443  -0.80401  -0.78984  -0.77473
 Alpha  occ. eigenvalues --   -0.72049  -0.71174  -0.70545  -0.65897  -0.65026
 Alpha  occ. eigenvalues --   -0.64765  -0.62153  -0.61647  -0.60057  -0.58282
 Alpha  occ. eigenvalues --   -0.55951  -0.55312  -0.53396  -0.53248  -0.52978
 Alpha  occ. eigenvalues --   -0.52858  -0.50613  -0.48826  -0.48803  -0.48646
 Alpha  occ. eigenvalues --   -0.47447  -0.46486  -0.46398  -0.44806  -0.44491
 Alpha  occ. eigenvalues --   -0.37302  -0.36365
 Alpha virt. eigenvalues --    0.05017   0.11206   0.16440   0.19845   0.22744
 Alpha virt. eigenvalues --    0.23760   0.25441   0.25832   0.27343   0.27867
 Alpha virt. eigenvalues --    0.29310   0.30031   0.30986   0.31407   0.31857

 Mulliken charges:
               1
     1  C   -0.175508
     2  C   -0.219092
     3  C   -0.171304
     4  C    0.158564
     5  C   -0.171449
     6  C   -0.217780
     7  H    0.228682
     8  H    0.223598
     9  H    0.275705
    10  H    0.275847
    11  H    0.228646
    12  N    0.488054
    13  O   -0.460157
    14  O   -0.460338
    15  C   -0.298039
    16  C   -0.305586
    17  C   -0.475347
    18  H    0.153844
    19  H    0.147921
    20  H    0.154144
    21  H    0.140967
    22  H    0.155343
    23  H    0.160240
    24  H    0.161170
    25  C   -0.307331
    26  C   -0.299402
    27  C   -0.476331
    28  H    0.149246
    29  H    0.156746
    30  H    0.152763
    31  H    0.150469
    32  H    0.157261
    33  H    0.156736
    34  H    0.161721
 Sum of Mulliken charges =  -0.00000

 Dipole moment (field-independent basis, Debye):
    X=              4.5730    Y=             -1.8347    Z=              1.7804  Tot=              5.2391
 Quadrupole moment (field-independent basis, Debye-Ang):
   XX=           -119.1313   YY=            -94.5506   ZZ=            -89.5746
   XY=              3.9795   XZ=             -7.0589   YZ=              0.2432

 Normal termination of Gaussian 16 at Thu May  6 15:47:48 2021.
