 Gaussian 16, Revision A.03,
 Gaussian 16:  EM64L-G16RevA.03 25-Dec-2016

 -------------
 #p 6-31g* mp2
 -------------

 ------------------------------------------------------
 Input file generated by CHIRIPA (05-May-2021 14:51:14)
 ------------------------------------------------------
 Symbolic Z-matrix:
 Charge =  0 Multiplicity = 1

                         Standard orientation:
 ---------------------------------------------------------------------
 Center     Atomic      Atomic             Coordinates (Angstroms)
 Number     Number       Type             X           Y           Z
 ---------------------------------------------------------------------
      1          6           0        3.978064    0.298975   -0.067136
      2          6           0        3.775190    1.775117    0.276128
      3          6           0        5.071844    2.582219    0.204923
      4          1           0        4.718383   -0.132415    0.620450
      5          1           0        4.405397    0.219774   -1.076348
      6          1           0        3.347079    1.851458    1.283852
      7          1           0        3.035126    2.202995   -0.412233
      8          1           0        5.499714    2.535809   -0.801742
      9          1           0        5.813439    2.182274    0.903981
     10          1           0        4.903831    3.634652    0.453956
     11          6           0        2.690850   -0.520992   -0.000335
     12          6           0        2.893723   -1.997135   -0.343599
     13          6           0        1.597070   -2.804237   -0.272394
     14          1           0        2.263517   -0.441791    1.008877
     15          1           0        1.950530   -0.089603   -0.687921
     16          1           0        3.633788   -2.425013    0.344762
     17          1           0        3.321835   -2.073476   -1.351323
     18          1           0        0.855474   -2.404292   -0.971452
     19          1           0        1.169200   -2.757826    0.734271
     20          1           0        1.765082   -3.856669   -0.521427
     21          6           0       -2.992858   -0.512239   -0.246093
     22          6           0       -3.056368   -1.713802    0.697410
     23          6           0       -2.368680   -2.953000    0.123591
     24          1           0       -3.458597   -0.781287   -1.204031
     25          1           0       -1.940942   -0.281150   -0.463958
     26          1           0       -4.107816   -1.941695    0.914529
     27          1           0       -2.590596   -1.441802    1.653280
     28          1           0       -1.311796   -2.749149   -0.076516
     29          1           0       -2.837637   -3.251882   -0.819463
     30          1           0       -2.425956   -3.800000    0.814365
     31          6           0       -3.676056    0.734257    0.313564
     32          6           0       -3.612546    1.935820   -0.629939
     33          6           0       -4.300233    3.175017   -0.056120
     34          1           0       -4.727972    0.503168    0.531429
     35          1           0       -3.210317    1.003305    1.271502
     36          1           0       -4.078318    1.663820   -1.585808
     37          1           0       -2.561098    2.163712   -0.847059
     38          1           0       -3.831277    3.473900    0.886934
     39          1           0       -5.357118    2.971167    0.143986
     40          1           0       -4.242958    4.022019   -0.746894
 ---------------------------------------------------------------------

 SCF Done:  E(RHF) =  -470.732827893     A.U. after   11 cycles
 E2 =    -0.1582850240D+01 EUMP2 =    -0.47231567813316D+03

 The electronic state is 1-A.
 Alpha  occ. eigenvalues --  -11.21651 -11.21643 -11.21576 -11.21507 -11.21462
 Alpha  occ. eigenvalues --  -11.21400 -11.21359 -11.21298 -11.21131 -11.21102
 Alpha  occ. eigenvalues --  -11.21051 -11.20850  -1.08484  -1.08372  -1.03591
 Alpha  occ. eigenvalues --   -1.03452  -0.96062  -0.95883  -0.87108  -0.86877
 Alpha  occ. eigenvalues --   -0.79707  -0.79476  -0.78307  -0.78180  -0.65113
 Alpha  occ. eigenvalues --   -0.65005  -0.60985  -0.60870  -0.59402  -0.59274
 Alpha  occ. eigenvalues --   -0.57735  -0.57463  -0.55335  -0.55208  -0.52765
 Alpha  occ. eigenvalues --   -0.52616  -0.52583  -0.52173  -0.49993  -0.49827
 Alpha  occ. eigenvalues --   -0.48101  -0.47696  -0.46693  -0.46521  -0.45897
 Alpha  occ. eigenvalues --   -0.45764  -0.45706  -0.45529  -0.43836  -0.43717
 Alpha virt. eigenvalues --    0.21821   0.23101   0.23658   0.24876   0.25870
 Alpha virt. eigenvalues --    0.26638   0.27135   0.27359   0.28112   0.29191
 Alpha virt. eigenvalues --    0.30653   0.31249   0.31771   0.31932   0.32066

 Mulliken charges:
               1
     1  C   -0.298270
     2  C   -0.299690
     3  C   -0.475742
     4  H    0.149865
     5  H    0.149767
     6  H    0.151855
     7  H    0.151886
     8  H    0.155304
     9  H    0.155269
    10  H    0.160372
    11  C   -0.298497
    12  C   -0.299825
    13  C   -0.479115
    14  H    0.149308
    15  H    0.149221
    16  H    0.152199
    17  H    0.152230
    18  H    0.157019
    19  H    0.156554
    20  H    0.161622
    21  C   -0.298557
    22  C   -0.298780
    23  C   -0.485774
    24  H    0.149338
    25  H    0.149212
    26  H    0.151307
    27  H    0.151090
    28  H    0.168407
    29  H    0.153708
    30  H    0.159081
    31  C   -0.298161
    32  C   -0.299603
    33  C   -0.475666
    34  H    0.149497
    35  H    0.149609
    36  H    0.151784
    37  H    0.151753
    38  H    0.155177
    39  H    0.155154
    40  H    0.160090
 Sum of Mulliken charges =  -0.00000

 Dipole moment (field-independent basis, Debye):
    X=              0.0733    Y=             -0.0167    Z=             -0.0079  Tot=              0.0756
 Quadrupole moment (field-independent basis, Debye-Ang):
   XX=            -85.0377   YY=            -86.1176   ZZ=            -83.7025
   XY=             -0.0816   XZ=              0.7116   YZ=             -0.3138

 Normal termination of Gaussian 16 at Wed May  5 16:54:02 2021.
