 Gaussian 16, Revision A.03,
 Gaussian 16:  EM64L-G16RevA.03 25-Dec-2016

 -------------
 #p 6-31g* mp2
 -------------

 ------------------------------------------------------
 Input file generated by CHIRIPA (05-May-2021 14:51:11)
 ------------------------------------------------------
 Symbolic Z-matrix:
 Charge =  0 Multiplicity = 1

                         Standard orientation:
 ---------------------------------------------------------------------
 Center     Atomic      Atomic             Coordinates (Angstroms)
 Number     Number       Type             X           Y           Z
 ---------------------------------------------------------------------
      1          6           0       -5.488348    0.135807   -0.125610
      2          6           0       -6.736712   -0.704566    0.145217
      3          6           0       -8.032867    0.083492   -0.046461
      4          1           0       -5.490220    1.009039    0.541028
      5          1           0       -5.533010    0.525930   -1.151868
      6          1           0       -6.689041   -1.094126    1.170199
      7          1           0       -6.731771   -1.576001   -0.522010
      8          1           0       -8.107141    0.459308   -1.072057
      9          1           0       -8.064168    0.943920    0.629766
     10          1           0       -8.912714   -0.536376    0.152270
     11          6           0       -4.184658   -0.638128    0.061857
     12          6           0       -2.936294    0.202245   -0.208971
     13          6           0       -1.640139   -0.585813   -0.017292
     14          1           0       -4.139996   -1.028250    1.088114
     15          1           0       -4.182786   -1.511360   -0.604782
     16          1           0       -2.941235    1.073680    0.458257
     17          1           0       -2.983965    0.591805   -1.233952
     18          1           0       -1.608838   -1.446241   -0.693520
     19          1           0       -1.565865   -0.961628    1.008304
     20          1           0       -0.760292    0.034055   -0.216023
     21          6           0        5.542766    0.145330   -0.239094
     22          6           0        6.219135   -1.112993    0.306004
     23          6           0        7.631447   -1.311016   -0.245318
     24          1           0        5.505199    0.088006   -1.335564
     25          1           0        6.159599    1.020691    0.007186
     26          1           0        5.600515   -1.985571    0.059972
     27          1           0        6.254924   -1.052754    1.401315
     28          1           0        8.268606   -0.458843    0.012420
     29          1           0        7.610478   -1.396960   -1.336544
     30          1           0        8.096363   -2.216288    0.157419
     31          6           0        4.130240    0.356991    0.302847
     32          6           0        3.453871    1.615314   -0.242250
     33          6           0        2.041559    1.813337    0.309071
     34          1           0        3.513407   -0.518371    0.056567
     35          1           0        4.167807    0.414315    1.399318
     36          1           0        3.418082    1.555075   -1.337561
     37          1           0        4.072491    2.487893    0.003782
     38          1           0        2.062528    1.899280    1.400298
     39          1           0        1.404400    0.961163    0.051334
     40          1           0        1.576643    2.718609   -0.093665
 ---------------------------------------------------------------------

 SCF Done:  E(RHF) =  -470.733305532     A.U. after   11 cycles
 E2 =    -0.1582151182D+01 EUMP2 =    -0.47231545671418D+03

 The electronic state is 1-A.
 Alpha  occ. eigenvalues --  -11.21596 -11.21590 -11.21589 -11.21574 -11.21392
 Alpha  occ. eigenvalues --  -11.21386 -11.21333 -11.21327 -11.21062 -11.21062
 Alpha  occ. eigenvalues --  -11.21061 -11.21031  -1.08421  -1.08409  -1.03531
 Alpha  occ. eigenvalues --   -1.03501  -0.96000  -0.95936  -0.87037  -0.86935
 Alpha  occ. eigenvalues --   -0.79619  -0.79541  -0.78233  -0.78221  -0.65053
 Alpha  occ. eigenvalues --   -0.65040  -0.60945  -0.60903  -0.59361  -0.59327
 Alpha  occ. eigenvalues --   -0.57665  -0.57501  -0.55277  -0.55240  -0.52796
 Alpha  occ. eigenvalues --   -0.52645  -0.52430  -0.52250  -0.49912  -0.49884
 Alpha  occ. eigenvalues --   -0.47973  -0.47813  -0.46615  -0.46600  -0.45777
 Alpha  occ. eigenvalues --   -0.45762  -0.45697  -0.45690  -0.43781  -0.43729
 Alpha virt. eigenvalues --    0.22321   0.22974   0.23528   0.24718   0.26248
 Alpha virt. eigenvalues --    0.26675   0.26971   0.27532   0.27668   0.28725
 Alpha virt. eigenvalues --    0.30122   0.31434   0.31729   0.31899   0.32007

 Mulliken charges:
               1
     1  C   -0.298212
     2  C   -0.299618
     3  C   -0.475691
     4  H    0.149689
     5  H    0.149466
     6  H    0.151921
     7  H    0.151884
     8  H    0.155152
     9  H    0.155184
    10  H    0.160204
    11  C   -0.298599
    12  C   -0.298721
    13  C   -0.483485
    14  H    0.149519
    15  H    0.149493
    16  H    0.152375
    17  H    0.151703
    18  H    0.154616
    19  H    0.155340
    20  H    0.167651
    21  C   -0.298309
    22  C   -0.299673
    23  C   -0.475702
    24  H    0.149626
    25  H    0.149468
    26  H    0.152051
    27  H    0.151931
    28  H    0.155143
    29  H    0.155162
    30  H    0.160238
    31  C   -0.298517
    32  C   -0.299195
    33  C   -0.482589
    34  H    0.150023
    35  H    0.149663
    36  H    0.151869
    37  H    0.151901
    38  H    0.155529
    39  H    0.161364
    40  H    0.160143
 Sum of Mulliken charges =  -0.00000

 Dipole moment (field-independent basis, Debye):
    X=              0.0078    Y=              0.0039    Z=              0.0053  Tot=              0.0102
 Quadrupole moment (field-independent basis, Debye-Ang):
   XX=            -86.8393   YY=            -84.7165   ZZ=            -83.2837
   XY=              0.9125   XZ=              0.5450   YZ=              0.6800

 Normal termination of Gaussian 16 at Wed May  5 16:43:42 2021.
