 Gaussian 16, Revision A.03,
 Gaussian 16:  EM64L-G16RevA.03 25-Dec-2016

 -------------
 #p 6-31g* mp2
 -------------

 ------------------------------------------------------
 Input file generated by CHIRIPA (05-May-2021 14:55:24)
 ------------------------------------------------------
 Symbolic Z-matrix:
 Charge =  0 Multiplicity = 1

                         Standard orientation:
 ---------------------------------------------------------------------
 Center     Atomic      Atomic             Coordinates (Angstroms)
 Number     Number       Type             X           Y           Z
 ---------------------------------------------------------------------
      1          6           0       -3.442786   -2.241402    0.384691
      2          6           0       -3.302032   -1.434339    1.518428
      3          6           0       -2.999026   -0.075615    1.389568
      4          6           0       -2.842842    0.445362    0.106027
      5          6           0       -2.976766   -0.332862   -1.042765
      6          6           0       -3.279990   -1.689061   -0.890040
      7          1           0       -3.678253   -3.295911    0.494062
      8          1           0       -3.427905   -1.860581    2.509649
      9          1           0       -2.884488    0.572015    2.250308
     10          1           0       -2.845429    0.120625   -2.017710
     11          1           0       -3.388718   -2.313444   -1.772292
     12          7           0       -2.521948    1.882446   -0.043024
     13          8           0       -2.389298    2.317293   -1.184930
     14          8           0       -2.409156    2.546774    0.984878
     15          6           0        4.377956   -0.495376    0.116430
     16          6           0        5.437630    0.606859    0.128797
     17          6           0        6.775372    0.134436    0.698934
     18          1           0        4.231473   -0.865893    1.140249
     19          1           0        4.749414   -1.344892   -0.473263
     20          1           0        5.063719    1.454597    0.717138
     21          1           0        5.581469    0.974927   -0.895143
     22          1           0        7.174013   -0.696591    0.108104
     23          1           0        6.653321   -0.214195    1.729546
     24          1           0        7.518287    0.938138    0.698396
     25          6           0        3.035112   -0.038419   -0.450746
     26          6           0        1.975438   -1.140653   -0.463111
     27          6           0        0.637696   -0.668231   -1.033250
     28          1           0        2.663654    0.811097    0.138947
     29          1           0        3.181595    0.332098   -1.474564
     30          1           0        1.831599   -1.508722    0.560829
     31          1           0        2.349349   -1.988392   -1.051453
     32          1           0        0.759748   -0.319599   -2.063861
     33          1           0        0.239056    0.162796   -0.442419
     34          1           0       -0.105218   -1.471932   -1.032712
 ---------------------------------------------------------------------

 SCF Done:  E(RHF) =  -669.534825249     A.U. after   15 cycles
 E2 =    -0.2092796334D+01 EUMP2 =    -0.67162762158292D+03

 The electronic state is 1-A.
 Alpha  occ. eigenvalues --  -20.60779 -20.60766 -15.85824 -11.31151 -11.27768
 Alpha  occ. eigenvalues --  -11.27739 -11.27526 -11.26774 -11.26761 -11.21518
 Alpha  occ. eigenvalues --  -11.21432 -11.21252 -11.21171 -11.20943 -11.20937
 Alpha  occ. eigenvalues --   -1.59851  -1.39404  -1.19365  -1.08764  -1.08286
 Alpha  occ. eigenvalues --   -1.04772  -1.03404  -0.95860  -0.95592  -0.86882
 Alpha  occ. eigenvalues --   -0.86164  -0.82429  -0.79478  -0.78093  -0.77471
 Alpha  occ. eigenvalues --   -0.72045  -0.71182  -0.70479  -0.65021  -0.64917
 Alpha  occ. eigenvalues --   -0.64774  -0.62116  -0.60810  -0.59252  -0.57468
 Alpha  occ. eigenvalues --   -0.55281  -0.55172  -0.53385  -0.52863  -0.52279
 Alpha  occ. eigenvalues --   -0.52244  -0.49781  -0.48803  -0.48800  -0.47790
 Alpha  occ. eigenvalues --   -0.46505  -0.45639  -0.45558  -0.44803  -0.43659
 Alpha  occ. eigenvalues --   -0.37318  -0.36309
 Alpha virt. eigenvalues --    0.05048   0.11234   0.16519   0.21383   0.22993
 Alpha virt. eigenvalues --    0.24373   0.26763   0.27156   0.27561   0.27965
 Alpha virt. eigenvalues --    0.28434   0.30724   0.31344   0.31885   0.32060

 Mulliken charges:
               1
     1  C   -0.170762
     2  C   -0.218453
     3  C   -0.171755
     4  C    0.159577
     5  C   -0.165763
     6  C   -0.220048
     7  H    0.225691
     8  H    0.223335
     9  H    0.275495
    10  H    0.276059
    11  H    0.223595
    12  N    0.488711
    13  O   -0.459800
    14  O   -0.461132
    15  C   -0.298083
    16  C   -0.299836
    17  C   -0.475622
    18  H    0.148464
    19  H    0.148069
    20  H    0.153709
    21  H    0.152463
    22  H    0.154304
    23  H    0.154556
    24  H    0.160522
    25  C   -0.299024
    26  C   -0.299764
    27  C   -0.477997
    28  H    0.153533
    29  H    0.150759
    30  H    0.149884
    31  H    0.149401
    32  H    0.155847
    33  H    0.155832
    34  H    0.158235
 Sum of Mulliken charges =  -0.00000

 Dipole moment (field-independent basis, Debye):
    X=             -1.1973    Y=             -5.0126    Z=              0.5073  Tot=              5.1785
 Quadrupole moment (field-independent basis, Debye-Ang):
   XX=            -90.2085   YY=            -99.9654   ZZ=            -88.9482
   XY=             14.4296   XZ=             -2.3130   YZ=              0.5782

 Normal termination of Gaussian 16 at Thu May  6 04:46:34 2021.
