 Gaussian 16, Revision A.03,
 Gaussian 16:  EM64L-G16RevA.03 25-Dec-2016

 -------------
 #p 6-31g* mp2
 -------------

 ------------------------------------------------------
 Input file generated by CHIRIPA (05-May-2021 14:51:09)
 ------------------------------------------------------
 Symbolic Z-matrix:
 Charge =  0 Multiplicity = 1

                         Standard orientation:
 ---------------------------------------------------------------------
 Center     Atomic      Atomic             Coordinates (Angstroms)
 Number     Number       Type             X           Y           Z
 ---------------------------------------------------------------------
      1          6           0       -4.030880    0.536556    0.105903
      2          6           0       -3.656592    1.964039   -0.294329
      3          6           0       -4.834319    2.933998   -0.194657
      4          1           0       -4.851590    0.186126   -0.534860
      5          1           0       -4.417413    0.540977    1.134479
      6          1           0       -3.269585    1.956723   -1.321358
      7          1           0       -2.836549    2.311042    0.347335
      8          1           0       -5.217298    2.970921    0.830314
      9          1           0       -5.652795    2.614588   -0.847861
     10          1           0       -4.544514    3.948592   -0.485296
     11          6           0       -2.863949   -0.444811    0.011455
     12          6           0       -3.238236   -1.872294    0.411688
     13          6           0       -2.060510   -2.842252    0.312015
     14          1           0       -2.477416   -0.449232   -1.017120
     15          1           0       -2.043239   -0.094381    0.652219
     16          1           0       -4.058280   -2.219297   -0.229977
     17          1           0       -3.625244   -1.864977    1.438716
     18          1           0       -1.242034   -2.522842    0.965219
     19          1           0       -1.677531   -2.879175   -0.712956
     20          1           0       -2.350315   -3.856847    0.602654
     21          6           0        4.088206    0.358237    0.038860
     22          6           0        3.848967    1.866831    0.108814
     23          6           0        5.140386    2.661738    0.304138
     24          1           0        4.586992    0.029370    0.960816
     25          1           0        4.781369    0.141802   -0.785808
     26          1           0        3.155379    2.080223    0.932232
     27          1           0        3.350521    2.192113   -0.813334
     28          1           0        5.834508    2.478133   -0.522351
     29          1           0        5.638259    2.365607    1.233133
     30          1           0        4.946204    3.737804    0.351405
     31          6           0        2.806623   -0.449982   -0.156218
     32          6           0        3.045862   -1.958576   -0.226173
     33          6           0        1.754442   -2.753484   -0.421496
     34          1           0        2.113461   -0.233547    0.668450
     35          1           0        2.307837   -0.121115   -1.078175
     36          1           0        3.544309   -2.283858    0.695976
     37          1           0        3.739449   -2.171969   -1.049590
     38          1           0        1.256570   -2.457353   -1.350491
     39          1           0        1.060320   -2.569878    0.404993
     40          1           0        1.948626   -3.829550   -0.468763
 ---------------------------------------------------------------------

 SCF Done:  E(RHF) =  -470.732807786     A.U. after   11 cycles
 E2 =    -0.1582675013D+01 EUMP2 =    -0.47231548279959D+03

 The electronic state is 1-A.
 Alpha  occ. eigenvalues --  -11.21586 -11.21585 -11.21556 -11.21537 -11.21381
 Alpha  occ. eigenvalues --  -11.21377 -11.21321 -11.21317 -11.21060 -11.21060
 Alpha  occ. eigenvalues --  -11.20984 -11.20941  -1.08408  -1.08391  -1.03521
 Alpha  occ. eigenvalues --   -1.03464  -0.96001  -0.95882  -0.87058  -0.86860
 Alpha  occ. eigenvalues --   -0.79666  -0.79451  -0.78248  -0.78172  -0.65058
 Alpha  occ. eigenvalues --   -0.65008  -0.60978  -0.60817  -0.59339  -0.59282
 Alpha  occ. eigenvalues --   -0.57722  -0.57409  -0.55384  -0.55092  -0.52736
 Alpha  occ. eigenvalues --   -0.52617  -0.52583  -0.52075  -0.50060  -0.49710
 Alpha  occ. eigenvalues --   -0.48116  -0.47609  -0.46706  -0.46462  -0.45860
 Alpha  occ. eigenvalues --   -0.45717  -0.45662  -0.45554  -0.43764  -0.43734
 Alpha virt. eigenvalues --    0.22115   0.23111   0.23578   0.24915   0.25677
 Alpha virt. eigenvalues --    0.26450   0.27093   0.27432   0.27956   0.29444
 Alpha virt. eigenvalues --    0.29488   0.31355   0.31827   0.32112   0.32236

 Mulliken charges:
               1
     1  C   -0.298251
     2  C   -0.299578
     3  C   -0.475692
     4  H    0.149596
     5  H    0.149387
     6  H    0.151870
     7  H    0.151976
     8  H    0.155122
     9  H    0.155137
    10  H    0.160198
    11  C   -0.297861
    12  C   -0.300107
    13  C   -0.477021
    14  H    0.149464
    15  H    0.149287
    16  H    0.151642
    17  H    0.151428
    18  H    0.156584
    19  H    0.157572
    20  H    0.159738
    21  C   -0.298228
    22  C   -0.299561
    23  C   -0.475685
    24  H    0.149506
    25  H    0.149522
    26  H    0.151687
    27  H    0.152001
    28  H    0.155178
    29  H    0.155115
    30  H    0.160174
    31  C   -0.297816
    32  C   -0.300230
    33  C   -0.477677
    34  H    0.148647
    35  H    0.149752
    36  H    0.151428
    37  H    0.151417
    38  H    0.154340
    39  H    0.160226
    40  H    0.159715
 Sum of Mulliken charges =  -0.00000

 Dipole moment (field-independent basis, Debye):
    X=             -0.0132    Y=             -0.0191    Z=             -0.0055  Tot=              0.0239
 Quadrupole moment (field-independent basis, Debye-Ang):
   XX=            -86.1970   YY=            -85.9217   ZZ=            -82.8030
   XY=              0.1094   XZ=              0.0603   YZ=              0.0198

 Normal termination of Gaussian 16 at Thu May  6 06:53:12 2021.
