 Gaussian 16, Revision A.03,
 Gaussian 16:  EM64L-G16RevA.03 25-Dec-2016

 -------------
 #p 6-31g* mp2
 -------------

 ------------------------------------------------------
 Input file generated by CHIRIPA (05-May-2021 14:57:22)
 ------------------------------------------------------
 Symbolic Z-matrix:
 Charge =  0 Multiplicity = 1

                         Standard orientation:
 ---------------------------------------------------------------------
 Center     Atomic      Atomic             Coordinates (Angstroms)
 Number     Number       Type             X           Y           Z
 ---------------------------------------------------------------------
      1          6           0        2.244227    2.110579    0.226624
      2          6           0        3.402236    2.070535    1.010162
      3          6           0        4.342145    1.050276    0.836404
      4          6           0        4.090998    0.081945   -0.134446
      5          6           0        2.946834    0.094573   -0.930699
      6          6           0        2.020616    1.124209   -0.739602
      7          1           0        1.519401    2.906783    0.368337
      8          1           0        3.578518    2.835230    1.761302
      9          1           0        5.247098    0.995214    1.429234
     10          1           0        2.798743   -0.681761   -1.671505
     11          1           0        1.122177    1.152785   -1.349551
     12          7           0        5.078790   -1.003121   -0.327573
     13          8           0        4.834198   -1.844362   -1.189620
     14          8           0        6.078911   -0.991808    0.386757
     15          6           0       -1.685132   -0.975441    1.010270
     16          6           0       -1.785822   -0.473266   -0.291346
     17          6           0       -3.023501   -0.074270   -0.804665
     18          6           0       -4.145049   -0.191686    0.014867
     19          6           0       -4.077089   -0.688092    1.315733
     20          6           0       -2.829070   -1.081065    1.808249
     21          1           0       -0.719657   -1.283051    1.400948
     22          1           0       -0.899106   -0.390111   -0.913331
     23          1           0       -3.130003    0.317959   -1.808773
     24          1           0       -4.978734   -0.759115    1.911895
     25          1           0       -2.753867   -1.470698    2.819473
     26          7           0       -5.460798    0.227525   -0.517549
     27          8           0       -6.433919    0.114060    0.224609
     28          8           0       -5.494048    0.661630   -1.666933
 ---------------------------------------------------------------------

 SCF Done:  E(RHF) =  -868.337237693     A.U. after   16 cycles
 E2 =    -0.2599642843D+01 EUMP2 =    -0.87093688053607D+03

 The electronic state is 1-A.
 Alpha  occ. eigenvalues --  -20.61438 -20.61430 -20.61185 -20.61177 -15.86497
 Alpha  occ. eigenvalues --  -15.86243 -11.31983 -11.31677 -11.28631 -11.28548
 Alpha  occ. eigenvalues --  -11.28319 -11.28311 -11.28242 -11.28000 -11.27683
 Alpha  occ. eigenvalues --  -11.27543 -11.27359 -11.27236  -1.60512  -1.60259
 Alpha  occ. eigenvalues --   -1.40061  -1.39811  -1.20181  -1.19867  -1.09539
 Alpha  occ. eigenvalues --   -1.09239  -1.05614  -1.05293  -0.96349  -0.96058
 Alpha  occ. eigenvalues --   -0.87001  -0.86674  -0.83192  -0.82899  -0.78235
 Alpha  occ. eigenvalues --   -0.77935  -0.72708  -0.72457  -0.71842  -0.71586
 Alpha  occ. eigenvalues --   -0.71247  -0.70944  -0.65826  -0.65739  -0.65517
 Alpha  occ. eigenvalues --   -0.65219  -0.63001  -0.62585  -0.56062  -0.55748
 Alpha  occ. eigenvalues --   -0.53945  -0.53770  -0.53597  -0.53299  -0.49478
 Alpha  occ. eigenvalues --   -0.49458  -0.49222  -0.49209  -0.45440  -0.45201
 Alpha  occ. eigenvalues --   -0.38163  -0.37828  -0.37234  -0.36896
 Alpha virt. eigenvalues --    0.04318   0.04613   0.10274   0.10827   0.15668
 Alpha virt. eigenvalues --    0.16065   0.19052   0.21713   0.24770   0.27579
 Alpha virt. eigenvalues --    0.27848   0.28246   0.29610   0.31521   0.31833

 Mulliken charges:
               1
     1  C   -0.170695
     2  C   -0.219169
     3  C   -0.169896
     4  C    0.158413
     5  C   -0.173549
     6  C   -0.223954
     7  H    0.229786
     8  H    0.226611
     9  H    0.278145
    10  H    0.275650
    11  H    0.219872
    12  N    0.487964
    13  O   -0.459588
    14  O   -0.458131
    15  C   -0.171265
    16  C   -0.221708
    17  C   -0.171721
    18  C    0.158685
    19  C   -0.170107
    20  C   -0.218923
    21  H    0.229669
    22  H    0.217269
    23  H    0.274888
    24  H    0.277242
    25  H    0.225650
    26  N    0.488079
    27  O   -0.458894
    28  O   -0.460322
 Sum of Mulliken charges =  -0.00000

 Dipole moment (field-independent basis, Debye):
    X=              1.2486    Y=              2.3791    Z=              2.7308  Tot=              3.8310
 Quadrupole moment (field-independent basis, Debye-Ang):
   XX=           -169.0922   YY=           -103.6131   ZZ=            -99.0168
   XY=             22.8814   XZ=             -4.2373   YZ=             -0.4432

 Normal termination of Gaussian 16 at Thu May  6 09:40:15 2021.
