 Gaussian 16, Revision A.03,
 Gaussian 16:  EM64L-G16RevA.03 25-Dec-2016

 -------------
 #p 6-31g* mp2
 -------------

 ------------------------------------------------------
 Input file generated by CHIRIPA (05-May-2021 14:55:23)
 ------------------------------------------------------
 Symbolic Z-matrix:
 Charge =  0 Multiplicity = 1

                         Standard orientation:
 ---------------------------------------------------------------------
 Center     Atomic      Atomic             Coordinates (Angstroms)
 Number     Number       Type             X           Y           Z
 ---------------------------------------------------------------------
      1          6           0        5.162646    1.895919    0.024773
      2          6           0        3.816023    2.244231    0.172436
      3          6           0        2.821710    1.261740    0.147921
      4          6           0        3.211376   -0.065244   -0.026900
      5          6           0        4.544591   -0.443896   -0.176735
      6          6           0        5.521999    0.555331   -0.149035
      7          1           0        5.928487    2.665642    0.045053
      8          1           0        3.534019    3.284547    0.307570
      9          1           0        1.771734    1.503492    0.259842
     10          1           0        4.794876   -1.489391   -0.309833
     11          1           0        6.567022    0.281902   -0.263963
     12          7           0        2.167689   -1.114222   -0.054539
     13          8           0        2.537014   -2.276158   -0.209917
     14          8           0        1.000085   -0.754613    0.079699
     15          6           0       -4.583942    0.573909    0.141824
     16          6           0       -6.020357    0.789636   -0.335838
     17          6           0       -6.512654    2.218274   -0.102534
     18          1           0       -4.519909    0.815203    1.211694
     19          1           0       -3.922046    1.280304   -0.378074
     20          1           0       -6.679148    0.082107    0.183790
     21          1           0       -6.081020    0.547616   -1.404651
     22          1           0       -5.879354    2.935657   -0.634412
     23          1           0       -6.480880    2.467503    0.963053
     24          1           0       -7.541628    2.350318   -0.451298
     25          6           0       -4.077530   -0.849467   -0.084621
     26          6           0       -2.641116   -1.065194    0.393041
     27          6           0       -2.148819   -2.493833    0.159738
     28          1           0       -4.739427   -1.555862    0.435277
     29          1           0       -4.141563   -1.090761   -1.154491
     30          1           0       -2.580453   -0.823175    1.461854
     31          1           0       -1.982325   -0.357666   -0.126586
     32          1           0       -2.180593   -2.743061   -0.905850
     33          1           0       -2.782119   -3.211215    0.691616
     34          1           0       -1.119844   -2.625876    0.508502
 ---------------------------------------------------------------------

 SCF Done:  E(RHF) =  -669.536183412     A.U. after   15 cycles
 E2 =    -0.2091452299D+01 EUMP2 =    -0.67162763571113D+03

 The electronic state is 1-A.
 Alpha  occ. eigenvalues --  -20.61021 -20.61014 -15.86040 -11.31337 -11.27896
 Alpha  occ. eigenvalues --  -11.27892 -11.27629 -11.26897 -11.26887 -11.21005
 Alpha  occ. eigenvalues --  -11.20630 -11.20610 -11.20290 -11.20046 -11.19159
 Alpha  occ. eigenvalues --   -1.60074  -1.39631  -1.19502  -1.08912  -1.07460
 Alpha  occ. eigenvalues --   -1.04894  -1.02427  -0.95762  -0.94878  -0.86296
 Alpha  occ. eigenvalues --   -0.85913  -0.82592  -0.78578  -0.77654  -0.77178
 Alpha  occ. eigenvalues --   -0.72265  -0.71384  -0.70610  -0.65159  -0.64897
 Alpha  occ. eigenvalues --   -0.64108  -0.62241  -0.59840  -0.58340  -0.56434
 Alpha  occ. eigenvalues --   -0.55396  -0.54213  -0.53227  -0.52985  -0.51556
 Alpha  occ. eigenvalues --   -0.51335  -0.49027  -0.48969  -0.48845  -0.46835
 Alpha  occ. eigenvalues --   -0.45656  -0.45053  -0.44739  -0.44606  -0.42662
 Alpha  occ. eigenvalues --   -0.37480  -0.36493
 Alpha virt. eigenvalues --    0.04876   0.11162   0.16378   0.21269   0.23716
 Alpha virt. eigenvalues --    0.25467   0.27176   0.27495   0.28004   0.28569
 Alpha virt. eigenvalues --    0.29160   0.30828   0.32113   0.32453   0.32806

 Mulliken charges:
               1
     1  C   -0.170501
     2  C   -0.218556
     3  C   -0.170694
     4  C    0.157363
     5  C   -0.170542
     6  C   -0.218606
     7  H    0.226163
     8  H    0.224048
     9  H    0.275940
    10  H    0.275979
    11  H    0.223965
    12  N    0.492450
    13  O   -0.458710
    14  O   -0.462374
    15  C   -0.296708
    16  C   -0.298677
    17  C   -0.474978
    18  H    0.147372
    19  H    0.146691
    20  H    0.151180
    21  H    0.151047
    22  H    0.153305
    23  H    0.153920
    24  H    0.158355
    25  C   -0.297754
    26  C   -0.297273
    27  C   -0.478470
    28  H    0.146126
    29  H    0.147250
    30  H    0.145685
    31  H    0.159815
    32  H    0.149434
    33  H    0.143129
    34  H    0.184626
 Sum of Mulliken charges =  -0.00000

 Dipole moment (field-independent basis, Debye):
    X=              4.1405    Y=              3.6768    Z=              0.0899  Tot=              5.5382
 Quadrupole moment (field-independent basis, Debye-Ang):
   XX=            -70.5590   YY=            -94.2495   ZZ=            -94.8561
   XY=              9.5307   XZ=             -0.5644   YZ=              0.1052

 Normal termination of Gaussian 16 at Thu May  6 09:25:27 2021.
