 Gaussian 16, Revision A.03,
 Gaussian 16:  EM64L-G16RevA.03 25-Dec-2016

 -------------
 #p 6-31g* mp2
 -------------

 ------------------------------------------------------
 Input file generated by CHIRIPA (05-May-2021 14:57:24)
 ------------------------------------------------------
 Symbolic Z-matrix:
 Charge =  0 Multiplicity = 1

                         Standard orientation:
 ---------------------------------------------------------------------
 Center     Atomic      Atomic             Coordinates (Angstroms)
 Number     Number       Type             X           Y           Z
 ---------------------------------------------------------------------
      1          6           0        1.752532    1.897073    0.876659
      2          6           0        2.074353    0.810455    1.696546
      3          6           0        3.017724   -0.135318    1.284101
      4          6           0        3.622672    0.037228    0.040093
      5          6           0        3.323302    1.109114   -0.799388
      6          6           0        2.376933    2.042678   -0.366500
      7          1           0        1.018534    2.627030    1.204997
      8          1           0        1.591022    0.694836    2.662501
      9          1           0        3.285634   -0.986016    1.898882
     10          1           0        3.821832    1.197592   -1.757020
     11          1           0        2.128969    2.885566   -1.005326
     12          7           0        4.622964   -0.957557   -0.407366
     13          8           0        5.141806   -0.782935   -1.507796
     14          8           0        4.869209   -1.893054    0.350819
     15          6           0       -0.934881   -0.173892   -0.113097
     16          6           0       -1.622058   -1.369584    0.120636
     17          6           0       -3.019850   -1.396478    0.122542
     18          6           0       -3.701719   -0.203819   -0.113911
     19          6           0       -3.045667    1.003310   -0.349971
     20          6           0       -1.647622    1.006657   -0.347241
     21          1           0        0.151055   -0.162147   -0.112777
     22          1           0       -1.071148   -2.287936    0.302768
     23          1           0       -3.577075   -2.308171    0.300679
     24          1           0       -3.622376    1.902740   -0.528442
     25          1           0       -1.116596    1.936711   -0.529056
     26          7           0       -5.181633   -0.219826   -0.114347
     27          8           0       -5.759115    0.844441   -0.325270
     28          8           0       -5.736084   -1.296335    0.096244
 ---------------------------------------------------------------------

 SCF Done:  E(RHF) =  -868.335966988     A.U. after   16 cycles
 E2 =    -0.2603312389D+01 EUMP2 =    -0.87093927937678D+03

 The electronic state is 1-A.
 Alpha  occ. eigenvalues --  -20.61804 -20.61798 -20.61029 -20.61021 -15.86865
 Alpha  occ. eigenvalues --  -15.86087 -11.32512 -11.31471 -11.29069 -11.29048
 Alpha  occ. eigenvalues --  -11.28798 -11.28129 -11.28126 -11.28054 -11.28053
 Alpha  occ. eigenvalues --  -11.27611 -11.27118 -11.26986  -1.60875  -1.60105
 Alpha  occ. eigenvalues --   -1.40419  -1.39658  -1.20724  -1.19659  -1.10064
 Alpha  occ. eigenvalues --   -1.09016  -1.06108  -1.05086  -0.96831  -0.95851
 Alpha  occ. eigenvalues --   -0.87472  -0.86474  -0.83618  -0.82706  -0.78629
 Alpha  occ. eigenvalues --   -0.77769  -0.73066  -0.72303  -0.72214  -0.71751
 Alpha  occ. eigenvalues --   -0.71433  -0.70760  -0.66310  -0.66048  -0.65302
 Alpha  occ. eigenvalues --   -0.65117  -0.63395  -0.62447  -0.56582  -0.56050
 Alpha  occ. eigenvalues --   -0.54134  -0.53889  -0.53377  -0.53166  -0.49850
 Alpha  occ. eigenvalues --   -0.49812  -0.49062  -0.49055  -0.45762  -0.45059
 Alpha  occ. eigenvalues --   -0.38801  -0.37953  -0.37290  -0.36716
 Alpha virt. eigenvalues --    0.03822   0.04786   0.09823   0.10889   0.15282
 Alpha virt. eigenvalues --    0.16298   0.19483   0.21762   0.25325   0.26482
 Alpha virt. eigenvalues --    0.28062   0.28668   0.29901   0.30749   0.31804

 Mulliken charges:
               1
     1  C   -0.181787
     2  C   -0.223606
     3  C   -0.175930
     4  C    0.158677
     5  C   -0.170325
     6  C   -0.222391
     7  H    0.229919
     8  H    0.230859
     9  H    0.279778
    10  H    0.280666
    11  H    0.227419
    12  N    0.487952
    13  O   -0.456272
    14  O   -0.457386
    15  C   -0.174131
    16  C   -0.222855
    17  C   -0.169614
    18  C    0.157336
    19  C   -0.170204
    20  C   -0.224993
    21  H    0.240066
    22  H    0.225242
    23  H    0.276713
    24  H    0.274614
    25  H    0.212500
    26  N    0.488151
    27  O   -0.460992
    28  O   -0.459405
 Sum of Mulliken charges =  -0.00000

 Dipole moment (field-independent basis, Debye):
    X=              2.0557    Y=              3.4707    Z=              1.6180  Tot=              4.3462
 Quadrupole moment (field-independent basis, Debye-Ang):
   XX=           -169.3576   YY=            -98.8908   ZZ=           -101.6084
   XY=             11.8321   XZ=              4.3271   YZ=             -3.3776

 Normal termination of Gaussian 16 at Thu May  6 00:19:24 2021.
