 Gaussian 16, Revision A.03,
 Gaussian 16:  EM64L-G16RevA.03 25-Dec-2016

 -------------
 #p 6-31g* mp2
 -------------

 ------------------------------------------------------
 Input file generated by CHIRIPA (05-May-2021 14:57:25)
 ------------------------------------------------------
 Symbolic Z-matrix:
 Charge =  0 Multiplicity = 1

                         Standard orientation:
 ---------------------------------------------------------------------
 Center     Atomic      Atomic             Coordinates (Angstroms)
 Number     Number       Type             X           Y           Z
 ---------------------------------------------------------------------
      1          6           0        5.166082   -1.959112    0.578038
      2          6           0        5.725169   -0.691721    0.772107
      3          6           0        5.033910    0.457361    0.376735
      4          6           0        3.780060    0.301575   -0.212232
      5          6           0        3.196430   -0.947380   -0.419059
      6          6           0        3.905719   -2.082678   -0.015879
      7          1           0        5.710072   -2.846393    0.888205
      8          1           0        6.703810   -0.592736    1.233095
      9          1           0        5.443268    1.450690    0.515091
     10          1           0        2.219039   -1.014211   -0.881291
     11          1           0        3.469065   -3.065676   -0.167842
     12          7           0        3.038712    1.510761   -0.634927
     13          8           0        1.935617    1.346630   -1.151532
     14          8           0        3.574775    2.599755   -0.441628
     15          6           0       -1.408485    0.023906    0.504729
     16          6           0       -1.939543   -0.911702   -0.389214
     17          6           0       -3.319705   -0.990548   -0.597745
     18          6           0       -4.143331   -0.114486    0.107554
     19          6           0       -3.644505    0.828495    1.004910
     20          6           0       -2.261156    0.889493    1.197716
     21          1           0       -0.335104    0.078223    0.660613
     22          1           0       -1.279743   -1.585192   -0.928770
     23          1           0       -3.757553   -1.705324   -1.283895
     24          1           0       -4.327479    1.486554    1.528285
     25          1           0       -1.851529    1.617099    1.892583
     26          7           0       -5.606134   -0.188510   -0.104886
     27          8           0       -6.310428    0.594537    0.528710
     28          8           0       -6.020684   -1.028174   -0.900968
 ---------------------------------------------------------------------

 SCF Done:  E(RHF) =  -868.338427114     A.U. after   16 cycles
 E2 =    -0.2599178011D+01 EUMP2 =    -0.87093760512499D+03

 The electronic state is 1-A.
 Alpha  occ. eigenvalues --  -20.61829 -20.61779 -20.60396 -20.60389 -15.86835
 Alpha  occ. eigenvalues --  -15.85449 -11.32130 -11.30721 -11.28744 -11.28620
 Alpha  occ. eigenvalues --  -11.28340 -11.27676 -11.27609 -11.27335 -11.27288
 Alpha  occ. eigenvalues --  -11.26964 -11.26332 -11.26227  -1.60870  -1.59474
 Alpha  occ. eigenvalues --   -1.40429  -1.39030  -1.20276  -1.18892  -1.09673
 Alpha  occ. eigenvalues --   -1.08285  -1.05666  -1.04298  -0.96527  -0.95136
 Alpha  occ. eigenvalues --   -0.87064  -0.85696  -0.83360  -0.81985  -0.78437
 Alpha  occ. eigenvalues --   -0.77060  -0.73048  -0.72196  -0.71670  -0.71367
 Alpha  occ. eigenvalues --   -0.70796  -0.69954  -0.65922  -0.65654  -0.64546
 Alpha  occ. eigenvalues --   -0.64318  -0.63022  -0.61665  -0.56133  -0.54746
 Alpha  occ. eigenvalues --   -0.53993  -0.53748  -0.52606  -0.52402  -0.49821
 Alpha  occ. eigenvalues --   -0.49793  -0.48429  -0.48421  -0.45836  -0.44457
 Alpha  occ. eigenvalues --   -0.38227  -0.37266  -0.36815  -0.35906
 Alpha virt. eigenvalues --    0.04059   0.05505   0.10336   0.11758   0.15589
 Alpha virt. eigenvalues --    0.17031   0.19586   0.21773   0.25574   0.26964
 Alpha virt. eigenvalues --    0.28089   0.28673   0.30660   0.31246   0.31941

 Mulliken charges:
               1
     1  C   -0.170204
     2  C   -0.217802
     3  C   -0.170499
     4  C    0.158518
     5  C   -0.175098
     6  C   -0.217340
     7  H    0.228925
     8  H    0.226797
     9  H    0.277802
    10  H    0.269136
    11  H    0.224893
    12  N    0.487712
    13  O   -0.465339
    14  O   -0.454754
    15  C   -0.164269
    16  C   -0.217837
    17  C   -0.171022
    18  C    0.157650
    19  C   -0.170741
    20  C   -0.218806
    21  H    0.229195
    22  H    0.215579
    23  H    0.273412
    24  H    0.274664
    25  H    0.224602
    26  N    0.488260
    27  O   -0.461226
    28  O   -0.462208
 Sum of Mulliken charges =  -0.00000

 Dipole moment (field-independent basis, Debye):
    X=              8.1995    Y=             -3.9055    Z=              2.3089  Tot=              9.3710
 Quadrupole moment (field-independent basis, Debye-Ang):
   XX=           -124.8282   YY=           -103.5540   ZZ=           -103.8975
   XY=            -15.5649   XZ=              3.7211   YZ=              5.1510

 Normal termination of Gaussian 16 at Fri May  7 03:28:00 2021.
