 Gaussian 16, Revision A.03,
 Gaussian 16:  EM64L-G16RevA.03 25-Dec-2016

 -------------
 #p 6-31g* mp2
 -------------

 ------------------------------------------------------
 Input file generated by CHIRIPA (05-May-2021 14:53:16)
 ------------------------------------------------------
 Symbolic Z-matrix:
 Charge =  0 Multiplicity = 1

                         Standard orientation:
 ---------------------------------------------------------------------
 Center     Atomic      Atomic             Coordinates (Angstroms)
 Number     Number       Type             X           Y           Z
 ---------------------------------------------------------------------
      1          6           0        4.195267   -0.555848    0.224314
      2          6           0        2.885280    0.163130   -0.099708
      3          6           0        1.660556   -0.555806    0.466841
      4          1           0        4.152544   -1.579137   -0.173179
      5          1           0        4.294861   -0.647995    1.314720
      6          1           0        2.788851    0.255121   -1.189136
      7          1           0        2.931201    1.184888    0.298436
      8          1           0        1.730045   -0.634715    1.556587
      9          1           0        1.586886   -1.569765    0.060563
     10          1           0        0.735029   -0.024738    0.223478
     11          6           0        5.428636    0.150760   -0.335358
     12          6           0        6.738623   -0.568218   -0.011336
     13          6           0        7.963347    0.150718   -0.577885
     14          1           0        5.329042    0.242907   -1.425764
     15          1           0        5.471358    1.174049    0.062135
     16          1           0        6.692701   -1.589975   -0.409479
     17          1           0        6.835052   -0.660209    1.078093
     18          1           0        8.037017    1.164677   -0.171607
     19          1           0        7.893858    0.229627   -1.667631
     20          1           0        8.888874   -0.380350   -0.334522
     21          6           0       -1.917371    1.763136    0.673762
     22          6           0       -1.892035    0.447391    1.147780
     23          6           0       -2.907325   -0.450485    0.804923
     24          6           0       -3.937412    0.003082   -0.017566
     25          6           0       -3.990694    1.307734   -0.505761
     26          6           0       -2.964773    2.188359   -0.150043
     27          1           0       -1.124540    2.453927    0.945097
     28          1           0       -1.079854    0.114391    1.787717
     29          1           0       -2.912453   -1.474613    1.157847
     30          1           0       -4.813441    1.610538   -1.142012
     31          1           0       -2.987044    3.209605   -0.519645
     32          7           0       -5.017881   -0.938328   -0.387342
     33          8           0       -5.914307   -0.514127   -1.113366
     34          8           0       -4.947868   -2.082580    0.055855
 ---------------------------------------------------------------------

 SCF Done:  E(RHF) =  -669.534815490     A.U. after   15 cycles
 E2 =    -0.2091829966D+01 EUMP2 =    -0.67162664545585D+03

 The electronic state is 1-A.
 Alpha  occ. eigenvalues --  -20.60760 -20.60755 -15.85812 -11.31190 -11.27749
 Alpha  occ. eigenvalues --  -11.27730 -11.27492 -11.26777 -11.26708 -11.22290
 Alpha  occ. eigenvalues --  -11.21969 -11.21919 -11.21851 -11.21811 -11.21385
 Alpha  occ. eigenvalues --   -1.59835  -1.39388  -1.19361  -1.08948  -1.08756
 Alpha  occ. eigenvalues --   -1.04764  -1.04069  -0.96535  -0.95586  -0.87576
 Alpha  occ. eigenvalues --   -0.86150  -0.82414  -0.80149  -0.78739  -0.77459
 Alpha  occ. eigenvalues --   -0.72031  -0.71157  -0.70463  -0.65577  -0.65010
 Alpha  occ. eigenvalues --   -0.64796  -0.62148  -0.61460  -0.59892  -0.58132
 Alpha  occ. eigenvalues --   -0.55817  -0.55262  -0.53547  -0.53063  -0.52884
 Alpha  occ. eigenvalues --   -0.52602  -0.50466  -0.48789  -0.48785  -0.48453
 Alpha  occ. eigenvalues --   -0.47168  -0.46286  -0.46195  -0.44791  -0.44317
 Alpha  occ. eigenvalues --   -0.37319  -0.36324
 Alpha virt. eigenvalues --    0.05059   0.11169   0.16542   0.20933   0.22495
 Alpha virt. eigenvalues --    0.23934   0.25944   0.26363   0.27053   0.27991
 Alpha virt. eigenvalues --    0.28840   0.29881   0.31046   0.31698   0.32182

 Mulliken charges:
               1
     1  C   -0.298856
     2  C   -0.298648
     3  C   -0.486338
     4  H    0.151816
     5  H    0.149363
     6  H    0.155010
     7  H    0.148456
     8  H    0.149827
     9  H    0.160650
    10  H    0.163282
    11  C   -0.298590
    12  C   -0.300010
    13  C   -0.475948
    14  H    0.150539
    15  H    0.149015
    16  H    0.153048
    17  H    0.152080
    18  H    0.155049
    19  H    0.155800
    20  H    0.161431
    21  C   -0.173091
    22  C   -0.219174
    23  C   -0.173298
    24  C    0.158664
    25  C   -0.171149
    26  C   -0.218115
    27  H    0.226118
    28  H    0.230593
    29  H    0.276021
    30  H    0.275588
    31  H    0.223470
    32  N    0.488067
    33  O   -0.460451
    34  O   -0.460218
 Sum of Mulliken charges =  -0.00000

 Dipole moment (field-independent basis, Debye):
    X=              3.8902    Y=              3.2897    Z=              1.2614  Tot=              5.2485
 Quadrupole moment (field-independent basis, Debye-Ang):
   XX=           -124.8777   YY=            -92.3058   ZZ=            -93.3757
   XY=            -15.4172   XZ=             -3.6059   YZ=             -1.6539

 Normal termination of Gaussian 16 at Thu May  6 07:31:14 2021.
