 Gaussian 16, Revision A.03,
 Gaussian 16:  EM64L-G16RevA.03 25-Dec-2016

 -------------
 #p 6-31g* mp2
 -------------

 ------------------------------------------------------
 Input file generated by CHIRIPA (05-May-2021 14:51:09)
 ------------------------------------------------------
 Symbolic Z-matrix:
 Charge =  0 Multiplicity = 1

                         Standard orientation:
 ---------------------------------------------------------------------
 Center     Atomic      Atomic             Coordinates (Angstroms)
 Number     Number       Type             X           Y           Z
 ---------------------------------------------------------------------
      1          6           0        2.435908    1.058975   -0.041561
      2          6           0        3.293671    2.276773    0.303688
      3          6           0        2.458298    3.517326    0.621452
      4          1           0        1.795298    1.301293   -0.900540
      5          1           0        1.762541    0.843158    0.799507
      6          1           0        3.966187    2.489389   -0.537223
      7          1           0        3.932451    2.031465    1.161826
      8          1           0        1.798216    3.329165    1.474381
      9          1           0        1.832143    3.789690   -0.234322
     10          1           0        3.091508    4.376027    0.865460
     11          6           0        3.256696   -0.189059   -0.361630
     12          6           0        2.398933   -1.406857   -0.706879
     13          6           0        3.234306   -2.647410   -1.024643
     14          1           0        3.930063    0.026758   -1.202698
     15          1           0        3.897306   -0.431377    0.497349
     16          1           0        1.760153   -1.161549   -1.565017
     17          1           0        1.726417   -1.619472    0.134033
     18          1           0        3.860461   -2.919774   -0.168869
     19          1           0        3.894388   -2.459249   -1.877572
     20          1           0        2.601096   -3.506110   -1.268651
     21          6           0       -3.236808   -0.137579   -0.383642
     22          6           0       -4.234600    0.941232    0.038925
     23          6           0       -5.008159    1.526564   -1.142933
     24          1           0       -2.531643    0.288563   -1.110340
     25          1           0       -3.775207   -0.941248   -0.904830
     26          1           0       -3.694673    1.741970    0.560378
     27          1           0       -4.937354    0.512524    0.764847
     28          1           0       -5.571920    0.743463   -1.660162
     29          1           0       -4.322179    1.979893   -1.865792
     30          1           0       -5.715760    2.295789   -0.818199
     31          6           0       -2.455796   -0.732338    0.786833
     32          6           0       -1.458004   -1.811148    0.364266
     33          6           0       -0.684445   -2.396480    1.546124
     34          1           0       -1.917397    0.071332    1.308020
     35          1           0       -3.160961   -1.158479    1.513532
     36          1           0       -0.755249   -1.382441   -0.361655
     37          1           0       -1.997931   -2.611886   -0.157188
     38          1           0       -1.370425   -2.849810    2.268983
     39          1           0       -0.120683   -1.613379    2.063353
     40          1           0        0.023156   -3.165705    1.221390
 ---------------------------------------------------------------------

 SCF Done:  E(RHF) =  -470.732681161     A.U. after   11 cycles
 E2 =    -0.1583923439D+01 EUMP2 =    -0.47231660460069D+03

 The electronic state is 1-A.
 Alpha  occ. eigenvalues --  -11.21643 -11.21581 -11.21530 -11.21523 -11.21446
 Alpha  occ. eigenvalues --  -11.21377 -11.21368 -11.21317 -11.21114 -11.21097
 Alpha  occ. eigenvalues --  -11.21070 -11.21057  -1.08473  -1.08388  -1.03596
 Alpha  occ. eigenvalues --   -1.03469  -0.96021  -0.95960  -0.87027  -0.86984
 Alpha  occ. eigenvalues --   -0.79649  -0.79550  -0.78324  -0.78169  -0.65175
 Alpha  occ. eigenvalues --   -0.64965  -0.61118  -0.60797  -0.59496  -0.59213
 Alpha  occ. eigenvalues --   -0.57720  -0.57459  -0.55329  -0.55239  -0.52704
 Alpha  occ. eigenvalues --   -0.52655  -0.52425  -0.52398  -0.50005  -0.49863
 Alpha  occ. eigenvalues --   -0.48016  -0.47831  -0.46663  -0.46570  -0.45961
 Alpha  occ. eigenvalues --   -0.45754  -0.45663  -0.45487  -0.43801  -0.43763
 Alpha virt. eigenvalues --    0.20729   0.23315   0.23547   0.24431   0.25464
 Alpha virt. eigenvalues --    0.26225   0.27085   0.27889   0.28209   0.29422
 Alpha virt. eigenvalues --    0.30761   0.31419   0.31556   0.31751   0.32334

 Mulliken charges:
               1
     1  C   -0.299198
     2  C   -0.299571
     3  C   -0.475724
     4  H    0.149136
     5  H    0.149057
     6  H    0.152262
     7  H    0.152200
     8  H    0.154944
     9  H    0.155056
    10  H    0.160533
    11  C   -0.297426
    12  C   -0.310820
    13  C   -0.475515
    14  H    0.149328
    15  H    0.149550
    16  H    0.151409
    17  H    0.166451
    18  H    0.155060
    19  H    0.155106
    20  H    0.159961
    21  C   -0.298197
    22  C   -0.299677
    23  C   -0.475674
    24  H    0.149641
    25  H    0.149384
    26  H    0.152082
    27  H    0.151853
    28  H    0.155100
    29  H    0.155088
    30  H    0.160217
    31  C   -0.297879
    32  C   -0.304735
    33  C   -0.480007
    34  H    0.149321
    35  H    0.149261
    36  H    0.158934
    37  H    0.151461
    38  H    0.156830
    39  H    0.154112
    40  H    0.161084
 Sum of Mulliken charges =  -0.00000

 Dipole moment (field-independent basis, Debye):
    X=              0.0157    Y=             -0.0082    Z=              0.0013  Tot=              0.0178
 Quadrupole moment (field-independent basis, Debye-Ang):
   XX=            -84.9634   YY=            -85.4365   ZZ=            -84.4599
   XY=              1.3207   XZ=             -0.4133   YZ=             -0.2239

 Normal termination of Gaussian 16 at Wed May  5 21:21:42 2021.
