 Gaussian 16, Revision A.03,
 Gaussian 16:  EM64L-G16RevA.03 25-Dec-2016

 -------------
 #p 6-31g* mp2
 -------------

 ------------------------------------------------------
 Input file generated by CHIRIPA (05-May-2021 14:51:13)
 ------------------------------------------------------
 Symbolic Z-matrix:
 Charge =  0 Multiplicity = 1

                         Standard orientation:
 ---------------------------------------------------------------------
 Center     Atomic      Atomic             Coordinates (Angstroms)
 Number     Number       Type             X           Y           Z
 ---------------------------------------------------------------------
      1          6           0        2.542808   -0.370689    0.614677
      2          6           0        2.361862   -1.883217    0.746969
      3          6           0        1.102505   -2.261945    1.526956
      4          1           0        2.582429    0.076535    1.617356
      5          1           0        1.660378    0.055017    0.117196
      6          1           0        3.244986   -2.306125    1.242811
      7          1           0        2.322859   -2.326914   -0.256139
      8          1           0        0.209406   -1.867270    1.031772
      9          1           0        1.136771   -1.846362    2.539239
     10          1           0        0.992765   -3.347762    1.609525
     11          6           0        3.797418    0.023664   -0.162606
     12          6           0        3.978364    1.536193   -0.294898
     13          6           0        5.237722    1.914921   -1.074884
     14          1           0        4.679848   -0.402041    0.334875
     15          1           0        3.757797   -0.423559   -1.165285
     16          1           0        4.017367    1.979890    0.708211
     17          1           0        3.095241    1.959100   -0.790739
     18          1           0        5.203455    1.499337   -2.087168
     19          1           0        6.130820    1.520245   -0.579701
     20          1           0        5.347461    3.000738   -1.157454
     21          6           0       -3.364047   -0.466430   -0.595218
     22          6           0       -2.299427   -1.560802   -0.512029
     23          6           0       -2.701940   -2.834832   -1.255419
     24          1           0       -4.307885   -0.849904   -0.184046
     25          1           0       -3.555970   -0.230802   -1.651172
     26          1           0       -2.108571   -1.793320    0.543492
     27          1           0       -1.357963   -1.174615   -0.923271
     28          1           0       -2.873031   -2.624224   -2.316066
     29          1           0       -3.627903   -3.246443   -0.840969
     30          1           0       -1.926559   -3.603858   -1.183010
     31          6           0       -2.976179    0.813454    0.143146
     32          6           0       -4.040799    1.907827    0.059958
     33          6           0       -3.638287    3.181856    0.803348
     34          1           0       -2.784256    0.577827    1.199102
     35          1           0       -2.032342    1.196928   -0.268025
     36          1           0       -4.982263    1.521640    0.471200
     37          1           0       -4.231656    2.140344   -0.995563
     38          1           0       -2.712323    3.593468    0.388898
     39          1           0       -3.467196    2.971248    1.863995
     40          1           0       -4.413668    3.950882    0.730939
 ---------------------------------------------------------------------

 SCF Done:  E(RHF) =  -470.732889851     A.U. after   11 cycles
 E2 =    -0.1583119351D+01 EUMP2 =    -0.47231600920221D+03

 The electronic state is 1-A.
 Alpha  occ. eigenvalues --  -11.21656 -11.21624 -11.21592 -11.21539 -11.21442
 Alpha  occ. eigenvalues --  -11.21382 -11.21379 -11.21318 -11.21111 -11.21083
 Alpha  occ. eigenvalues --  -11.21065 -11.20897  -1.08477  -1.08393  -1.03584
 Alpha  occ. eigenvalues --   -1.03471  -0.96019  -0.95924  -0.87040  -0.86941
 Alpha  occ. eigenvalues --   -0.79725  -0.79488  -0.78327  -0.78172  -0.65103
 Alpha  occ. eigenvalues --   -0.65029  -0.60971  -0.60905  -0.59392  -0.59296
 Alpha  occ. eigenvalues --   -0.57673  -0.57508  -0.55299  -0.55209  -0.52714
 Alpha  occ. eigenvalues --   -0.52621  -0.52469  -0.52330  -0.49984  -0.49892
 Alpha  occ. eigenvalues --   -0.48122  -0.47710  -0.46700  -0.46577  -0.45933
 Alpha  occ. eigenvalues --   -0.45755  -0.45710  -0.45447  -0.43816  -0.43743
 Alpha virt. eigenvalues --    0.21348   0.23165   0.23644   0.24772   0.25709
 Alpha virt. eigenvalues --    0.26173   0.27165   0.27638   0.28414   0.29066
 Alpha virt. eigenvalues --    0.30865   0.31075   0.31711   0.31943   0.31988

 Mulliken charges:
               1
     1  C   -0.298701
     2  C   -0.298856
     3  C   -0.485697
     4  H    0.149745
     5  H    0.149282
     6  H    0.151463
     7  H    0.151174
     8  H    0.167590
     9  H    0.153969
    10  H    0.158828
    11  C   -0.298269
    12  C   -0.299530
    13  C   -0.475683
    14  H    0.149597
    15  H    0.149415
    16  H    0.152035
    17  H    0.151527
    18  H    0.155082
    19  H    0.155228
    20  H    0.160186
    21  C   -0.297186
    22  C   -0.305252
    23  C   -0.475833
    24  H    0.149936
    25  H    0.149469
    26  H    0.156613
    27  H    0.152013
    28  H    0.155176
    29  H    0.155525
    30  H    0.161082
    31  C   -0.298752
    32  C   -0.299624
    33  C   -0.475728
    34  H    0.150063
    35  H    0.149178
    36  H    0.152078
    37  H    0.151919
    38  H    0.155249
    39  H    0.155382
    40  H    0.160305
 Sum of Mulliken charges =  -0.00000

 Dipole moment (field-independent basis, Debye):
    X=             -0.0647    Y=              0.0032    Z=             -0.0045  Tot=              0.0649
 Quadrupole moment (field-independent basis, Debye-Ang):
   XX=            -85.0850   YY=            -85.8663   ZZ=            -83.8642
   XY=             -0.2423   XZ=              0.4425   YZ=             -0.4890

 Normal termination of Gaussian 16 at Thu May  6 05:33:47 2021.
