 Gaussian 16, Revision A.03,
 Gaussian 16:  EM64L-G16RevA.03 25-Dec-2016

 -------------
 #p 6-31g* mp2
 -------------

 ------------------------------------------------------
 Input file generated by CHIRIPA (05-May-2021 14:53:17)
 ------------------------------------------------------
 Symbolic Z-matrix:
 Charge =  0 Multiplicity = 1

                         Standard orientation:
 ---------------------------------------------------------------------
 Center     Atomic      Atomic             Coordinates (Angstroms)
 Number     Number       Type             X           Y           Z
 ---------------------------------------------------------------------
      1          6           0        3.607987    0.750833   -0.694288
      2          6           0        2.812791    1.931631   -0.136287
      3          6           0        2.795193    3.132464   -1.082587
      4          1           0        4.638014    1.074128   -0.897929
      5          1           0        3.177616    0.451550   -1.660002
      6          1           0        3.243679    2.227710    0.828746
      7          1           0        1.784588    1.605437    0.066229
      8          1           0        2.345945    2.859583   -2.042958
      9          1           0        3.813325    3.485392   -1.276109
     10          1           0        2.221322    3.965108   -0.663976
     11          6           0        3.634789   -0.457265    0.240329
     12          6           0        4.429985   -1.638063   -0.317671
     13          6           0        4.447583   -2.838896    0.628629
     14          1           0        4.065160   -0.157982    1.206044
     15          1           0        2.604762   -0.780560    0.443970
     16          1           0        5.458188   -1.311869   -0.520188
     17          1           0        3.999097   -1.934142   -1.282705
     18          1           0        3.429451   -3.191824    0.822150
     19          1           0        4.896831   -2.566015    1.589000
     20          1           0        5.021454   -3.671541    0.210017
     21          6           0       -4.956131   -0.763453   -1.014820
     22          6           0       -4.989363    0.192582    0.005677
     23          6           0       -3.817044    0.559750    0.673063
     24          6           0       -2.623587   -0.051953    0.292580
     25          6           0       -2.558045   -1.007707   -0.720104
     26          6           0       -3.742717   -1.359496   -1.373821
     27          1           0       -5.871615   -1.042704   -1.527952
     28          1           0       -5.930283    0.657127    0.286590
     29          1           0       -3.814155    1.297028    1.466681
     30          1           0       -1.604987   -1.453392   -0.977911
     31          1           0       -3.713909   -2.102264   -2.165976
     32          7           0       -1.375966    0.328610    0.991876
     33          8           0       -0.337279   -0.224990    0.637909
     34          8           0       -1.460392    1.173290    1.880710
 ---------------------------------------------------------------------

 SCF Done:  E(RHF) =  -669.536522979     A.U. after   15 cycles
 E2 =    -0.2091718714D+01 EUMP2 =    -0.67162824169250D+03

 The electronic state is 1-A.
 Alpha  occ. eigenvalues --  -20.61117 -20.61111 -15.86134 -11.31397 -11.27953
 Alpha  occ. eigenvalues --  -11.27945 -11.27677 -11.26943 -11.26933 -11.20631
 Alpha  occ. eigenvalues --  -11.20250 -11.20158 -11.20051 -11.19982 -11.19963
 Alpha  occ. eigenvalues --   -1.60164  -1.39723  -1.19557  -1.08972  -1.07181
 Alpha  occ. eigenvalues --   -1.04944  -1.02394  -0.95823  -0.94879  -0.86347
 Alpha  occ. eigenvalues --   -0.85904  -0.82662  -0.78437  -0.77724  -0.76949
 Alpha  occ. eigenvalues --   -0.72353  -0.71471  -0.70665  -0.65216  -0.64947
 Alpha  occ. eigenvalues --   -0.63802  -0.62292  -0.59801  -0.58251  -0.56472
 Alpha  occ. eigenvalues --   -0.55450  -0.54180  -0.53278  -0.53035  -0.51619
 Alpha  occ. eigenvalues --   -0.51303  -0.49163  -0.49104  -0.48831  -0.46769
 Alpha  occ. eigenvalues --   -0.45528  -0.45099  -0.44535  -0.44232  -0.42614
 Alpha  occ. eigenvalues --   -0.37530  -0.36541
 Alpha virt. eigenvalues --    0.04774   0.11115   0.16276   0.21227   0.24065
 Alpha virt. eigenvalues --    0.25355   0.27177   0.27675   0.28152   0.28818
 Alpha virt. eigenvalues --    0.29205   0.30887   0.32376   0.32446   0.32903

 Mulliken charges:
               1
     1  C   -0.295153
     2  C   -0.308783
     3  C   -0.475111
     4  H    0.143087
     5  H    0.143653
     6  H    0.149338
     7  H    0.176465
     8  H    0.149728
     9  H    0.150334
    10  H    0.158278
    11  C   -0.306611
    12  C   -0.298214
    13  C   -0.474788
    14  H    0.146846
    15  H    0.172862
    16  H    0.148016
    17  H    0.147218
    18  H    0.155751
    19  H    0.154648
    20  H    0.155324
    21  C   -0.170342
    22  C   -0.218598
    23  C   -0.170300
    24  C    0.157595
    25  C   -0.170520
    26  C   -0.218517
    27  H    0.226422
    28  H    0.224218
    29  H    0.276161
    30  H    0.275477
    31  H    0.224211
    32  N    0.492785
    33  O   -0.464359
    34  O   -0.457120
 Sum of Mulliken charges =  -0.00000

 Dipole moment (field-independent basis, Debye):
    X=             -4.8624    Y=             -1.3820    Z=             -2.2944  Tot=              5.5513
 Quadrupole moment (field-independent basis, Debye-Ang):
   XX=            -71.4340   YY=            -94.5805   ZZ=            -95.4300
   XY=              2.2613   XZ=              4.4688   YZ=              2.9359

 Normal termination of Gaussian 16 at Thu May  6 07:33:55 2021.
