 Gaussian 16, Revision A.03,
 Gaussian 16:  EM64L-G16RevA.03 25-Dec-2016

 -------------
 #p 6-31g* mp2
 -------------

 ------------------------------------------------------
 Input file generated by CHIRIPA (05-May-2021 14:51:11)
 ------------------------------------------------------
 Symbolic Z-matrix:
 Charge =  0 Multiplicity = 1

                         Standard orientation:
 ---------------------------------------------------------------------
 Center     Atomic      Atomic             Coordinates (Angstroms)
 Number     Number       Type             X           Y           Z
 ---------------------------------------------------------------------
      1          6           0        2.706611   -0.751407    0.781807
      2          6           0        1.360223   -0.983030    1.468520
      3          6           0        1.370591   -2.199428    2.394837
      4          1           0        2.977681   -1.648440    0.208399
      5          1           0        3.483860   -0.623435    1.547902
      6          1           0        0.585510   -1.109149    0.701363
      7          1           0        1.092235   -0.085269    2.040206
      8          1           0        2.122805   -2.078517    3.181065
      9          1           0        1.613202   -3.108215    1.834615
     10          1           0        0.398273   -2.346472    2.875290
     11          6           0        2.712045    0.461071   -0.147492
     12          6           0        4.058433    0.692693   -0.834205
     13          6           0        4.048064    1.909092   -1.760521
     14          1           0        1.934796    0.333099   -0.913587
     15          1           0        2.440974    1.358104    0.425917
     16          1           0        4.326421   -0.205067   -1.405890
     17          1           0        4.833145    0.818813   -0.067047
     18          1           0        3.805454    2.817878   -1.200300
     19          1           0        3.295850    1.788181   -2.546750
     20          1           0        5.020382    2.056135   -2.240975
     21          6           0       -2.918658   -0.355748   -0.854462
     22          6           0       -2.051115   -1.614579   -0.880876
     23          6           0       -2.482272   -2.607098   -1.961062
     24          1           0       -3.966486   -0.643592   -0.692763
     25          1           0       -2.876515    0.130888   -1.838741
     26          1           0       -2.093780   -2.097944    0.103580
     27          1           0       -1.005204   -1.323691   -1.042340
     28          1           0       -2.422483   -2.147205   -2.952791
     29          1           0       -3.517244   -2.925858   -1.800359
     30          1           0       -1.848711   -3.499545   -1.962199
     31          6           0       -2.499997    0.646085    0.220147
     32          6           0       -3.367541    1.904915    0.246560
     33          6           0       -2.936384    2.897434    1.326748
     34          1           0       -2.542140    0.159448    1.204425
     35          1           0       -1.452169    0.933928    0.058447
     36          1           0       -4.413451    1.614027    0.408024
     37          1           0       -3.324875    2.388281   -0.737896
     38          1           0       -1.901412    3.216194    1.166043
     39          1           0       -2.996172    2.437541    2.318475
     40          1           0       -3.569944    3.789881    1.327883
 ---------------------------------------------------------------------

 SCF Done:  E(RHF) =  -470.733086768     A.U. after   11 cycles
 E2 =    -0.1583642800D+01 EUMP2 =    -0.47231672956899D+03

 The electronic state is 1-A.
 Alpha  occ. eigenvalues --  -11.21654 -11.21618 -11.21595 -11.21465 -11.21415
 Alpha  occ. eigenvalues --  -11.21413 -11.21339 -11.21327 -11.21117 -11.21092
 Alpha  occ. eigenvalues --  -11.21065 -11.21019  -1.08465  -1.08397  -1.03562
 Alpha  occ. eigenvalues --   -1.03493  -0.95995  -0.95962  -0.87015  -0.86976
 Alpha  occ. eigenvalues --   -0.79686  -0.79527  -0.78405  -0.78071  -0.65146
 Alpha  occ. eigenvalues --   -0.64985  -0.60998  -0.60867  -0.59403  -0.59290
 Alpha  occ. eigenvalues --   -0.57607  -0.57569  -0.55280  -0.55253  -0.52709
 Alpha  occ. eigenvalues --   -0.52643  -0.52423  -0.52385  -0.49962  -0.49891
 Alpha  occ. eigenvalues --   -0.48096  -0.47834  -0.46793  -0.46533  -0.46153
 Alpha  occ. eigenvalues --   -0.45734  -0.45715  -0.45137  -0.43801  -0.43755
 Alpha virt. eigenvalues --    0.20897   0.23347   0.23783   0.24364   0.24702
 Alpha virt. eigenvalues --    0.26426   0.26809   0.27920   0.28347   0.29978
 Alpha virt. eigenvalues --    0.30725   0.31428   0.31759   0.31851   0.32063

 Mulliken charges:
               1
     1  C   -0.297842
     2  C   -0.309710
     3  C   -0.475128
     4  H    0.149159
     5  H    0.149333
     6  H    0.163888
     7  H    0.151762
     8  H    0.154775
     9  H    0.154684
    10  H    0.159578
    11  C   -0.299001
    12  C   -0.299565
    13  C   -0.475717
    14  H    0.148370
    15  H    0.149642
    16  H    0.152035
    17  H    0.152268
    18  H    0.155149
    19  H    0.154890
    20  H    0.160396
    21  C   -0.298109
    22  C   -0.304409
    23  C   -0.475044
    24  H    0.149723
    25  H    0.149301
    26  H    0.152973
    27  H    0.154897
    28  H    0.155129
    29  H    0.155498
    30  H    0.160205
    31  C   -0.300208
    32  C   -0.299689
    33  C   -0.475655
    34  H    0.149676
    35  H    0.152521
    36  H    0.151807
    37  H    0.151853
    38  H    0.155282
    39  H    0.155094
    40  H    0.160186
 Sum of Mulliken charges =  -0.00000

 Dipole moment (field-independent basis, Debye):
    X=             -0.0288    Y=             -0.0024    Z=             -0.0108  Tot=              0.0309
 Quadrupole moment (field-independent basis, Debye-Ang):
   XX=            -84.3807   YY=            -85.6383   ZZ=            -84.8285
   XY=              0.2354   XZ=             -0.2569   YZ=              0.2016

 Normal termination of Gaussian 16 at Thu May  6 07:01:10 2021.
