 Gaussian 16, Revision A.03,
 Gaussian 16:  EM64L-G16RevA.03 25-Dec-2016

 -------------
 #p 6-31g* mp2
 -------------

 ------------------------------------------------------
 Input file generated by CHIRIPA (05-May-2021 14:51:13)
 ------------------------------------------------------
 Symbolic Z-matrix:
 Charge =  0 Multiplicity = 1

                         Standard orientation:
 ---------------------------------------------------------------------
 Center     Atomic      Atomic             Coordinates (Angstroms)
 Number     Number       Type             X           Y           Z
 ---------------------------------------------------------------------
      1          6           0       -2.377667   -1.454774   -0.327460
      2          6           0       -0.858011   -1.397257   -0.486583
      3          6           0       -0.267269   -2.710681   -1.000135
      4          1           0       -2.637170   -2.269640    0.362174
      5          1           0       -2.831394   -1.708223   -1.295598
      6          1           0       -0.407371   -1.142632    0.481253
      7          1           0       -0.602085   -0.582310   -1.175770
      8          1           0       -0.689465   -2.967001   -1.977197
      9          1           0       -0.493645   -3.530508   -0.310760
     10          1           0        0.820175   -2.647343   -1.106501
     11          6           0       -2.982963   -0.149181    0.185153
     12          6           0       -4.502620   -0.206698    0.344276
     13          6           0       -5.093362    1.106726    0.857828
     14          1           0       -2.529236    0.104268    1.153291
     15          1           0       -2.723460    0.665686   -0.504481
     16          1           0       -4.758545   -1.021645    1.033463
     17          1           0       -4.953259   -0.461322   -0.623559
     18          1           0       -4.866985    1.926553    0.168453
     19          1           0       -4.671165    1.363046    1.834890
     20          1           0       -6.180806    1.043388    0.964194
     21          6           0        2.394875    1.489635    0.241691
     22          6           0        1.532556    2.081799   -0.873537
     23          6           0        0.968688    3.457687   -0.517479
     24          1           0        1.795826    1.415631    1.159628
     25          1           0        3.221082    2.179606    0.462413
     26          1           0        0.709014    1.390271   -1.093044
     27          1           0        2.133673    2.154224   -1.788977
     28          1           0        1.779074    4.166445   -0.318637
     29          1           0        0.346321    3.398152    0.381251
     30          1           0        0.355423    3.862408   -1.328629
     31          6           0        2.965755    0.114320   -0.099384
     32          6           0        3.828074   -0.477844    1.015844
     33          6           0        4.391941   -1.853732    0.659785
     34          1           0        2.139548   -0.575650   -0.320105
     35          1           0        3.564805    0.188323   -1.017321
     36          1           0        3.226958   -0.550269    1.931284
     37          1           0        4.651616    0.213684    1.235350
     38          1           0        5.014309   -1.794197   -0.238944
     39          1           0        3.581556   -2.562490    0.460943
     40          1           0        5.005207   -2.258453    1.470937
 ---------------------------------------------------------------------

 SCF Done:  E(RHF) =  -470.732721360     A.U. after   11 cycles
 E2 =    -0.1584504398D+01 EUMP2 =    -0.47231722575725D+03

 The electronic state is 1-A.
 Alpha  occ. eigenvalues --  -11.21701 -11.21648 -11.21572 -11.21514 -11.21478
 Alpha  occ. eigenvalues --  -11.21418 -11.21340 -11.21273 -11.21161 -11.21103
 Alpha  occ. eigenvalues --  -11.21062 -11.21026  -1.08522  -1.08368  -1.03610
 Alpha  occ. eigenvalues --   -1.03488  -0.96057  -0.95933  -0.87070  -0.86952
 Alpha  occ. eigenvalues --   -0.79714  -0.79536  -0.78415  -0.78109  -0.65145
 Alpha  occ. eigenvalues --   -0.65033  -0.61077  -0.60825  -0.59432  -0.59307
 Alpha  occ. eigenvalues --   -0.57719  -0.57513  -0.55333  -0.55216  -0.52759
 Alpha  occ. eigenvalues --   -0.52630  -0.52514  -0.52338  -0.50022  -0.49859
 Alpha  occ. eigenvalues --   -0.48143  -0.47795  -0.46875  -0.46459  -0.46075
 Alpha  occ. eigenvalues --   -0.45773  -0.45711  -0.45260  -0.43857  -0.43734
 Alpha virt. eigenvalues --    0.20398   0.22670   0.23471   0.24194   0.25760
 Alpha virt. eigenvalues --    0.26254   0.27094   0.27438   0.27946   0.29647
 Alpha virt. eigenvalues --    0.30274   0.31314   0.31814   0.31924   0.32512

 Mulliken charges:
               1
     1  C   -0.297766
     2  C   -0.307129
     3  C   -0.480251
     4  H    0.149953
     5  H    0.149846
     6  H    0.151866
     7  H    0.158585
     8  H    0.156084
     9  H    0.155702
    10  H    0.163544
    11  C   -0.298781
    12  C   -0.299679
    13  C   -0.475780
    14  H    0.149216
    15  H    0.149904
    16  H    0.152100
    17  H    0.152109
    18  H    0.155468
    19  H    0.155183
    20  H    0.160436
    21  C   -0.296860
    22  C   -0.307125
    23  C   -0.475278
    24  H    0.149088
    25  H    0.149259
    26  H    0.159252
    27  H    0.151184
    28  H    0.154955
    29  H    0.155430
    30  H    0.159462
    31  C   -0.309082
    32  C   -0.299066
    33  C   -0.476952
    34  H    0.161743
    35  H    0.148952
    36  H    0.151328
    37  H    0.151906
    38  H    0.155184
    39  H    0.155707
    40  H    0.160302
 Sum of Mulliken charges =  -0.00000

 Dipole moment (field-independent basis, Debye):
    X=             -0.0531    Y=             -0.0315    Z=             -0.0142  Tot=              0.0633
 Quadrupole moment (field-independent basis, Debye-Ang):
   XX=            -84.7149   YY=            -86.3286   ZZ=            -83.8202
   XY=              1.2892   XZ=              0.0445   YZ=             -0.8895

 Normal termination of Gaussian 16 at Thu May  6 05:34:50 2021.
