 Gaussian 16, Revision A.03,
 Gaussian 16:  EM64L-G16RevA.03 25-Dec-2016

 -------------
 #p 6-31g* mp2
 -------------

 ------------------------------------------------------
 Input file generated by CHIRIPA (05-May-2021 14:57:24)
 ------------------------------------------------------
 Symbolic Z-matrix:
 Charge =  0 Multiplicity = 1

                         Standard orientation:
 ---------------------------------------------------------------------
 Center     Atomic      Atomic             Coordinates (Angstroms)
 Number     Number       Type             X           Y           Z
 ---------------------------------------------------------------------
      1          6           0        1.372459   -1.324614    1.277302
      2          6           0        1.450117   -1.273064   -0.118346
      3          6           0        2.538238   -0.660164   -0.746753
      4          6           0        3.535336   -0.106495    0.054829
      5          6           0        3.486562   -0.141855    1.447547
      6          6           0        2.389137   -0.759841    2.054424
      7          1           0        0.523567   -1.802705    1.757101
      8          1           0        0.662017   -1.710840   -0.724395
      9          1           0        2.623593   -0.606138   -1.825277
     10          1           0        4.287619    0.303340    2.025064
     11          1           0        2.331471   -0.798395    3.138505
     12          7           0        4.692206    0.545046   -0.599041
     13          8           0        5.557615    1.025401    0.129631
     14          8           0        4.711645    0.563033   -1.827835
     15          6           0       -3.173384    2.702356    0.216952
     16          6           0       -4.348574    2.022262    0.552985
     17          6           0       -4.454656    0.643535    0.347057
     18          6           0       -3.361230   -0.026700   -0.199288
     19          6           0       -2.176968    0.622717   -0.544357
     20          6           0       -2.093235    2.001649   -0.329683
     21          1           0       -3.099657    3.773464    0.380319
     22          1           0       -5.189027    2.563860    0.977668
     23          1           0       -5.352637    0.092165    0.598138
     24          1           0       -1.355974    0.055637   -0.966027
     25          1           0       -1.179327    2.527212   -0.591600
     26          7           0       -3.461704   -1.486405   -0.421925
     27          8           0       -2.484201   -2.053928   -0.904671
     28          8           0       -4.516056   -2.035358   -0.109467
 ---------------------------------------------------------------------

 SCF Done:  E(RHF) =  -868.339596484     A.U. after   16 cycles
 E2 =    -0.2599722268D+01 EUMP2 =    -0.87093931875265D+03

 The electronic state is 1-A.
 Alpha  occ. eigenvalues --  -20.61704 -20.61647 -20.60870 -20.60864 -15.86711
 Alpha  occ. eigenvalues --  -15.85921 -11.31851 -11.31248 -11.28399 -11.28367
 Alpha  occ. eigenvalues --  -11.28049 -11.27824 -11.27797 -11.27459 -11.27332
 Alpha  occ. eigenvalues --  -11.27314 -11.26792 -11.26666  -1.60739  -1.59948
 Alpha  occ. eigenvalues --   -1.40305  -1.39502  -1.19994  -1.19408  -1.09423
 Alpha  occ. eigenvalues --   -1.08786  -1.05357  -1.04796  -0.96299  -0.95632
 Alpha  occ. eigenvalues --   -0.86771  -0.86168  -0.83138  -0.82463  -0.78234
 Alpha  occ. eigenvalues --   -0.77524  -0.72936  -0.72135  -0.72054  -0.71277
 Alpha  occ. eigenvalues --   -0.71095  -0.70457  -0.65645  -0.65372  -0.65036
 Alpha  occ. eigenvalues --   -0.64723  -0.62733  -0.62089  -0.55851  -0.55222
 Alpha  occ. eigenvalues --   -0.53709  -0.53483  -0.53109  -0.52817  -0.49704
 Alpha  occ. eigenvalues --   -0.49650  -0.48897  -0.48886  -0.45754  -0.44916
 Alpha  occ. eigenvalues --   -0.37958  -0.37394  -0.36930  -0.36411
 Alpha virt. eigenvalues --    0.04277   0.04983   0.10610   0.11216   0.15829
 Alpha virt. eigenvalues --    0.16415   0.20396   0.21784   0.25804   0.27199
 Alpha virt. eigenvalues --    0.28377   0.28604   0.30256   0.31103   0.32063

 Mulliken charges:
               1
     1  C   -0.172318
     2  C   -0.234803
     3  C   -0.175112
     4  C    0.157975
     5  C   -0.171673
     6  C   -0.219338
     7  H    0.232115
     8  H    0.242952
     9  H    0.275657
    10  H    0.275163
    11  H    0.223609
    12  N    0.487924
    13  O   -0.460742
    14  O   -0.460770
    15  C   -0.170217
    16  C   -0.218610
    17  C   -0.170696
    18  C    0.156510
    19  C   -0.171914
    20  C   -0.219671
    21  H    0.228673
    22  H    0.225594
    23  H    0.276471
    24  H    0.272105
    25  H    0.228291
    26  N    0.489860
    27  O   -0.471721
    28  O   -0.455313
 Sum of Mulliken charges =  -0.00000

 Dipole moment (field-independent basis, Debye):
    X=             -3.9346    Y=              2.9034    Z=              3.1718  Tot=              5.8284
 Quadrupole moment (field-independent basis, Debye-Ang):
   XX=           -131.3029   YY=           -105.2291   ZZ=           -101.0281
   XY=            -25.1495   XZ=              5.1667   YZ=             -0.3883

 Normal termination of Gaussian 16 at Thu May  6 09:49:12 2021.
