 Gaussian 16, Revision A.03,
 Gaussian 16:  EM64L-G16RevA.03 25-Dec-2016

 -------------
 #p 6-31g* mp2
 -------------

 ------------------------------------------------------
 Input file generated by CHIRIPA (05-May-2021 14:51:11)
 ------------------------------------------------------
 Symbolic Z-matrix:
 Charge =  0 Multiplicity = 1

                         Standard orientation:
 ---------------------------------------------------------------------
 Center     Atomic      Atomic             Coordinates (Angstroms)
 Number     Number       Type             X           Y           Z
 ---------------------------------------------------------------------
      1          6           0        3.632908    0.386979    0.221510
      2          6           0        2.936121    1.738259    0.058675
      3          6           0        1.499732    1.729643    0.582609
      4          1           0        3.053379   -0.383127   -0.305773
      5          1           0        3.630865    0.106918    1.284034
      6          1           0        2.940703    2.016339   -1.003053
      7          1           0        3.517479    2.505271    0.586247
      8          1           0        1.479668    1.476983    1.647673
      9          1           0        0.899615    0.985273    0.049343
     10          1           0        1.020475    2.705465    0.456336
     11          6           0        5.069618    0.379745   -0.297663
     12          6           0        5.766404   -0.971536   -0.134828
     13          6           0        7.202793   -0.962919   -0.658762
     14          1           0        5.071661    0.659805   -1.360187
     15          1           0        5.649147    1.149850    0.229621
     16          1           0        5.185046   -1.738547   -0.662400
     17          1           0        5.761822   -1.249615    0.926900
     18          1           0        7.802911   -0.218549   -0.125495
     19          1           0        7.222858   -0.710259   -1.723825
     20          1           0        7.682051   -1.938741   -0.532489
     21          6           0       -5.045344   -0.135700    0.238942
     22          6           0       -5.990215    0.049729   -0.948838
     23          6           0       -7.374874    0.545588   -0.530938
     24          1           0       -5.492429   -0.846322    0.947514
     25          1           0       -4.947890    0.819316    0.773585
     26          1           0       -6.084771   -0.905011   -1.481892
     27          1           0       -5.540742    0.759846   -1.654757
     28          1           0       -7.300141    1.509988   -0.018151
     29          1           0       -7.847260   -0.164329    0.155697
     30          1           0       -8.034118    0.671242   -1.395501
     31          6           0       -3.657182   -0.631024   -0.162789
     32          6           0       -2.712310   -0.816453    1.024990
     33          6           0       -1.327652   -1.312312    0.607090
     34          1           0       -3.754635   -1.586040   -0.697432
     35          1           0       -3.210097    0.079598   -0.871362
     36          1           0       -3.161784   -1.526570    1.730910
     37          1           0       -2.617754    0.138287    1.558045
     38          1           0       -0.855264   -0.602395   -0.079544
     39          1           0       -1.402385   -2.276711    0.094304
     40          1           0       -0.668408   -1.437965    1.471654
 ---------------------------------------------------------------------

 SCF Done:  E(RHF) =  -470.733153531     A.U. after   11 cycles
 E2 =    -0.1582339037D+01 EUMP2 =    -0.47231549256814D+03

 The electronic state is 1-A.
 Alpha  occ. eigenvalues --  -11.21589 -11.21581 -11.21577 -11.21567 -11.21385
 Alpha  occ. eigenvalues --  -11.21379 -11.21326 -11.21319 -11.21060 -11.21056
 Alpha  occ. eigenvalues --  -11.21026 -11.21020  -1.08413  -1.08401  -1.03527
 Alpha  occ. eigenvalues --   -1.03487  -0.95998  -0.95918  -0.87035  -0.86917
 Alpha  occ. eigenvalues --   -0.79627  -0.79516  -0.78234  -0.78205  -0.65070
 Alpha  occ. eigenvalues --   -0.65011  -0.61020  -0.60812  -0.59343  -0.59304
 Alpha  occ. eigenvalues --   -0.57597  -0.57549  -0.55439  -0.55081  -0.52677
 Alpha  occ. eigenvalues --   -0.52651  -0.52445  -0.52299  -0.50102  -0.49704
 Alpha  occ. eigenvalues --   -0.47954  -0.47812  -0.46719  -0.46462  -0.45805
 Alpha  occ. eigenvalues --   -0.45727  -0.45700  -0.45617  -0.43768  -0.43754
 Alpha virt. eigenvalues --    0.22038   0.23007   0.23576   0.24825   0.26022
 Alpha virt. eigenvalues --    0.26766   0.27126   0.27564   0.27751   0.29177
 Alpha virt. eigenvalues --    0.29963   0.31530   0.31896   0.31931   0.32125

 Mulliken charges:
               1
     1  C   -0.298330
     2  C   -0.299378
     3  C   -0.480824
     4  H    0.150198
     5  H    0.149411
     6  H    0.151566
     7  H    0.151713
     8  H    0.155120
     9  H    0.161151
    10  H    0.159373
    11  C   -0.298285
    12  C   -0.299653
    13  C   -0.475692
    14  H    0.149427
    15  H    0.149544
    16  H    0.152090
    17  H    0.151888
    18  H    0.155114
    19  H    0.155143
    20  H    0.160208
    21  C   -0.298308
    22  C   -0.299644
    23  C   -0.475697
    24  H    0.149600
    25  H    0.149653
    26  H    0.151850
    27  H    0.151917
    28  H    0.155201
    29  H    0.155157
    30  H    0.160190
    31  C   -0.298444
    32  C   -0.299705
    33  C   -0.479052
    34  H    0.149330
    35  H    0.149650
    36  H    0.151757
    37  H    0.152735
    38  H    0.158462
    39  H    0.154579
    40  H    0.160984
 Sum of Mulliken charges =  -0.00000

 Dipole moment (field-independent basis, Debye):
    X=             -0.0062    Y=             -0.0076    Z=              0.0061  Tot=              0.0115
 Quadrupole moment (field-independent basis, Debye-Ang):
   XX=            -86.8936   YY=            -83.9759   ZZ=            -84.0459
   XY=              0.8892   XZ=              0.7721   YZ=              0.0599

 Normal termination of Gaussian 16 at Thu May  6 02:17:06 2021.
