 Gaussian 16, Revision A.03,
 Gaussian 16:  EM64L-G16RevA.03 25-Dec-2016

 -------------
 #p 6-31g* mp2
 -------------

 ------------------------------------------------------
 Input file generated by CHIRIPA (05-May-2021 14:57:22)
 ------------------------------------------------------
 Symbolic Z-matrix:
 Charge =  0 Multiplicity = 1

                         Standard orientation:
 ---------------------------------------------------------------------
 Center     Atomic      Atomic             Coordinates (Angstroms)
 Number     Number       Type             X           Y           Z
 ---------------------------------------------------------------------
      1          6           0        1.921750   -2.515237   -0.222761
      2          6           0        3.299962   -2.423667   -0.443371
      3          6           0        3.952639   -1.190424   -0.355783
      4          6           0        3.192842   -0.063966   -0.044189
      5          6           0        1.818401   -0.122836    0.181056
      6          6           0        1.186664   -1.366554    0.088201
      7          1           0        1.422869   -3.477319   -0.292847
      8          1           0        3.873375   -3.314085   -0.685032
      9          1           0        5.018462   -1.090977   -0.521768
     10          1           0        1.273510    0.782322    0.420225
     11          1           0        0.116207   -1.434675    0.260033
     12          7           0        3.872718    1.247158    0.051325
     13          8           0        3.180780    2.224755    0.327301
     14          8           0        5.084668    1.272393   -0.151596
     15          6           0       -2.305394    2.676057   -0.094536
     16          6           0       -1.715585    1.807651    0.829866
     17          6           0       -2.137245    0.478045    0.924189
     18          6           0       -3.155753    0.048419    0.074863
     19          6           0       -3.763065    0.889404   -0.856376
     20          6           0       -3.325453    2.214974   -0.933228
     21          1           0       -1.971643    3.707360   -0.161023
     22          1           0       -0.923191    2.162982    1.482473
     23          1           0       -1.697992   -0.215624    1.630799
     24          1           0       -4.550821    0.506188   -1.493561
     25          1           0       -3.785326    2.887149   -1.652077
     26          7           0       -3.610588   -1.357039    0.165471
     27          8           0       -4.509704   -1.711053   -0.594069
     28          8           0       -3.059361   -2.078013    0.994316
 ---------------------------------------------------------------------

 SCF Done:  E(RHF) =  -868.339131489     A.U. after   16 cycles
 E2 =    -0.2601095720D+01 EUMP2 =    -0.87094022720882D+03

 The electronic state is 1-A.
 Alpha  occ. eigenvalues --  -20.61661 -20.61619 -20.61036 -20.61005 -15.86671
 Alpha  occ. eigenvalues --  -15.86069 -11.31950 -11.31278 -11.28553 -11.28444
 Alpha  occ. eigenvalues --  -11.28099 -11.27844 -11.27807 -11.27457 -11.27439
 Alpha  occ. eigenvalues --  -11.27390 -11.26766 -11.26709  -1.60706  -1.60096
 Alpha  occ. eigenvalues --   -1.40265  -1.39658  -1.20096  -1.19417  -1.09474
 Alpha  occ. eigenvalues --   -1.08819  -1.05497  -1.04796  -0.96334  -0.95691
 Alpha  occ. eigenvalues --   -0.86878  -0.86184  -0.83176  -0.82540  -0.78286
 Alpha  occ. eigenvalues --   -0.77610  -0.72882  -0.72295  -0.72028  -0.71414
 Alpha  occ. eigenvalues --   -0.71145  -0.70496  -0.65732  -0.65507  -0.65060
 Alpha  occ. eigenvalues --   -0.64723  -0.62933  -0.62068  -0.55892  -0.55245
 Alpha  occ. eigenvalues --   -0.53779  -0.53607  -0.53129  -0.52805  -0.49660
 Alpha  occ. eigenvalues --   -0.49628  -0.49063  -0.49024  -0.45678  -0.45099
 Alpha  occ. eigenvalues --   -0.38004  -0.37353  -0.37091  -0.36404
 Alpha virt. eigenvalues --    0.04219   0.04901   0.10383   0.11251   0.15668
 Alpha virt. eigenvalues --    0.16422   0.19860   0.22174   0.25528   0.26727
 Alpha virt. eigenvalues --    0.28223   0.29194   0.29879   0.31271   0.32188

 Mulliken charges:
               1
     1  C   -0.171068
     2  C   -0.218715
     3  C   -0.170793
     4  C    0.158866
     5  C   -0.175613
     6  C   -0.226284
     7  H    0.232350
     8  H    0.224498
     9  H    0.275334
    10  H    0.268726
    11  H    0.231794
    12  N    0.488434
    13  O   -0.466520
    14  O   -0.458823
    15  C   -0.169213
    16  C   -0.224224
    17  C   -0.182188
    18  C    0.159948
    19  C   -0.169730
    20  C   -0.217487
    21  H    0.233664
    22  H    0.231450
    23  H    0.273410
    24  H    0.277688
    25  H    0.227596
    26  N    0.488442
    27  O   -0.455265
    28  O   -0.466276
 Sum of Mulliken charges =  -0.00000

 Dipole moment (field-independent basis, Debye):
    X=             -1.0635    Y=              0.4029    Z=             -0.8025  Tot=              1.3919
 Quadrupole moment (field-independent basis, Debye-Ang):
   XX=           -123.9780   YY=           -102.7542   ZZ=           -103.1360
   XY=            -34.0652   XZ=              2.0921   YZ=              0.4484

 Normal termination of Gaussian 16 at Fri May  7 04:52:41 2021.
