 Gaussian 16, Revision A.03,
 Gaussian 16:  EM64L-G16RevA.03 25-Dec-2016

 -------------
 #p 6-31g* mp2
 -------------

 ------------------------------------------------------
 Input file generated by CHIRIPA (05-May-2021 14:55:23)
 ------------------------------------------------------
 Symbolic Z-matrix:
 Charge =  0 Multiplicity = 1

                         Standard orientation:
 ---------------------------------------------------------------------
 Center     Atomic      Atomic             Coordinates (Angstroms)
 Number     Number       Type             X           Y           Z
 ---------------------------------------------------------------------
      1          6           0        1.337973   -1.083961    2.425673
      2          6           0        1.374878    0.275102    2.096877
      3          6           0        1.781924    0.686942    0.824379
      4          6           0        2.146911   -0.291546   -0.099002
      5          6           0        2.120731   -1.653212    0.198438
      6          6           0        1.710361   -2.042091    1.477077
      7          1           0        1.020479   -1.394970    3.416565
      8          1           0        1.086235    1.021407    2.831559
      9          1           0        1.819839    1.732379    0.543235
     10          1           0        2.414344   -2.373894   -0.555105
     11          1           0        1.682679   -3.098260    1.729637
     12          7           0        2.579592    0.132296   -1.449389
     13          8           0        2.896183   -0.749402   -2.245012
     14          8           0        2.593944    1.338177   -1.686630
     15          6           0       -2.244897    1.065569   -0.382240
     16          6           0       -1.936873    2.044524    0.751231
     17          6           0       -1.112240    3.245573    0.287274
     18          1           0       -1.301184    0.716002   -0.822866
     19          1           0       -2.784321    1.596072   -1.179099
     20          1           0       -1.399407    1.512009    1.546324
     21          1           0       -2.881427    2.391654    1.189335
     22          1           0       -1.645726    3.801960   -0.490176
     23          1           0       -0.155286    2.917317   -0.131158
     24          1           0       -0.903528    3.932475    1.113388
     25          6           0       -3.068639   -0.140383    0.065932
     26          6           0       -3.376663   -1.119338   -1.067538
     27          6           0       -4.201296   -2.320387   -0.603581
     28          1           0       -2.529215   -0.670885    0.862791
     29          1           0       -4.012354    0.209184    0.506558
     30          1           0       -2.432109   -1.466468   -1.505643
     31          1           0       -3.914129   -0.586823   -1.862631
     32          1           0       -5.158251   -1.992131   -0.185149
     33          1           0       -3.667811   -2.876774    0.173867
     34          1           0       -4.410010   -3.007289   -1.429695
 ---------------------------------------------------------------------

 SCF Done:  E(RHF) =  -669.535257829     A.U. after   15 cycles
 E2 =    -0.2093894417D+01 EUMP2 =    -0.67162915224589D+03

 The electronic state is 1-A.
 Alpha  occ. eigenvalues --  -20.60881 -20.60876 -15.85930 -11.31315 -11.27877
 Alpha  occ. eigenvalues --  -11.27866 -11.27624 -11.26896 -11.26886 -11.21817
 Alpha  occ. eigenvalues --  -11.21668 -11.21509 -11.21428 -11.21297 -11.21206
 Alpha  occ. eigenvalues --   -1.59952  -1.39505  -1.19492  -1.08880  -1.08555
 Alpha  occ. eigenvalues --   -1.04898  -1.03688  -0.96143  -0.95707  -0.87158
 Alpha  occ. eigenvalues --   -0.86288  -0.82538  -0.79750  -0.78358  -0.77590
 Alpha  occ. eigenvalues --   -0.72145  -0.71277  -0.70599  -0.65231  -0.65119
 Alpha  occ. eigenvalues --   -0.64896  -0.62317  -0.61038  -0.59509  -0.57746
 Alpha  occ. eigenvalues --   -0.55535  -0.55278  -0.53202  -0.53007  -0.52845
 Alpha  occ. eigenvalues --   -0.52534  -0.50056  -0.48907  -0.48902  -0.48061
 Alpha  occ. eigenvalues --   -0.46781  -0.45899  -0.45831  -0.44893  -0.43930
 Alpha  occ. eigenvalues --   -0.37453  -0.36444
 Alpha virt. eigenvalues --    0.04913   0.11030   0.16349   0.20531   0.22861
 Alpha virt. eigenvalues --    0.24053   0.26127   0.26523   0.26927   0.28084
 Alpha virt. eigenvalues --    0.29160   0.29777   0.31419   0.31579   0.31971

 Mulliken charges:
               1
     1  C   -0.172040
     2  C   -0.218689
     3  C   -0.171220
     4  C    0.157755
     5  C   -0.171097
     6  C   -0.218469
     7  H    0.226447
     8  H    0.225328
     9  H    0.280109
    10  H    0.276080
    11  H    0.224073
    12  N    0.488143
    13  O   -0.459665
    14  O   -0.460967
    15  C   -0.298021
    16  C   -0.301972
    17  C   -0.482697
    18  H    0.152333
    19  H    0.151985
    20  H    0.146448
    21  H    0.151774
    22  H    0.161218
    23  H    0.159455
    24  H    0.155793
    25  C   -0.298172
    26  C   -0.300034
    27  C   -0.475439
    28  H    0.146799
    29  H    0.148648
    30  H    0.153843
    31  H    0.153746
    32  H    0.154977
    33  H    0.152167
    34  H    0.161361
 Sum of Mulliken charges =  -0.00000

 Dipole moment (field-independent basis, Debye):
    X=             -1.4692    Y=             -1.5215    Z=              4.6760  Tot=              5.1321
 Quadrupole moment (field-independent basis, Debye-Ang):
   XX=           -101.6376   YY=            -89.9932   ZZ=            -95.9158
   XY=             -4.6302   XZ=             10.7999   YZ=             -0.0208

 Normal termination of Gaussian 16 at Thu May  6 07:54:38 2021.
