 Gaussian 16, Revision A.03,
 Gaussian 16:  EM64L-G16RevA.03 25-Dec-2016

 -------------
 #p 6-31g* mp2
 -------------

 ------------------------------------------------------
 Input file generated by CHIRIPA (05-May-2021 14:53:15)
 ------------------------------------------------------
 Symbolic Z-matrix:
 Charge =  0 Multiplicity = 1

                         Standard orientation:
 ---------------------------------------------------------------------
 Center     Atomic      Atomic             Coordinates (Angstroms)
 Number     Number       Type             X           Y           Z
 ---------------------------------------------------------------------
      1          6           0       -4.154730   -0.242152    0.767977
      2          6           0       -2.834132    0.484960    0.512408
      3          6           0       -1.773479    0.172936    1.568557
      4          1           0       -4.532186    0.034968    1.761796
      5          1           0       -3.969883   -1.324981    0.794596
      6          1           0       -3.021643    1.566024    0.484902
      7          1           0       -2.459873    0.206225   -0.480997
      8          1           0       -1.557378   -0.900070    1.592235
      9          1           0       -2.122340    0.467456    2.563622
     10          1           0       -0.837567    0.703121    1.366489
     11          6           0       -5.225046    0.059668   -0.279427
     12          6           0       -6.545644   -0.667444   -0.023857
     13          6           0       -7.606296   -0.355420   -1.080006
     14          1           0       -5.409893    1.142497   -0.306045
     15          1           0       -4.847590   -0.217452   -1.273246
     16          1           0       -6.919903   -0.388709    0.969547
     17          1           0       -6.358133   -1.748508    0.003648
     18          1           0       -7.257436   -0.649939   -2.075072
     19          1           0       -7.822397    0.717586   -1.103684
     20          1           0       -8.542209   -0.885604   -0.877938
     21          6           0        5.429854   -1.719835    0.007887
     22          6           0        4.094860   -2.074411   -0.212536
     23          6           0        3.108038   -1.090417   -0.324285
     24          6           0        3.493256    0.244441   -0.210052
     25          6           0        4.814928    0.629463    0.009567
     26          6           0        5.785001   -0.371407    0.118041
     27          1           0        6.189935   -2.490780    0.093425
     28          1           0        3.816145   -3.120821   -0.298497
     29          1           0        2.067104   -1.336905   -0.494924
     30          1           0        5.062187    1.680970    0.090888
     31          1           0        6.820998   -0.093102    0.289225
     32          7           0        2.457418    1.295084   -0.326622
     33          8           0        2.822612    2.464009   -0.222293
     34          8           0        1.299949    0.929759   -0.520112
 ---------------------------------------------------------------------

 SCF Done:  E(RHF) =  -669.536182068     A.U. after   15 cycles
 E2 =    -0.2090749214D+01 EUMP2 =    -0.67162693128190D+03

 The electronic state is 1-A.
 Alpha  occ. eigenvalues --  -20.60944 -20.60938 -15.85971 -11.31280 -11.27844
 Alpha  occ. eigenvalues --  -11.27839 -11.27583 -11.26850 -11.26840 -11.21134
 Alpha  occ. eigenvalues --  -11.20776 -11.20674 -11.20643 -11.20547 -11.19889
 Alpha  occ. eigenvalues --   -1.60003  -1.39559  -1.19450  -1.08857  -1.07729
 Alpha  occ. eigenvalues --   -1.04844  -1.02769  -0.95702  -0.95226  -0.86260
 Alpha  occ. eigenvalues --   -0.86242  -0.82534  -0.78861  -0.77588  -0.77514
 Alpha  occ. eigenvalues --   -0.72198  -0.71316  -0.70559  -0.65106  -0.64848
 Alpha  occ. eigenvalues --   -0.64372  -0.62192  -0.60183  -0.58603  -0.56793
 Alpha  occ. eigenvalues --   -0.55351  -0.54549  -0.53178  -0.52937  -0.51887
 Alpha  occ. eigenvalues --   -0.51656  -0.49220  -0.48956  -0.48942  -0.47166
 Alpha  occ. eigenvalues --   -0.45920  -0.45073  -0.44989  -0.44942  -0.42993
 Alpha  occ. eigenvalues --   -0.37428  -0.36445
 Alpha virt. eigenvalues --    0.04908   0.11210   0.16381   0.21307   0.23500
 Alpha virt. eigenvalues --    0.25023   0.27199   0.27336   0.28040   0.28183
 Alpha virt. eigenvalues --    0.28944   0.30942   0.32023   0.32449   0.32511

 Mulliken charges:
               1
     1  C   -0.297620
     2  C   -0.297235
     3  C   -0.483063
     4  H    0.147385
     5  H    0.145510
     6  H    0.153069
     7  H    0.155604
     8  H    0.144725
     9  H    0.148302
    10  H    0.182772
    11  C   -0.297661
    12  C   -0.298939
    13  C   -0.475295
    14  H    0.149857
    15  H    0.149128
    16  H    0.151071
    17  H    0.150112
    18  H    0.154578
    19  H    0.155219
    20  H    0.158441
    21  C   -0.170553
    22  C   -0.218561
    23  C   -0.170552
    24  C    0.158099
    25  C   -0.170740
    26  C   -0.218596
    27  H    0.225959
    28  H    0.223815
    29  H    0.276113
    30  H    0.275792
    31  H    0.223764
    32  N    0.489042
    33  O   -0.458864
    34  O   -0.460677
 Sum of Mulliken charges =  -0.00000

 Dipole moment (field-independent basis, Debye):
    X=              3.9458    Y=             -3.6010    Z=              0.3351  Tot=              5.3524
 Quadrupole moment (field-independent basis, Debye-Ang):
   XX=            -68.6271   YY=            -93.7549   ZZ=            -96.1647
   XY=             -9.8772   XZ=              0.7015   YZ=              2.0719

 Normal termination of Gaussian 16 at Wed May  5 18:40:24 2021.
