 Gaussian 16, Revision A.03,
 Gaussian 16:  EM64L-G16RevA.03 25-Dec-2016

 -------------
 #p 6-31g* mp2
 -------------

 ------------------------------------------------------
 Input file generated by CHIRIPA (05-May-2021 14:53:14)
 ------------------------------------------------------
 Symbolic Z-matrix:
 Charge =  0 Multiplicity = 1

                         Standard orientation:
 ---------------------------------------------------------------------
 Center     Atomic      Atomic             Coordinates (Angstroms)
 Number     Number       Type             X           Y           Z
 ---------------------------------------------------------------------
      1          6           0       -1.868323    1.229629   -0.167498
      2          6           0       -2.273518    2.694871   -0.003586
      3          6           0       -1.155449    3.664049   -0.388825
      4          1           0       -0.980238    1.030371    0.447762
      5          1           0       -1.571902    1.052915   -1.210715
      6          1           0       -2.570407    2.868439    1.038694
      7          1           0       -3.160856    2.890616   -0.619160
      8          1           0       -0.863781    3.519814   -1.434161
      9          1           0       -0.269977    3.497511    0.233112
     10          1           0       -1.466580    4.705920   -0.264078
     11          6           0       -2.975561    0.248597    0.213724
     12          6           0       -2.570366   -1.216645    0.049813
     13          6           0       -3.688436   -2.185823    0.435051
     14          1           0       -3.271982    0.425311    1.256941
     15          1           0       -3.863646    0.447855   -0.401536
     16          1           0       -1.683028   -1.412390    0.665386
     17          1           0       -2.273477   -1.390213   -0.992467
     18          1           0       -4.573907   -2.019285   -0.186886
     19          1           0       -3.980103   -2.041588    1.480387
     20          1           0       -3.377304   -3.227694    0.310304
     21          6           0        3.028987    1.611606    0.512621
     22          6           0        2.762625    1.265245   -0.816140
     23          6           0        2.133201    0.054918   -1.121889
     24          6           0        1.782236   -0.789060   -0.069361
     25          6           0        2.034145   -0.472181    1.264587
     26          6           0        2.664539    0.743319    1.546920
     27          1           0        3.518314    2.553826    0.741039
     28          1           0        3.044535    1.937616   -1.621428
     29          1           0        1.915102   -0.238113   -2.141685
     30          1           0        1.741288   -1.163014    2.045870
     31          1           0        2.870154    1.009698    2.579785
     32          7           0        1.115380   -2.073117   -0.380649
     33          8           0        0.816171   -2.799286    0.564755
     34          8           0        0.904536   -2.329079   -1.564146
 ---------------------------------------------------------------------

 SCF Done:  E(RHF) =  -669.536417194     A.U. after   15 cycles
 E2 =    -0.2094083616D+01 EUMP2 =    -0.67163050080951D+03

 The electronic state is 1-A.
 Alpha  occ. eigenvalues --  -20.60923 -20.60902 -15.85918 -11.31267 -11.27843
 Alpha  occ. eigenvalues --  -11.27817 -11.27580 -11.26865 -11.26839 -11.21570
 Alpha  occ. eigenvalues --  -11.21231 -11.21160 -11.20922 -11.20741 -11.20249
 Alpha  occ. eigenvalues --   -1.59956  -1.39517  -1.19440  -1.08839  -1.08090
 Alpha  occ. eigenvalues --   -1.04839  -1.03140  -0.95680  -0.95626  -0.86655
 Alpha  occ. eigenvalues --   -0.86238  -0.82516  -0.79259  -0.77871  -0.77564
 Alpha  occ. eigenvalues --   -0.72159  -0.71248  -0.70547  -0.65100  -0.64842
 Alpha  occ. eigenvalues --   -0.64728  -0.62187  -0.60546  -0.59028  -0.57196
 Alpha  occ. eigenvalues --   -0.55342  -0.54945  -0.53189  -0.52932  -0.52308
 Alpha  occ. eigenvalues --   -0.52051  -0.49610  -0.48926  -0.48919  -0.47533
 Alpha  occ. eigenvalues --   -0.46341  -0.45533  -0.45361  -0.44585  -0.43395
 Alpha  occ. eigenvalues --   -0.37394  -0.36427
 Alpha virt. eigenvalues --    0.04933   0.11174   0.16390   0.21298   0.23074
 Alpha virt. eigenvalues --    0.24662   0.26683   0.27212   0.27455   0.28169
 Alpha virt. eigenvalues --    0.28396   0.30915   0.31543   0.31995   0.32426

 Mulliken charges:
               1
     1  C   -0.301344
     2  C   -0.298658
     3  C   -0.475272
     4  H    0.149318
     5  H    0.148619
     6  H    0.151005
     7  H    0.152690
     8  H    0.152579
     9  H    0.151910
    10  H    0.158835
    11  C   -0.297569
    12  C   -0.308142
    13  C   -0.475500
    14  H    0.146650
    15  H    0.148209
    16  H    0.157630
    17  H    0.159401
    18  H    0.151267
    19  H    0.150947
    20  H    0.168565
    21  C   -0.171154
    22  C   -0.216886
    23  C   -0.169779
    24  C    0.161231
    25  C   -0.173574
    26  C   -0.218629
    27  H    0.226359
    28  H    0.224224
    29  H    0.275550
    30  H    0.275756
    31  H    0.223890
    32  N    0.489337
    33  O   -0.458994
    34  O   -0.458470
 Sum of Mulliken charges =  -0.00000

 Dipole moment (field-independent basis, Debye):
    X=              2.4920    Y=              4.3375    Z=              1.0415  Tot=              5.1097
 Quadrupole moment (field-independent basis, Debye-Ang):
   XX=            -87.7217   YY=           -103.0960   ZZ=            -89.2910
   XY=              6.1258   XZ=              2.1934   YZ=             -2.1271

 Normal termination of Gaussian 16 at Thu May  6 05:49:43 2021.
