 Gaussian 16, Revision A.03,
 Gaussian 16:  EM64L-G16RevA.03 25-Dec-2016

 -------------
 #p 6-31g* mp2
 -------------

 ------------------------------------------------------
 Input file generated by CHIRIPA (05-May-2021 14:53:18)
 ------------------------------------------------------
 Symbolic Z-matrix:
 Charge =  0 Multiplicity = 1

                         Standard orientation:
 ---------------------------------------------------------------------
 Center     Atomic      Atomic             Coordinates (Angstroms)
 Number     Number       Type             X           Y           Z
 ---------------------------------------------------------------------
      1          6           0       -3.362917    0.671473   -0.472001
      2          6           0       -3.526215    1.965545    0.325932
      3          6           0       -2.884566    3.170066   -0.363422
      4          1           0       -2.293062    0.478265   -0.630198
      5          1           0       -3.807143    0.804613   -1.468159
      6          1           0       -3.083040    1.829546    1.320777
      7          1           0       -4.595799    2.155593    0.482413
      8          1           0       -3.332838    3.333985   -1.348705
      9          1           0       -1.811484    3.006086   -0.505578
     10          1           0       -3.013127    4.084437    0.224163
     11          6           0       -3.999159   -0.541618    0.204264
     12          6           0       -3.835861   -1.835690   -0.593668
     13          6           0       -4.477510   -3.040211    0.095686
     14          1           0       -3.554933   -0.674759    1.200423
     15          1           0       -5.069014   -0.348411    0.362462
     16          1           0       -2.766277   -2.025738   -0.750150
     17          1           0       -4.279036   -1.699691   -1.588514
     18          1           0       -5.550592   -2.876232    0.237842
     19          1           0       -4.029238   -3.204131    1.080969
     20          1           0       -4.348949   -3.954583   -0.491900
     21          6           0        0.500003    0.335355    0.861157
     22          6           0        1.508627    0.117151    1.805396
     23          6           0        2.828489   -0.097871    1.397627
     24          6           0        3.105495   -0.088049    0.031442
     25          6           0        2.122600    0.126513   -0.933529
     26          6           0        0.809662    0.339333   -0.502887
     27          1           0       -0.522608    0.501534    1.186807
     28          1           0        1.271056    0.113519    2.865393
     29          1           0        3.628762   -0.269305    2.107269
     30          1           0        2.390135    0.124422   -1.983213
     31          1           0        0.028389    0.508531   -1.238433
     32          7           0        4.499108   -0.314518   -0.412353
     33          8           0        4.717221   -0.301043   -1.621849
     34          8           0        5.346923   -0.501210    0.457702
 ---------------------------------------------------------------------

 SCF Done:  E(RHF) =  -669.535093415     A.U. after   15 cycles
 E2 =    -0.2092677896D+01 EUMP2 =    -0.67162777131078D+03

 The electronic state is 1-A.
 Alpha  occ. eigenvalues --  -20.60761 -20.60756 -15.85815 -11.31188 -11.27759
 Alpha  occ. eigenvalues --  -11.27755 -11.27486 -11.26771 -11.26751 -11.22782
 Alpha  occ. eigenvalues --  -11.22660 -11.22468 -11.22407 -11.22092 -11.21751
 Alpha  occ. eigenvalues --   -1.59836  -1.39389  -1.19361  -1.09540  -1.08753
 Alpha  occ. eigenvalues --   -1.04766  -1.04507  -0.96953  -0.95590  -0.87962
 Alpha  occ. eigenvalues --   -0.86173  -0.82420  -0.80582  -0.79353  -0.77465
 Alpha  occ. eigenvalues --   -0.72034  -0.71159  -0.70519  -0.66247  -0.65006
 Alpha  occ. eigenvalues --   -0.64730  -0.62149  -0.61868  -0.60316  -0.58557
 Alpha  occ. eigenvalues --   -0.56264  -0.55247  -0.53595  -0.53374  -0.53084
 Alpha  occ. eigenvalues --   -0.52863  -0.50898  -0.48885  -0.48792  -0.48787
 Alpha  occ. eigenvalues --   -0.47638  -0.46847  -0.46802  -0.44793  -0.44792
 Alpha  occ. eigenvalues --   -0.37339  -0.36367
 Alpha virt. eigenvalues --    0.05062   0.11201   0.16542   0.18143   0.22633
 Alpha virt. eigenvalues --    0.23656   0.24362   0.25268   0.26986   0.28261
 Alpha virt. eigenvalues --    0.29945   0.30035   0.30921   0.31225   0.31674

 Mulliken charges:
               1
     1  C   -0.306805
     2  C   -0.301739
     3  C   -0.477391
     4  H    0.142280
     5  H    0.155803
     6  H    0.146756
     7  H    0.158325
     8  H    0.158919
     9  H    0.151991
    10  H    0.165136
    11  C   -0.298167
    12  C   -0.300783
    13  C   -0.476169
    14  H    0.145924
    15  H    0.154517
    16  H    0.151342
    17  H    0.154282
    18  H    0.156836
    19  H    0.155481
    20  H    0.163592
    21  C   -0.175544
    22  C   -0.219431
    23  C   -0.170676
    24  C    0.158450
    25  C   -0.170409
    26  C   -0.225011
    27  H    0.231818
    28  H    0.223571
    29  H    0.275632
    30  H    0.275903
    31  H    0.228266
    32  N    0.487968
    33  O   -0.460310
    34  O   -0.460354
 Sum of Mulliken charges =  -0.00000

 Dipole moment (field-independent basis, Debye):
    X=             -5.1439    Y=              0.7937    Z=              1.5247  Tot=              5.4235
 Quadrupole moment (field-independent basis, Debye-Ang):
   XX=           -123.7281   YY=            -96.0982   ZZ=            -90.0271
   XY=              2.1424   XZ=              7.0688   YZ=             -0.3740

 Normal termination of Gaussian 16 at Thu May  6 07:37:31 2021.
