 Gaussian 16, Revision A.03,
 Gaussian 16:  EM64L-G16RevA.03 25-Dec-2016

 -------------
 #p 6-31g* mp2
 -------------

 ------------------------------------------------------
 Input file generated by CHIRIPA (05-May-2021 14:53:16)
 ------------------------------------------------------
 Symbolic Z-matrix:
 Charge =  0 Multiplicity = 1

                         Standard orientation:
 ---------------------------------------------------------------------
 Center     Atomic      Atomic             Coordinates (Angstroms)
 Number     Number       Type             X           Y           Z
 ---------------------------------------------------------------------
      1          6           0        2.806244   -0.609952    0.097408
      2          6           0        2.622612   -1.430388   -1.179757
      3          6           0        2.681038   -2.937345   -0.927844
      4          1           0        3.769905   -0.869262    0.556822
      5          1           0        2.028992   -0.892080    0.821065
      6          1           0        3.399141   -1.145805   -1.901305
      7          1           0        1.659362   -1.168955   -1.636286
      8          1           0        1.896489   -3.241549   -0.227456
      9          1           0        3.646152   -3.218267   -0.493980
     10          1           0        2.547478   -3.504711   -1.854191
     11          6           0        2.750284    0.898387   -0.138194
     12          6           0        2.933916    1.718823    1.138970
     13          6           0        2.875490    3.225780    0.887058
     14          1           0        3.527536    1.180514   -0.861851
     15          1           0        1.786623    1.157696   -0.597609
     16          1           0        3.897165    1.457390    1.595500
     17          1           0        2.157387    1.434240    1.860518
     18          1           0        1.910375    3.506701    0.453194
     19          1           0        3.660039    3.529983    0.186669
     20          1           0        3.009050    3.793145    1.813405
     21          6           0       -1.782636   -1.570392    2.038435
     22          6           0       -1.045661   -1.785065    0.869117
     23          6           0       -1.252212   -0.983498   -0.257548
     24          6           0       -2.208017    0.028258   -0.179596
     25          6           0       -2.958128    0.266976    0.970899
     26          6           0       -2.734838   -0.546861    2.085510
     27          1           0       -1.615681   -2.197835    2.908973
     28          1           0       -0.305511   -2.579212    0.829685
     29          1           0       -0.695651   -1.127778   -1.175612
     30          1           0       -3.689023    1.066431    0.979947
     31          1           0       -3.308648   -0.377846    2.992275
     32          7           0       -2.435544    0.883336   -1.365966
     33          8           0       -3.283454    1.768099   -1.271742
     34          8           0       -1.761660    0.652591   -2.367602
 ---------------------------------------------------------------------

 SCF Done:  E(RHF) =  -669.535102144     A.U. after   15 cycles
 E2 =    -0.2093632804D+01 EUMP2 =    -0.67162873494777D+03

 The electronic state is 1-A.
 Alpha  occ. eigenvalues --  -20.60842 -20.60837 -15.85893 -11.31260 -11.27831
 Alpha  occ. eigenvalues --  -11.27821 -11.27572 -11.26845 -11.26832 -11.22121
 Alpha  occ. eigenvalues --  -11.21827 -11.21730 -11.21684 -11.21469 -11.21033
 Alpha  occ. eigenvalues --   -1.59916  -1.39469  -1.19439  -1.08832  -1.08719
 Alpha  occ. eigenvalues --   -1.04846  -1.03849  -0.96294  -0.95664  -0.87311
 Alpha  occ. eigenvalues --   -0.86241  -0.82497  -0.79923  -0.78481  -0.77553
 Alpha  occ. eigenvalues --   -0.72110  -0.71240  -0.70554  -0.65437  -0.65062
 Alpha  occ. eigenvalues --   -0.64857  -0.62295  -0.61121  -0.59677  -0.57886
 Alpha  occ. eigenvalues --   -0.55630  -0.55318  -0.53160  -0.53024  -0.52950
 Alpha  occ. eigenvalues --   -0.52700  -0.50237  -0.48871  -0.48866  -0.48219
 Alpha  occ. eigenvalues --   -0.46949  -0.46025  -0.45922  -0.44867  -0.44067
 Alpha  occ. eigenvalues --   -0.37412  -0.36411
 Alpha virt. eigenvalues --    0.04959   0.11110   0.16345   0.19037   0.23085
 Alpha virt. eigenvalues --    0.23827   0.25146   0.25774   0.27493   0.28434
 Alpha virt. eigenvalues --    0.29144   0.29872   0.31344   0.31521   0.32366

 Mulliken charges:
               1
     1  C   -0.301157
     2  C   -0.306111
     3  C   -0.477957
     4  H    0.150076
     5  H    0.146501
     6  H    0.158706
     7  H    0.152540
     8  H    0.143544
     9  H    0.159664
    10  H    0.164720
    11  C   -0.299761
    12  C   -0.299981
    13  C   -0.476306
    14  H    0.151594
    15  H    0.155332
    16  H    0.150640
    17  H    0.150676
    18  H    0.158944
    19  H    0.156188
    20  H    0.159443
    21  C   -0.172452
    22  C   -0.224006
    23  C   -0.176886
    24  C    0.158468
    25  C   -0.170487
    26  C   -0.218495
    27  H    0.226613
    28  H    0.230573
    29  H    0.282611
    30  H    0.275905
    31  H    0.223845
    32  N    0.487635
    33  O   -0.459957
    34  O   -0.460656
 Sum of Mulliken charges =  -0.00000

 Dipole moment (field-independent basis, Debye):
    X=              0.8433    Y=             -2.9231    Z=              4.1206  Tot=              5.1220
 Quadrupole moment (field-independent basis, Debye-Ang):
   XX=            -94.8551   YY=            -95.4205   ZZ=            -95.3833
   XY=              4.7183   XZ=            -12.0280   YZ=              2.1096

 Normal termination of Gaussian 16 at Thu May  6 17:14:11 2021.
