 Gaussian 16, Revision A.03,
 Gaussian 16:  EM64L-G16RevA.03 25-Dec-2016

 -------------
 #p 6-31g* mp2
 -------------

 ------------------------------------------------------
 Input file generated by CHIRIPA (05-May-2021 14:51:09)
 ------------------------------------------------------
 Symbolic Z-matrix:
 Charge =  0 Multiplicity = 1

                         Standard orientation:
 ---------------------------------------------------------------------
 Center     Atomic      Atomic             Coordinates (Angstroms)
 Number     Number       Type             X           Y           Z
 ---------------------------------------------------------------------
      1          6           0        3.044788    0.304537    0.089559
      2          6           0        2.514865    1.691472   -0.275925
      3          6           0        3.565240    2.789418   -0.105566
      4          1           0        3.399226    0.316716    1.129352
      5          1           0        3.919039    0.077135   -0.536036
      6          1           0        1.641036    1.915616    0.349213
      7          1           0        2.161471    1.675938   -1.314909
      8          1           0        4.434561    2.592891   -0.741380
      9          1           0        3.911168    2.833931    0.932197
     10          1           0        3.165174    3.772610   -0.372288
     11          6           0        2.006335   -0.803646   -0.075597
     12          6           0        2.536258   -2.190581    0.289886
     13          6           0        1.485884   -3.288527    0.119527
     14          1           0        1.132084   -0.576243    0.549997
     15          1           0        1.651898   -0.815825   -1.115391
     16          1           0        2.889652   -2.175046    1.328870
     17          1           0        3.410088   -2.414725   -0.335252
     18          1           0        1.139955   -3.333040   -0.918236
     19          1           0        0.616562   -3.091999    0.755341
     20          1           0        1.885949   -4.271719    0.386250
     21          6           0       -2.899500   -0.416479   -0.008596
     22          6           0       -1.980223   -1.627604   -0.170115
     23          6           0       -2.743008   -2.952728   -0.171465
     24          1           0       -3.465742   -0.516202    0.927550
     25          1           0       -3.638223   -0.414557   -0.822033
     26          1           0       -1.242585   -1.626476    0.642600
     27          1           0       -1.415963   -1.524892   -1.105891
     28          1           0       -3.467275   -2.979481   -0.992027
     29          1           0       -3.292912   -3.081643    0.766398
     30          1           0       -2.066588   -3.805206   -0.288065
     31          6           0       -2.151623    0.915588   -0.005365
     32          6           0       -3.070901    2.126713    0.156154
     33          6           0       -2.308115    3.451836    0.157504
     34          1           0       -1.412900    0.913666    0.808072
     35          1           0       -1.585381    1.015311   -0.941511
     36          1           0       -3.635160    2.024001    1.091930
     37          1           0       -3.808537    2.125585   -0.656561
     38          1           0       -1.758211    3.580752   -0.780360
     39          1           0       -1.583848    3.478590    0.978067
     40          1           0       -2.984535    4.304316    0.274104
 ---------------------------------------------------------------------

 SCF Done:  E(RHF) =  -470.732373479     A.U. after   11 cycles
 E2 =    -0.1584848410D+01 EUMP2 =    -0.47231722188928D+03

 The electronic state is 1-A.
 Alpha  occ. eigenvalues --  -11.21596 -11.21564 -11.21555 -11.21515 -11.21382
 Alpha  occ. eigenvalues --  -11.21348 -11.21318 -11.21281 -11.21071 -11.21037
 Alpha  occ. eigenvalues --  -11.21011 -11.20999  -1.08445  -1.08348  -1.03560
 Alpha  occ. eigenvalues --   -1.03434  -0.95998  -0.95893  -0.86980  -0.86943
 Alpha  occ. eigenvalues --   -0.79725  -0.79425  -0.78468  -0.77931  -0.65174
 Alpha  occ. eigenvalues --   -0.64901  -0.61064  -0.60753  -0.59477  -0.59167
 Alpha  occ. eigenvalues --   -0.57786  -0.57325  -0.55318  -0.55150  -0.52654
 Alpha  occ. eigenvalues --   -0.52634  -0.52466  -0.52249  -0.49944  -0.49843
 Alpha  occ. eigenvalues --   -0.48162  -0.47631  -0.46860  -0.46373  -0.46329
 Alpha  occ. eigenvalues --   -0.45883  -0.45486  -0.44968  -0.43773  -0.43711
 Alpha virt. eigenvalues --    0.20959   0.22275   0.23577   0.24152   0.25213
 Alpha virt. eigenvalues --    0.25794   0.26139   0.28112   0.28930   0.29517
 Alpha virt. eigenvalues --    0.30856   0.31114   0.31462   0.31823   0.32030

 Mulliken charges:
               1
     1  C   -0.298321
     2  C   -0.300387
     3  C   -0.475744
     4  H    0.149078
     5  H    0.149223
     6  H    0.153461
     7  H    0.151408
     8  H    0.154997
     9  H    0.154916
    10  H    0.160384
    11  C   -0.301511
    12  C   -0.300202
    13  C   -0.478817
    14  H    0.154469
    15  H    0.149304
    16  H    0.151238
    17  H    0.151578
    18  H    0.155235
    19  H    0.160164
    20  H    0.159347
    21  C   -0.298381
    22  C   -0.301628
    23  C   -0.478319
    24  H    0.148993
    25  H    0.149229
    26  H    0.154550
    27  H    0.153420
    28  H    0.154946
    29  H    0.154426
    30  H    0.162907
    31  C   -0.299609
    32  C   -0.299767
    33  C   -0.475759
    34  H    0.149751
    35  H    0.150966
    36  H    0.151732
    37  H    0.152046
    38  H    0.155653
    39  H    0.154798
    40  H    0.160228
 Sum of Mulliken charges =  -0.00000

 Dipole moment (field-independent basis, Debye):
    X=             -0.0177    Y=             -0.0042    Z=             -0.0115  Tot=              0.0215
 Quadrupole moment (field-independent basis, Debye-Ang):
   XX=            -85.5127   YY=            -86.7361   ZZ=            -82.7768
   XY=             -1.0301   XZ=             -0.2237   YZ=             -0.0162

 Normal termination of Gaussian 16 at Wed May  5 19:44:25 2021.
