 Gaussian 16, Revision A.03,
 Gaussian 16:  EM64L-G16RevA.03 25-Dec-2016

 -------------
 #p 6-31g* mp2
 -------------

 ------------------------------------------------------
 Input file generated by CHIRIPA (05-May-2021 14:51:13)
 ------------------------------------------------------
 Symbolic Z-matrix:
 Charge =  0 Multiplicity = 1

                         Standard orientation:
 ---------------------------------------------------------------------
 Center     Atomic      Atomic             Coordinates (Angstroms)
 Number     Number       Type             X           Y           Z
 ---------------------------------------------------------------------
      1          6           0       -3.706020   -0.130141    0.077123
      2          6           0       -4.536778   -0.045631   -1.203769
      3          6           0       -5.704411    0.934625   -1.087472
      4          1           0       -4.356999   -0.430189    0.909675
      5          1           0       -3.323299    0.869775    0.324285
      6          1           0       -4.916672   -1.045661   -1.449200
      7          1           0       -3.883708    0.254065   -2.033405
      8          1           0       -5.340208    1.943070   -0.866125
      9          1           0       -6.379041    0.635959   -0.278600
     10          1           0       -6.284865    0.979368   -2.014258
     11          6           0       -2.535035   -1.106043   -0.023559
     12          6           0       -1.704276   -1.190552    1.257333
     13          6           0       -0.536643   -2.170808    1.141036
     14          1           0       -2.917755   -2.105958   -0.270721
     15          1           0       -1.884056   -0.805994   -0.856111
     16          1           0       -2.357347   -1.490248    2.086969
     17          1           0       -1.324383   -0.190522    1.502764
     18          1           0        0.137986   -1.872143    0.332164
     19          1           0       -0.900847   -3.179254    0.919689
     20          1           0        0.043810   -2.215551    2.067822
     21          6           0        2.693982    1.251631   -0.015873
     22          6           0        1.544728    1.191598    0.990902
     23          6           0        0.700477    2.466326    1.001000
     24          1           0        3.332815    2.114387    0.217561
     25          1           0        2.283890    1.428891   -1.019765
     26          1           0        1.956763    1.013125    1.992395
     27          1           0        0.908665    0.328773    0.755159
     28          1           0        0.262231    2.645971    0.013949
     29          1           0        1.316284    3.334211    1.258214
     30          1           0       -0.115313    2.401814    1.727763
     31          6           0        3.547072   -0.015448   -0.037691
     32          6           0        4.696327    0.044586   -1.044465
     33          6           0        5.540577   -1.230143   -1.054564
     34          1           0        3.957165   -0.192707    0.966201
     35          1           0        2.908241   -0.878203   -0.271125
     36          1           0        5.332389    0.907410   -0.808724
     37          1           0        4.284291    0.223059   -2.045960
     38          1           0        4.924770   -2.098027   -1.311779
     39          1           0        5.978825   -1.409787   -0.067514
     40          1           0        6.356367   -1.165630   -1.781327
 ---------------------------------------------------------------------

 SCF Done:  E(RHF) =  -470.732377072     A.U. after   11 cycles
 E2 =    -0.1584227671D+01 EUMP2 =    -0.47231660474222D+03

 The electronic state is 1-A.
 Alpha  occ. eigenvalues --  -11.21610 -11.21601 -11.21595 -11.21533 -11.21421
 Alpha  occ. eigenvalues --  -11.21404 -11.21360 -11.21345 -11.21113 -11.21096
 Alpha  occ. eigenvalues --  -11.21074 -11.21065  -1.08481  -1.08401  -1.03618
 Alpha  occ. eigenvalues --   -1.03472  -0.96019  -0.95976  -0.87043  -0.86978
 Alpha  occ. eigenvalues --   -0.79617  -0.79595  -0.78276  -0.78234  -0.65325
 Alpha  occ. eigenvalues --   -0.64887  -0.61307  -0.60641  -0.59428  -0.59261
 Alpha  occ. eigenvalues --   -0.57676  -0.57520  -0.55343  -0.55249  -0.52719
 Alpha  occ. eigenvalues --   -0.52650  -0.52443  -0.52394  -0.50008  -0.49890
 Alpha  occ. eigenvalues --   -0.47966  -0.47874  -0.46682  -0.46572  -0.45896
 Alpha  occ. eigenvalues --   -0.45748  -0.45721  -0.45532  -0.43796  -0.43787
 Alpha virt. eigenvalues --    0.20457   0.22831   0.23806   0.24192   0.25817
 Alpha virt. eigenvalues --    0.26301   0.26917   0.27520   0.29095   0.29270
 Alpha virt. eigenvalues --    0.30712   0.31197   0.31694   0.31920   0.32476

 Mulliken charges:
               1
     1  C   -0.298675
     2  C   -0.299613
     3  C   -0.475759
     4  H    0.149690
     5  H    0.150196
     6  H    0.151904
     7  H    0.151776
     8  H    0.155377
     9  H    0.155192
    10  H    0.160244
    11  C   -0.297883
    12  C   -0.307048
    13  C   -0.479283
    14  H    0.149755
    15  H    0.148651
    16  H    0.152721
    17  H    0.158378
    18  H    0.155300
    19  H    0.156394
    20  H    0.161879
    21  C   -0.297454
    22  C   -0.310011
    23  C   -0.477003
    24  H    0.149505
    25  H    0.148653
    26  H    0.151535
    27  H    0.165212
    28  H    0.154476
    29  H    0.155693
    30  H    0.160356
    31  C   -0.300041
    32  C   -0.299615
    33  C   -0.475720
    34  H    0.149763
    35  H    0.150878
    36  H    0.152033
    37  H    0.151745
    38  H    0.155343
    39  H    0.155243
    40  H    0.160211
 Sum of Mulliken charges =  -0.00000

 Dipole moment (field-independent basis, Debye):
    X=             -0.0065    Y=             -0.0180    Z=              0.0222  Tot=              0.0293
 Quadrupole moment (field-independent basis, Debye-Ang):
   XX=            -85.3496   YY=            -85.2933   ZZ=            -84.1625
   XY=              1.8616   XZ=              0.2693   YZ=             -0.0511

 Normal termination of Gaussian 16 at Thu May  6 03:59:44 2021.
