 Gaussian 16, Revision A.03,
 Gaussian 16:  EM64L-G16RevA.03 25-Dec-2016

 -------------
 #p 6-31g* mp2
 -------------

 ------------------------------------------------------
 Input file generated by CHIRIPA (05-May-2021 14:57:25)
 ------------------------------------------------------
 Symbolic Z-matrix:
 Charge =  0 Multiplicity = 1

                         Standard orientation:
 ---------------------------------------------------------------------
 Center     Atomic      Atomic             Coordinates (Angstroms)
 Number     Number       Type             X           Y           Z
 ---------------------------------------------------------------------
      1          6           0       -0.888711    2.057816   -1.552169
      2          6           0       -1.753242    2.534396   -0.561221
      3          6           0       -2.563421    1.651394    0.158825
      4          6           0       -2.483218    0.292020   -0.139440
      5          6           0       -1.631981   -0.213492   -1.120838
      6          6           0       -0.830941    0.687808   -1.828328
      7          1           0       -0.262894    2.750860   -2.106641
      8          1           0       -1.800201    3.597843   -0.344613
      9          1           0       -3.241639    1.993272    0.931197
     10          1           0       -1.607240   -1.279046   -1.314231
     11          1           0       -0.160471    0.314852   -2.597365
     12          7           0       -3.336080   -0.652460    0.616194
     13          8           0       -3.246788   -1.845463    0.334399
     14          8           0       -4.077697   -0.181857    1.475947
     15          6           0        3.435278    1.669869    1.093482
     16          6           0        2.489869    1.012544    1.887616
     17          6           0        1.878100   -0.161451    1.438149
     18          6           0        2.237025   -0.652400    0.183784
     19          6           0        3.175374   -0.020400   -0.630691
     20          6           0        3.774414    1.152211   -0.160925
     21          1           0        3.905571    2.581319    1.450523
     22          1           0        2.224546    1.412269    2.862228
     23          1           0        1.143032   -0.690545    2.032417
     24          1           0        3.419360   -0.443041   -1.597781
     25          1           0        4.508300    1.660580   -0.779812
     26          7           0        1.596110   -1.894523   -0.302791
     27          8           0        1.929631   -2.306638   -1.411648
     28          8           0        0.772373   -2.432465    0.433900
 ---------------------------------------------------------------------

 SCF Done:  E(RHF) =  -868.338050436     A.U. after   16 cycles
 E2 =    -0.2602429752D+01 EUMP2 =    -0.87094048018775D+03

 The electronic state is 1-A.
 Alpha  occ. eigenvalues --  -20.61307 -20.61240 -20.60323 -20.60248 -15.86284
 Alpha  occ. eigenvalues --  -15.85344 -11.31603 -11.30839 -11.28212 -11.28111
 Alpha  occ. eigenvalues --  -11.27915 -11.27519 -11.27311 -11.27280 -11.27219
 Alpha  occ. eigenvalues --  -11.27141 -11.26560 -11.26429  -1.60346  -1.59366
 Alpha  occ. eigenvalues --   -1.39896  -1.38909  -1.19776  -1.19054  -1.09188
 Alpha  occ. eigenvalues --   -1.08432  -1.05173  -1.04472  -0.96026  -0.95234
 Alpha  occ. eigenvalues --   -0.86576  -0.85854  -0.82855  -0.82059  -0.77913
 Alpha  occ. eigenvalues --   -0.77068  -0.72497  -0.71722  -0.71540  -0.70891
 Alpha  occ. eigenvalues --   -0.70693  -0.70140  -0.65433  -0.65179  -0.64699
 Alpha  occ. eigenvalues --   -0.64464  -0.62519  -0.61768  -0.55685  -0.54994
 Alpha  occ. eigenvalues --   -0.53602  -0.53265  -0.52727  -0.52538  -0.49288
 Alpha  occ. eigenvalues --   -0.49256  -0.48347  -0.48294  -0.45309  -0.44277
 Alpha  occ. eigenvalues --   -0.37834  -0.37051  -0.36764  -0.36025
 Alpha virt. eigenvalues --    0.04566   0.05458   0.10779   0.11634   0.16093
 Alpha virt. eigenvalues --    0.16878   0.20982   0.21719   0.26867   0.27425
 Alpha virt. eigenvalues --    0.28067   0.28633   0.30569   0.31136   0.32207

 Mulliken charges:
               1
     1  C   -0.169114
     2  C   -0.220015
     3  C   -0.173024
     4  C    0.156253
     5  C   -0.173732
     6  C   -0.226975
     7  H    0.221920
     8  H    0.219748
     9  H    0.273552
    10  H    0.290657
    11  H    0.228135
    12  N    0.487320
    13  O   -0.450893
    14  O   -0.465961
    15  C   -0.171505
    16  C   -0.218300
    17  C   -0.168831
    18  C    0.161450
    19  C   -0.175648
    20  C   -0.219923
    21  H    0.225859
    22  H    0.225550
    23  H    0.279704
    24  H    0.273390
    25  H    0.222719
    26  N    0.485285
    27  O   -0.465551
    28  O   -0.452070
 Sum of Mulliken charges =  -0.00000

 Dipole moment (field-independent basis, Debye):
    X=              5.2642    Y=              7.4324    Z=             -0.8361  Tot=              9.1461
 Quadrupole moment (field-independent basis, Debye-Ang):
   XX=           -109.1617   YY=           -106.6372   ZZ=            -99.2030
   XY=              0.1240   XZ=              7.2248   YZ=              0.4944

 Normal termination of Gaussian 16 at Thu May  6 03:33:05 2021.
