 Gaussian 16, Revision A.03,
 Gaussian 16:  EM64L-G16RevA.03 25-Dec-2016

 -------------
 #p 6-31g* mp2
 -------------

 ------------------------------------------------------
 Input file generated by CHIRIPA (05-May-2021 14:55:22)
 ------------------------------------------------------
 Symbolic Z-matrix:
 Charge =  0 Multiplicity = 1

                         Standard orientation:
 ---------------------------------------------------------------------
 Center     Atomic      Atomic             Coordinates (Angstroms)
 Number     Number       Type             X           Y           Z
 ---------------------------------------------------------------------
      1          6           0        3.489489    2.227962   -0.991068
      2          6           0        3.168414    2.273062    0.369593
      3          6           0        2.702834    1.130712    1.027483
      4          6           0        2.569720   -0.045204    0.290739
      5          6           0        2.881366   -0.121916   -1.065831
      6          6           0        3.345194    1.032724   -1.703182
      7          1           0        3.850482    3.120141   -1.494155
      8          1           0        3.279490    3.199919    0.925150
      9          1           0        2.446991    1.137586    2.080059
     10          1           0        2.760261   -1.060403   -1.593083
     11          1           0        3.593782    0.994760   -2.759973
     12          7           0        2.077759   -1.261065    0.976346
     13          8           0        1.969248   -2.284764    0.304855
     14          8           0        1.809985   -1.167334    2.172235
     15          6           0       -3.264927   -0.897120   -0.508835
     16          6           0       -1.796581   -1.318244   -0.440996
     17          6           0       -1.556245   -2.717915   -1.007526
     18          1           0       -3.874806   -1.626655    0.041410
     19          1           0       -3.601624   -0.933378   -1.554165
     20          1           0       -1.462365   -1.279871    0.603726
     21          1           0       -1.190104   -0.587517   -0.991303
     22          1           0       -1.862756   -2.766414   -2.057430
     23          1           0       -2.136563   -3.462701   -0.453338
     24          1           0       -0.500032   -2.998743   -0.949135
     25          6           0       -3.521126    0.499847    0.053813
     26          6           0       -4.989470    0.920972   -0.014026
     27          6           0       -5.229807    2.320642    0.552504
     28          1           0       -3.184429    0.536105    1.099143
     29          1           0       -2.911245    1.229383   -0.496431
     30          1           0       -5.595948    0.190244    0.536282
     31          1           0       -5.323686    0.882598   -1.058748
     32          1           0       -4.649488    3.065428   -0.001684
     33          1           0       -4.923297    2.369141    1.602408
     34          1           0       -6.286020    2.601470    0.494114
 ---------------------------------------------------------------------

 SCF Done:  E(RHF) =  -669.536502620     A.U. after   15 cycles
 E2 =    -0.2091634622D+01 EUMP2 =    -0.67162813724233D+03

 The electronic state is 1-A.
 Alpha  occ. eigenvalues --  -20.60940 -20.60935 -15.85966 -11.31272 -11.27833
 Alpha  occ. eigenvalues --  -11.27826 -11.27569 -11.26839 -11.26829 -11.21326
 Alpha  occ. eigenvalues --  -11.21013 -11.20894 -11.20890 -11.20828 -11.20004
 Alpha  occ. eigenvalues --   -1.59991  -1.39550  -1.19436  -1.08844  -1.07956
 Alpha  occ. eigenvalues --   -1.04832  -1.02992  -0.95693  -0.95425  -0.86449
 Alpha  occ. eigenvalues --   -0.86233  -0.82526  -0.79088  -0.77765  -0.77580
 Alpha  occ. eigenvalues --   -0.72194  -0.71297  -0.70548  -0.65095  -0.64837
 Alpha  occ. eigenvalues --   -0.64593  -0.62180  -0.60399  -0.58813  -0.57013
 Alpha  occ. eigenvalues --   -0.55339  -0.54736  -0.53163  -0.52925  -0.52081
 Alpha  occ. eigenvalues --   -0.51857  -0.49401  -0.48952  -0.48936  -0.47395
 Alpha  occ. eigenvalues --   -0.46141  -0.45309  -0.45223  -0.44922  -0.43218
 Alpha  occ. eigenvalues --   -0.37409  -0.36431
 Alpha virt. eigenvalues --    0.04920   0.11209   0.16378   0.21315   0.23299
 Alpha virt. eigenvalues --    0.24817   0.27069   0.27240   0.27735   0.28115
 Alpha virt. eigenvalues --    0.28746   0.30821   0.31846   0.32094   0.32170

 Mulliken charges:
               1
     1  C   -0.170612
     2  C   -0.218539
     3  C   -0.170556
     4  C    0.159226
     5  C   -0.170835
     6  C   -0.218670
     7  H    0.225905
     8  H    0.223793
     9  H    0.275772
    10  H    0.275759
    11  H    0.223757
    12  N    0.490040
    13  O   -0.460657
    14  O   -0.459322
    15  C   -0.297241
    16  C   -0.301951
    17  C   -0.483985
    18  H    0.150486
    19  H    0.146801
    20  H    0.159460
    21  H    0.143316
    22  H    0.146517
    23  H    0.154210
    24  H    0.181865
    25  C   -0.297991
    26  C   -0.299170
    27  C   -0.475331
    28  H    0.150811
    29  H    0.146164
    30  H    0.152600
    31  H    0.150760
    32  H    0.153056
    33  H    0.155204
    34  H    0.159357
 Sum of Mulliken charges =  -0.00000

 Dipole moment (field-independent basis, Debye):
    X=              1.9405    Y=              4.2116    Z=             -2.3135  Tot=              5.1822
 Quadrupole moment (field-independent basis, Debye-Ang):
   XX=            -87.1822   YY=            -94.9937   ZZ=            -92.0546
   XY=             11.4158   XZ=             -6.4694   YZ=              2.9583

 Normal termination of Gaussian 16 at Thu May  6 09:24:15 2021.
