 Gaussian 16, Revision A.03,
 Gaussian 16:  EM64L-G16RevA.03 25-Dec-2016

 -------------
 #p 6-31g* mp2
 -------------

 ------------------------------------------------------
 Input file generated by CHIRIPA (05-May-2021 14:55:20)
 ------------------------------------------------------
 Symbolic Z-matrix:
 Charge =  0 Multiplicity = 1

                         Standard orientation:
 ---------------------------------------------------------------------
 Center     Atomic      Atomic             Coordinates (Angstroms)
 Number     Number       Type             X           Y           Z
 ---------------------------------------------------------------------
      1          6           0        2.540020    2.519391    0.257119
      2          6           0        2.579545    1.873386   -0.982896
      3          6           0        2.853113    0.504646   -1.062012
      4          6           0        3.083402   -0.190471    0.124187
      5          6           0        3.050934    0.424782    1.374667
      6          6           0        2.775425    1.794306    1.429875
      7          1           0        2.326751    3.582966    0.309292
      8          1           0        2.397119    2.433971   -1.895315
      9          1           0        2.889812   -0.020509   -2.008735
     10          1           0        3.236930   -0.160646    2.266910
     11          1           0        2.745369    2.293377    2.394276
     12          7           0        3.374043   -1.639910    0.053085
     13          8           0        3.573429   -2.229844    1.112736
     14          8           0        3.396959   -2.158600   -1.060949
     15          6           0       -4.630646   -0.003478   -0.331059
     16          6           0       -5.530057   -0.383481    0.845649
     17          6           0       -7.018057   -0.261387    0.515890
     18          1           0       -4.856115    1.026729   -0.638925
     19          1           0       -4.870824   -0.645912   -1.189538
     20          1           0       -5.287299    0.258553    1.702082
     21          1           0       -5.302286   -1.412837    1.150873
     22          1           0       -7.281756   -0.914534   -0.322241
     23          1           0       -7.266686    0.766352    0.232100
     24          1           0       -7.642762   -0.537792    1.370995
     25          6           0       -3.140236   -0.120461   -0.016859
     26          6           0       -2.240824    0.259542   -1.193567
     27          6           0       -0.752823    0.137448   -0.863809
     28          1           0       -2.900058    0.521974    0.841620
     29          1           0       -2.914765   -1.150668    0.291007
     30          1           0       -2.468595    1.288898   -1.498792
     31          1           0       -2.483582   -0.382492   -2.050000
     32          1           0       -0.504196   -0.890292   -0.580018
     33          1           0       -0.489125    0.790595   -0.025678
     34          1           0       -0.128119    0.413853   -1.718915
 ---------------------------------------------------------------------

 SCF Done:  E(RHF) =  -669.534809477     A.U. after   15 cycles
 E2 =    -0.2092590756D+01 EUMP2 =    -0.67162740023329D+03

 The electronic state is 1-A.
 Alpha  occ. eigenvalues --  -20.60747 -20.60741 -15.85800 -11.31154 -11.27735
 Alpha  occ. eigenvalues --  -11.27721 -11.27484 -11.26762 -11.26731 -11.21674
 Alpha  occ. eigenvalues --  -11.21654 -11.21470 -11.21411 -11.21122 -11.21091
 Alpha  occ. eigenvalues --   -1.59822  -1.39376  -1.19339  -1.08735  -1.08495
 Alpha  occ. eigenvalues --   -1.04752  -1.03590  -0.96042  -0.95569  -0.87060
 Alpha  occ. eigenvalues --   -0.86144  -0.82408  -0.79661  -0.78310  -0.77451
 Alpha  occ. eigenvalues --   -0.72021  -0.71143  -0.70457  -0.65126  -0.64998
 Alpha  occ. eigenvalues --   -0.64756  -0.62102  -0.60990  -0.59438  -0.57656
 Alpha  occ. eigenvalues --   -0.55342  -0.55252  -0.53459  -0.52844  -0.52531
 Alpha  occ. eigenvalues --   -0.52282  -0.49959  -0.48778  -0.48774  -0.47970
 Alpha  occ. eigenvalues --   -0.46687  -0.45845  -0.45776  -0.44784  -0.43863
 Alpha  occ. eigenvalues --   -0.37307  -0.36257
 Alpha virt. eigenvalues --    0.05075   0.11294   0.16509   0.21261   0.22807
 Alpha virt. eigenvalues --    0.24196   0.26576   0.26841   0.27402   0.28002
 Alpha virt. eigenvalues --    0.28400   0.30880   0.31274   0.31812   0.32087

 Mulliken charges:
               1
     1  C   -0.171479
     2  C   -0.215307
     3  C   -0.167867
     4  C    0.160541
     5  C   -0.171201
     6  C   -0.219011
     7  H    0.225332
     8  H    0.222980
     9  H    0.275258
    10  H    0.275499
    11  H    0.223234
    12  N    0.487706
    13  O   -0.460720
    14  O   -0.460601
    15  C   -0.298198
    16  C   -0.299691
    17  C   -0.475714
    18  H    0.148206
    19  H    0.150424
    20  H    0.150967
    21  H    0.153285
    22  H    0.155748
    23  H    0.154431
    24  H    0.160491
    25  C   -0.298502
    26  C   -0.300723
    27  C   -0.474051
    28  H    0.147506
    29  H    0.152382
    30  H    0.148215
    31  H    0.153118
    32  H    0.158774
    33  H    0.155137
    34  H    0.153829
 Sum of Mulliken charges =  -0.00000

 Dipole moment (field-independent basis, Debye):
    X=             -0.9832    Y=              5.0778    Z=              0.2632  Tot=              5.1788
 Quadrupole moment (field-independent basis, Debye-Ang):
   XX=           -103.2423   YY=            -96.4157   ZZ=            -89.7168
   XY=             16.2911   XZ=              0.9631   YZ=              0.7586

 Normal termination of Gaussian 16 at Thu May  6 20:39:23 2021.
