 Gaussian 16, Revision A.03,
 Gaussian 16:  EM64L-G16RevA.03 25-Dec-2016

 -------------
 #p 6-31g* mp2
 -------------

 ------------------------------------------------------
 Input file generated by CHIRIPA (05-May-2021 14:57:27)
 ------------------------------------------------------
 Symbolic Z-matrix:
 Charge =  0 Multiplicity = 1

                         Standard orientation:
 ---------------------------------------------------------------------
 Center     Atomic      Atomic             Coordinates (Angstroms)
 Number     Number       Type             X           Y           Z
 ---------------------------------------------------------------------
      1          6           0        2.332608    0.071007    0.328874
      2          6           0        3.051009   -1.068255    0.706369
      3          6           0        4.440327   -1.113394    0.557018
      4          6           0        5.081976    0.003676    0.024354
      5          6           0        4.394152    1.153304   -0.361057
      6          6           0        3.005287    1.176202   -0.202697
      7          1           0        1.253529    0.097433    0.448393
      8          1           0        2.531239   -1.928039    1.119476
      9          1           0        5.021138   -1.982532    0.841053
     10          1           0        4.940114    1.994848   -0.769894
     11          1           0        2.449951    2.062315   -0.496726
     12          7           0        6.552545   -0.032338   -0.138526
     13          8           0        7.094343    0.964914   -0.610310
     14          8           0        7.135534   -1.057136    0.208676
     15          6           0       -2.319396   -0.023128   -0.170643
     16          6           0       -2.991687    1.108452    0.302719
     17          6           0       -4.387833    1.127117    0.373264
     18          6           0       -5.083254   -0.008304   -0.039651
     19          6           0       -4.442193   -1.150895   -0.515908
     20          6           0       -3.045514   -1.147208   -0.577728
     21          1           0       -1.234629   -0.028947   -0.222055
     22          1           0       -2.430367    1.982857    0.619544
     23          1           0       -4.933677    1.989764    0.735635
     24          1           0       -5.029062   -2.007466   -0.824596
     25          1           0       -2.526063   -2.027411   -0.945776
     26          7           0       -6.561572   -0.000376    0.030413
     27          8           0       -7.151176   -1.013415   -0.339393
     28          8           0       -7.102683    1.018728    0.453809
 ---------------------------------------------------------------------

 SCF Done:  E(RHF) =  -868.336217669     A.U. after   16 cycles
 E2 =    -0.2599579138D+01 EUMP2 =    -0.87093579680701D+03

 The electronic state is 1-A.
 Alpha  occ. eigenvalues --  -20.61336 -20.61331 -20.61326 -20.61321 -15.86394
 Alpha  occ. eigenvalues --  -15.86384 -11.31921 -11.31907 -11.28490 -11.28484
 Alpha  occ. eigenvalues --  -11.28481 -11.28470 -11.28429 -11.28414 -11.27611
 Alpha  occ. eigenvalues --  -11.27602 -11.27594 -11.27575  -1.60407  -1.60398
 Alpha  occ. eigenvalues --   -1.39956  -1.39946  -1.20119  -1.20106  -1.09522
 Alpha  occ. eigenvalues --   -1.09499  -1.05535  -1.05523  -0.96339  -0.96290
 Alpha  occ. eigenvalues --   -0.86944  -0.86931  -0.83165  -0.83099  -0.78127
 Alpha  occ. eigenvalues --   -0.78116  -0.72611  -0.72601  -0.71731  -0.71722
 Alpha  occ. eigenvalues --   -0.71541  -0.71095  -0.65784  -0.65772  -0.65567
 Alpha  occ. eigenvalues --   -0.65528  -0.62869  -0.62858  -0.56479  -0.55823
 Alpha  occ. eigenvalues --   -0.53864  -0.53852  -0.53640  -0.53628  -0.49385
 Alpha  occ. eigenvalues --   -0.49372  -0.49354  -0.49345  -0.45325  -0.45316
 Alpha  occ. eigenvalues --   -0.38156  -0.38139  -0.37122  -0.37110
 Alpha virt. eigenvalues --    0.04385   0.04405   0.10519   0.10530   0.15763
 Alpha virt. eigenvalues --    0.15820   0.17439   0.21824   0.24573   0.26437
 Alpha virt. eigenvalues --    0.26679   0.29223   0.29722   0.31752   0.31929

 Mulliken charges:
               1
     1  C   -0.175499
     2  C   -0.219492
     3  C   -0.169917
     4  C    0.159577
     5  C   -0.169900
     6  C   -0.219257
     7  H    0.220782
     8  H    0.224275
     9  H    0.277979
    10  H    0.277945
    11  H    0.222761
    12  N    0.487816
    13  O   -0.458484
    14  O   -0.458431
    15  C   -0.175127
    16  C   -0.219451
    17  C   -0.169910
    18  C    0.159486
    19  C   -0.169855
    20  C   -0.219470
    21  H    0.220799
    22  H    0.222028
    23  H    0.277845
    24  H    0.277979
    25  H    0.224706
    26  N    0.487823
    27  O   -0.458421
    28  O   -0.458587
 Sum of Mulliken charges =  -0.00000

 Dipole moment (field-independent basis, Debye):
    X=              0.0338    Y=              0.0723    Z=              0.3142  Tot=              0.3241
 Quadrupole moment (field-independent basis, Debye-Ang):
   XX=           -209.2198   YY=            -96.1328   ZZ=           -104.9244
   XY=              0.7626   XZ=              3.9583   YZ=             -0.0494

 Normal termination of Gaussian 16 at Wed May  5 22:52:25 2021.
