 Gaussian 16, Revision A.03,
 Gaussian 16:  EM64L-G16RevA.03 25-Dec-2016

 -------------
 #p 6-31g* mp2
 -------------

 ------------------------------------------------------
 Input file generated by CHIRIPA (05-May-2021 14:51:10)
 ------------------------------------------------------
 Symbolic Z-matrix:
 Charge =  0 Multiplicity = 1

                         Standard orientation:
 ---------------------------------------------------------------------
 Center     Atomic      Atomic             Coordinates (Angstroms)
 Number     Number       Type             X           Y           Z
 ---------------------------------------------------------------------
      1          6           0        2.678682    0.841870   -0.023235
      2          6           0        2.580335    2.318814    0.360104
      3          6           0        1.135152    2.801480    0.487667
      4          1           0        2.151429    0.680341   -0.973423
      5          1           0        2.154944    0.238742    0.731305
      6          1           0        3.105289    2.918864   -0.394203
      7          1           0        3.108047    2.476881    1.309394
      8          1           0        0.603711    2.228055    1.254058
      9          1           0        0.600937    2.672548   -0.459218
     10          1           0        1.088138    3.859878    0.762335
     11          6           0        4.117139    0.344561   -0.154586
     12          6           0        4.215485   -1.132383   -0.537925
     13          6           0        5.660669   -1.615049   -0.665488
     14          1           0        4.640877    0.947688   -0.909126
     15          1           0        4.644391    0.506090    0.795603
     16          1           0        3.687774   -1.290451   -1.487215
     17          1           0        3.690532   -1.732433    0.216383
     18          1           0        6.194884   -1.486118    0.281398
     19          1           0        6.192110   -1.041624   -1.431879
     20          1           0        5.707683   -2.673447   -0.940156
     21          6           0       -2.659831   -0.741654   -0.040077
     22          6           0       -1.981196   -1.486716    1.109847
     23          6           0       -0.504929   -1.776458    0.836937
     24          1           0       -2.565094   -1.335196   -0.959684
     25          1           0       -2.127305    0.202302   -0.221063
     26          1           0       -2.515683   -2.428339    1.289522
     27          1           0       -2.077727   -0.891420    2.026864
     28          1           0        0.047732   -0.844685    0.678933
     29          1           0       -0.392713   -2.390338   -0.062598
     30          1           0       -0.039439   -2.309611    1.671758
     31          6           0       -4.135989   -0.444776    0.217897
     32          6           0       -4.814625    0.300285   -0.932025
     33          6           0       -6.290892    0.590028   -0.659116
     34          1           0       -4.668517   -1.388733    0.398883
     35          1           0       -4.230727    0.148765    1.137504
     36          1           0       -4.718093   -0.295011   -1.849043
     37          1           0       -4.280138    1.241908   -1.111702
     38          1           0       -6.403108    1.203906    0.240418
     39          1           0       -6.843552   -0.341746   -0.501113
     40          1           0       -6.756382    1.123181   -1.493938
 ---------------------------------------------------------------------

 SCF Done:  E(RHF) =  -470.733218290     A.U. after   11 cycles
 E2 =    -0.1582965504D+01 EUMP2 =    -0.47231618379417D+03

 The electronic state is 1-A.
 Alpha  occ. eigenvalues --  -11.21629 -11.21574 -11.21564 -11.21557 -11.21391
 Alpha  occ. eigenvalues --  -11.21366 -11.21331 -11.21305 -11.21144 -11.21048
 Alpha  occ. eigenvalues --  -11.21047 -11.20975  -1.08436  -1.08387  -1.03541
 Alpha  occ. eigenvalues --   -1.03486  -0.95998  -0.95931  -0.87023  -0.86943
 Alpha  occ. eigenvalues --   -0.79628  -0.79535  -0.78291  -0.78155  -0.65097
 Alpha  occ. eigenvalues --   -0.64992  -0.60974  -0.60855  -0.59369  -0.59297
 Alpha  occ. eigenvalues --   -0.57643  -0.57513  -0.55329  -0.55190  -0.52699
 Alpha  occ. eigenvalues --   -0.52635  -0.52496  -0.52283  -0.49997  -0.49844
 Alpha  occ. eigenvalues --   -0.48018  -0.47808  -0.46716  -0.46566  -0.45899
 Alpha  occ. eigenvalues --   -0.45722  -0.45706  -0.45374  -0.43789  -0.43744
 Alpha virt. eigenvalues --    0.21295   0.23052   0.23654   0.24866   0.25849
 Alpha virt. eigenvalues --    0.26430   0.26903   0.27414   0.28487   0.29314
 Alpha virt. eigenvalues --    0.30619   0.31491   0.31664   0.31825   0.32200

 Mulliken charges:
               1
     1  C   -0.304291
     2  C   -0.299202
     3  C   -0.477422
     4  H    0.149910
     5  H    0.156082
     6  H    0.152110
     7  H    0.151965
     8  H    0.155125
     9  H    0.155340
    10  H    0.160832
    11  C   -0.297724
    12  C   -0.299905
    13  C   -0.475725
    14  H    0.149356
    15  H    0.149413
    16  H    0.152005
    17  H    0.153016
    18  H    0.155044
    19  H    0.155019
    20  H    0.160260
    21  C   -0.299017
    22  C   -0.299096
    23  C   -0.483189
    24  H    0.149385
    25  H    0.150640
    26  H    0.151587
    27  H    0.151268
    28  H    0.163576
    29  H    0.155167
    30  H    0.158713
    31  C   -0.298210
    32  C   -0.299678
    33  C   -0.475681
    34  H    0.149380
    35  H    0.149645
    36  H    0.151770
    37  H    0.152086
    38  H    0.155202
    39  H    0.155097
    40  H    0.160145
 Sum of Mulliken charges =  -0.00000

 Dipole moment (field-independent basis, Debye):
    X=              0.0320    Y=              0.0161    Z=             -0.0073  Tot=              0.0366
 Quadrupole moment (field-independent basis, Debye-Ang):
   XX=            -86.9437   YY=            -84.2838   ZZ=            -83.6492
   XY=              0.9938   XZ=              0.3311   YZ=              0.0911

 Normal termination of Gaussian 16 at Wed May  5 18:12:10 2021.
