 Gaussian 16, Revision A.03,
 Gaussian 16:  EM64L-G16RevA.03 25-Dec-2016

 -------------
 #p 6-31g* mp2
 -------------

 ------------------------------------------------------
 Input file generated by CHIRIPA (05-May-2021 14:51:13)
 ------------------------------------------------------
 Symbolic Z-matrix:
 Charge =  0 Multiplicity = 1

                         Standard orientation:
 ---------------------------------------------------------------------
 Center     Atomic      Atomic             Coordinates (Angstroms)
 Number     Number       Type             X           Y           Z
 ---------------------------------------------------------------------
      1          6           0       -4.565503   -0.415188   -0.247995
      2          6           0       -5.908608   -0.790441    0.379092
      3          6           0       -6.427467   -2.145887   -0.101890
      4          1           0       -4.669419   -0.402556   -1.341607
      5          1           0       -3.828303   -1.195405   -0.013060
      6          1           0       -6.642701   -0.009062    0.144209
      7          1           0       -5.801531   -0.801994    1.471345
      8          1           0       -5.716600   -2.940650    0.146350
      9          1           0       -6.562550   -2.143212   -1.188327
     10          1           0       -7.388627   -2.394329    0.358879
     11          6           0       -4.033764    0.937260    0.223031
     12          6           0       -2.690659    1.312513   -0.404057
     13          6           0       -2.171800    2.667959    0.076925
     14          1           0       -4.770963    1.717476   -0.011904
     15          1           0       -3.929847    0.924628    1.316643
     16          1           0       -2.797736    1.324066   -1.496310
     17          1           0       -1.956565    0.531134   -0.169174
     18          1           0       -2.036716    2.665284    1.163362
     19          1           0       -2.882666    3.462722   -0.171314
     20          1           0       -1.210640    2.916401   -0.383844
     21          6           0        4.963030   -0.305852    0.388419
     22          6           0        6.182448   -0.326296   -0.533853
     23          6           0        7.502173   -0.416179    0.232986
     24          1           0        5.046883    0.545412    1.077812
     25          1           0        4.966377   -1.212414    1.009330
     26          1           0        6.176053    0.579366   -1.153813
     27          1           0        6.095587   -1.177499   -1.221258
     28          1           0        7.534383   -1.327493    0.838851
     29          1           0        7.615305    0.439356    0.906679
     30          1           0        8.360729   -0.429449   -0.445665
     31          6           0        3.636236   -0.216220   -0.363455
     32          6           0        2.416818   -0.195775    0.558818
     33          6           0        1.097094   -0.105892   -0.208022
     34          1           0        3.632890    0.690342   -0.984365
     35          1           0        3.552383   -1.067484   -1.052847
     36          1           0        2.503679    0.655427    1.246223
     37          1           0        2.423213   -1.101438    1.178778
     38          1           0        0.983961   -0.961427   -0.881715
     39          1           0        1.064885    0.805421   -0.813887
     40          1           0        0.238538   -0.092623    0.470629
 ---------------------------------------------------------------------

 SCF Done:  E(RHF) =  -470.733069005     A.U. after   11 cycles
 E2 =    -0.1582605723D+01 EUMP2 =    -0.47231567472825D+03

 The electronic state is 1-A.
 Alpha  occ. eigenvalues --  -11.21618 -11.21610 -11.21571 -11.21474 -11.21418
 Alpha  occ. eigenvalues --  -11.21358 -11.21354 -11.21291 -11.21091 -11.21078
 Alpha  occ. eigenvalues --  -11.21048 -11.21010  -1.08445  -1.08374  -1.03558
 Alpha  occ. eigenvalues --   -1.03463  -0.96016  -0.95913  -0.87020  -0.86945
 Alpha  occ. eigenvalues --   -0.79659  -0.79493  -0.78263  -0.78177  -0.65076
 Alpha  occ. eigenvalues --   -0.65017  -0.60970  -0.60895  -0.59447  -0.59211
 Alpha  occ. eigenvalues --   -0.57620  -0.57525  -0.55298  -0.55203  -0.52734
 Alpha  occ. eigenvalues --   -0.52601  -0.52430  -0.52343  -0.49931  -0.49869
 Alpha  occ. eigenvalues --   -0.47949  -0.47831  -0.46642  -0.46563  -0.45804
 Alpha  occ. eigenvalues --   -0.45730  -0.45720  -0.45661  -0.43775  -0.43684
 Alpha virt. eigenvalues --    0.21742   0.23021   0.23560   0.25070   0.26220
 Alpha virt. eigenvalues --    0.26511   0.27017   0.27367   0.27771   0.29050
 Alpha virt. eigenvalues --    0.29769   0.30927   0.31650   0.31747   0.32435

 Mulliken charges:
               1
     1  C   -0.298171
     2  C   -0.299577
     3  C   -0.475669
     4  H    0.149667
     5  H    0.149316
     6  H    0.151885
     7  H    0.151780
     8  H    0.155093
     9  H    0.155149
    10  H    0.160126
    11  C   -0.297850
    12  C   -0.306395
    13  C   -0.475758
    14  H    0.149165
    15  H    0.148956
    16  H    0.151511
    17  H    0.160127
    18  H    0.154334
    19  H    0.154782
    20  H    0.160639
    21  C   -0.298275
    22  C   -0.299629
    23  C   -0.475708
    24  H    0.149707
    25  H    0.149507
    26  H    0.151960
    27  H    0.151951
    28  H    0.155177
    29  H    0.155206
    30  H    0.160287
    31  C   -0.298685
    32  C   -0.299893
    33  C   -0.478339
    34  H    0.149550
    35  H    0.149676
    36  H    0.152202
    37  H    0.151748
    38  H    0.155308
    39  H    0.156329
    40  H    0.162810
 Sum of Mulliken charges =  -0.00000

 Dipole moment (field-independent basis, Debye):
    X=              0.0352    Y=             -0.0120    Z=             -0.0084  Tot=              0.0381
 Quadrupole moment (field-independent basis, Debye-Ang):
   XX=            -86.0555   YY=            -84.4957   ZZ=            -84.4305
   XY=             -0.5562   XZ=             -0.1481   YZ=             -0.5448

 Normal termination of Gaussian 16 at Wed May  5 18:21:01 2021.
