 Gaussian 16, Revision A.03,
 Gaussian 16:  EM64L-G16RevA.03 25-Dec-2016

 -------------
 #p 6-31g* mp2
 -------------

 ------------------------------------------------------
 Input file generated by CHIRIPA (05-May-2021 14:55:24)
 ------------------------------------------------------
 Symbolic Z-matrix:
 Charge =  0 Multiplicity = 1

                         Standard orientation:
 ---------------------------------------------------------------------
 Center     Atomic      Atomic             Coordinates (Angstroms)
 Number     Number       Type             X           Y           Z
 ---------------------------------------------------------------------
      1          6           0       -1.393798   -1.793774    1.550966
      2          6           0       -0.947295   -0.497419    1.274164
      3          6           0       -1.710668    0.361604    0.477992
      4          6           0       -2.921044   -0.110622   -0.027263
      5          6           0       -3.392911   -1.396746    0.230644
      6          6           0       -2.613031   -2.238516    1.029242
      7          1           0       -0.794380   -2.454382    2.170393
      8          1           0       -0.000827   -0.149333    1.677995
      9          1           0       -1.388829    1.370022    0.247927
     10          1           0       -4.340662   -1.715358   -0.186096
     11          1           0       -2.962289   -3.244777    1.242557
     12          7           0       -3.737931    0.789655   -0.871418
     13          8           0       -4.800673    0.349665   -1.304577
     14          8           0       -3.299997    1.918234   -1.083925
     15          6           0        3.701030    1.043811    0.097647
     16          6           0        2.426586    1.829797    0.407491
     17          6           0        2.711893    3.252947    0.888153
     18          1           0        4.330711    1.009208    0.997231
     19          1           0        4.278180    1.581419   -0.667383
     20          1           0        1.851336    1.290165    1.170707
     21          1           0        1.799779    1.862369   -0.492880
     22          1           0        3.265242    3.812872    0.127305
     23          1           0        3.317093    3.237416    1.800345
     24          1           0        1.786956    3.796831    1.103891
     25          6           0        3.432183   -0.380775   -0.384019
     26          6           0        4.706628   -1.166762   -0.693863
     27          6           0        4.421321   -2.589912   -1.174525
     28          1           0        2.855033   -0.918383    0.381010
     29          1           0        2.802503   -0.346173   -1.283603
     30          1           0        5.333435   -1.199334    0.206508
     31          1           0        5.281878   -0.627128   -1.457080
     32          1           0        3.816122   -2.574380   -2.086717
     33          1           0        3.867971   -3.149837   -0.413678
     34          1           0        5.346257   -3.133795   -1.390264
 ---------------------------------------------------------------------

 SCF Done:  E(RHF) =  -669.535502849     A.U. after   15 cycles
 E2 =    -0.2091536205D+01 EUMP2 =    -0.67162703905386D+03

 The electronic state is 1-A.
 Alpha  occ. eigenvalues --  -20.60725 -20.60719 -15.85777 -11.31126 -11.27697
 Alpha  occ. eigenvalues --  -11.27676 -11.27436 -11.26714 -11.26670 -11.22458
 Alpha  occ. eigenvalues --  -11.22127 -11.22057 -11.21996 -11.21658 -11.21545
 Alpha  occ. eigenvalues --   -1.59800  -1.39354  -1.19296  -1.09085  -1.08697
 Alpha  occ. eigenvalues --   -1.04696  -1.04150  -0.96565  -0.95534  -0.87582
 Alpha  occ. eigenvalues --   -0.86099  -0.82371  -0.80242  -0.78913  -0.77405
 Alpha  occ. eigenvalues --   -0.71996  -0.71123  -0.70409  -0.65745  -0.64948
 Alpha  occ. eigenvalues --   -0.64693  -0.62081  -0.61523  -0.59935  -0.58188
 Alpha  occ. eigenvalues --   -0.55842  -0.55208  -0.53267  -0.53025  -0.52994
 Alpha  occ. eigenvalues --   -0.52795  -0.50503  -0.48763  -0.48752  -0.48527
 Alpha  occ. eigenvalues --   -0.47270  -0.46426  -0.46351  -0.44763  -0.44402
 Alpha  occ. eigenvalues --   -0.37281  -0.36290
 Alpha virt. eigenvalues --    0.05113   0.11323   0.16586   0.19553   0.22687
 Alpha virt. eigenvalues --    0.23641   0.24650   0.25992   0.27090   0.28486
 Alpha virt. eigenvalues --    0.29218   0.29701   0.31277   0.31422   0.32279

 Mulliken charges:
               1
     1  C   -0.171831
     2  C   -0.222095
     3  C   -0.173721
     4  C    0.158589
     5  C   -0.171139
     6  C   -0.218506
     7  H    0.225400
     8  H    0.230423
     9  H    0.276473
    10  H    0.275324
    11  H    0.223098
    12  N    0.488136
    13  O   -0.460701
    14  O   -0.460655
    15  C   -0.298374
    16  C   -0.305858
    17  C   -0.475607
    18  H    0.150373
    19  H    0.153946
    20  H    0.142106
    21  H    0.156529
    22  H    0.159833
    23  H    0.156060
    24  H    0.162075
    25  C   -0.298038
    26  C   -0.300248
    27  C   -0.475692
    28  H    0.142098
    29  H    0.153476
    30  H    0.152043
    31  H    0.154560
    32  H    0.157253
    33  H    0.152586
    34  H    0.162083
 Sum of Mulliken charges =  -0.00000

 Dipole moment (field-independent basis, Debye):
    X=              3.0611    Y=             -3.1028    Z=              2.8745  Tot=              5.2211
 Quadrupole moment (field-independent basis, Debye-Ang):
   XX=           -109.0727   YY=            -92.4509   ZZ=            -94.8555
   XY=             12.0677   XZ=             -8.6770   YZ=             -0.5896

 Normal termination of Gaussian 16 at Wed May  5 17:37:46 2021.
