 Gaussian 16, Revision A.03,
 Gaussian 16:  EM64L-G16RevA.03 25-Dec-2016

 -------------
 #p 6-31g* mp2
 -------------

 ------------------------------------------------------
 Input file generated by CHIRIPA (05-May-2021 14:55:21)
 ------------------------------------------------------
 Symbolic Z-matrix:
 Charge =  0 Multiplicity = 1

                         Standard orientation:
 ---------------------------------------------------------------------
 Center     Atomic      Atomic             Coordinates (Angstroms)
 Number     Number       Type             X           Y           Z
 ---------------------------------------------------------------------
      1          6           0       -2.142974    1.722850   -0.163725
      2          6           0       -1.834970    0.360020   -0.229674
      3          6           0       -2.847726   -0.601074   -0.157762
      4          6           0       -4.163543   -0.162024   -0.019382
      5          6           0       -4.502302    1.188468    0.049200
      6          6           0       -3.473312    2.132003   -0.024744
      7          1           0       -1.349935    2.462631   -0.220377
      8          1           0       -0.802702    0.039363   -0.337600
      9          1           0       -2.637415   -1.662598   -0.206281
     10          1           0       -5.540703    1.477513    0.156875
     11          1           0       -3.715461    3.189717    0.026739
     12          7           0       -5.244296   -1.170197    0.057823
     13          8           0       -6.395609   -0.757558    0.179661
     14          8           0       -4.919613   -2.353952   -0.004963
     15          6           0        5.845858    0.164314    0.060047
     16          6           0        6.750509   -1.061841   -0.066974
     17          6           0        8.237066   -0.706351   -0.027371
     18          1           0        6.077623    0.868627   -0.750614
     19          1           0        6.074559    0.684187    1.000698
     20          1           0        6.519211   -1.580022   -1.006445
     21          1           0        6.516432   -1.763404    0.743973
     22          1           0        8.489344   -0.209357    0.914942
     23          1           0        8.492139   -0.024933   -0.845421
     24          1           0        8.865578   -1.597587   -0.119742
     25          6           0        4.356823   -0.174898    0.022145
     26          6           0        3.452172    1.051257    0.149167
     27          6           0        1.965615    0.695767    0.109563
     28          1           0        4.128122   -0.694772   -0.918505
     29          1           0        4.125058   -0.879212    0.832808
     30          1           0        3.686250    1.752819   -0.661781
     31          1           0        3.683470    1.569437    1.088638
     32          1           0        1.710543    0.014348    0.927614
     33          1           0        1.713338    0.198772   -0.832749
     34          1           0        1.337104    1.587002    0.201935
 ---------------------------------------------------------------------

 SCF Done:  E(RHF) =  -669.535442158     A.U. after   15 cycles
 E2 =    -0.2091249348D+01 EUMP2 =    -0.67162669150585D+03

 The electronic state is 1-A.
 Alpha  occ. eigenvalues --  -20.60681 -20.60676 -15.85732 -11.31073 -11.27639
 Alpha  occ. eigenvalues --  -11.27611 -11.27362 -11.26662 -11.26549 -11.22583
 Alpha  occ. eigenvalues --  -11.22460 -11.22131 -11.22068 -11.21951 -11.21454
 Alpha  occ. eigenvalues --   -1.59757  -1.39311  -1.19235  -1.09148  -1.08636
 Alpha  occ. eigenvalues --   -1.04635  -1.04302  -0.96793  -0.95478  -0.87842
 Alpha  occ. eigenvalues --   -0.86020  -0.82310  -0.80398  -0.78906  -0.77355
 Alpha  occ. eigenvalues --   -0.71951  -0.71080  -0.70357  -0.65769  -0.64886
 Alpha  occ. eigenvalues --   -0.64643  -0.62002  -0.61685  -0.60185  -0.58368
 Alpha  occ. eigenvalues --   -0.56066  -0.55147  -0.53594  -0.53249  -0.52965
 Alpha  occ. eigenvalues --   -0.52583  -0.50718  -0.48751  -0.48709  -0.48638
 Alpha  occ. eigenvalues --   -0.47382  -0.46459  -0.46346  -0.44723  -0.44538
 Alpha  occ. eigenvalues --   -0.37218  -0.36233
 Alpha virt. eigenvalues --    0.05164   0.11399   0.16658   0.20167   0.22295
 Alpha virt. eigenvalues --    0.23742   0.25580   0.25915   0.26036   0.27384
 Alpha virt. eigenvalues --    0.28720   0.29729   0.30655   0.31624   0.32191

 Mulliken charges:
               1
     1  C   -0.175624
     2  C   -0.226535
     3  C   -0.173211
     4  C    0.159002
     5  C   -0.171623
     6  C   -0.218429
     7  H    0.225568
     8  H    0.240361
     9  H    0.275501
    10  H    0.275047
    11  H    0.222815
    12  N    0.487979
    13  O   -0.460847
    14  O   -0.460699
    15  C   -0.298984
    16  C   -0.300242
    17  C   -0.476115
    18  H    0.150452
    19  H    0.150640
    20  H    0.152685
    21  H    0.152946
    22  H    0.155776
    23  H    0.155625
    24  H    0.161884
    25  C   -0.299606
    26  C   -0.299687
    27  C   -0.485042
    28  H    0.150532
    29  H    0.151357
    30  H    0.154179
    31  H    0.155356
    32  H    0.159924
    33  H    0.153841
    34  H    0.155172
 Sum of Mulliken charges =  -0.00000

 Dipole moment (field-independent basis, Debye):
    X=              4.1258    Y=              3.5310    Z=             -0.2510  Tot=              5.4363
 Quadrupole moment (field-independent basis, Debye-Ang):
   XX=           -124.9169   YY=            -93.5849   ZZ=            -94.5611
   XY=            -18.4912   XZ=              0.7757   YZ=              0.2253

 Normal termination of Gaussian 16 at Thu May  6 04:33:41 2021.
