 Gaussian 16, Revision A.03,
 Gaussian 16:  EM64L-G16RevA.03 25-Dec-2016

 -------------
 #p 6-31g* mp2
 -------------

 ------------------------------------------------------
 Input file generated by CHIRIPA (05-May-2021 14:53:16)
 ------------------------------------------------------
 Symbolic Z-matrix:
 Charge =  0 Multiplicity = 1

                         Standard orientation:
 ---------------------------------------------------------------------
 Center     Atomic      Atomic             Coordinates (Angstroms)
 Number     Number       Type             X           Y           Z
 ---------------------------------------------------------------------
      1          6           0       -4.395841   -0.408724    0.375760
      2          6           0       -5.230329    0.869794    0.459457
      3          6           0       -6.397837    0.750595    1.439514
      4          1           0       -5.044337   -1.243308    0.075979
      5          1           0       -4.012627   -0.654283    1.375882
      6          1           0       -5.610712    1.113631   -0.540777
      7          1           0       -4.579733    1.701469    0.758888
      8          1           0       -6.033215    0.530800    2.448148
      9          1           0       -7.070052   -0.060378    1.141098
     10          1           0       -6.980985    1.675715    1.483673
     11          6           0       -3.224937   -0.305127   -0.599934
     12          6           0       -2.390450   -1.583645   -0.683631
     13          6           0       -1.222942   -1.464446   -1.663687
     14          1           0       -3.608152   -0.059568   -1.600055
     15          1           0       -2.576442    0.529457   -0.300153
     16          1           0       -3.041046   -2.415320   -0.983061
     17          1           0       -2.010067   -1.827482    0.316604
     18          1           0       -0.550727   -0.653474   -1.365272
     19          1           0       -1.587563   -1.244651   -2.672321
     20          1           0       -0.639794   -2.389566   -1.707847
     21          6           0        3.834774   -1.867333    1.099409
     22          6           0        4.207146   -0.636292    1.649319
     23          6           0        3.737839    0.559173    1.096904
     24          6           0        2.893927    0.486333   -0.010253
     25          6           0        2.504968   -0.724637   -0.580826
     26          6           0        2.986370   -1.907505   -0.011948
     27          1           0        4.204041   -2.791106    1.534933
     28          1           0        4.865900   -0.602060    2.512404
     29          1           0        4.010270    1.525921    1.502609
     30          1           0        1.846948   -0.726781   -1.441305
     31          1           0        2.695521   -2.862110   -0.441114
     32          7           0        2.390691    1.745250   -0.603785
     33          8           0        1.648334    1.654079   -1.579095
     34          8           0        2.748141    2.799326   -0.082445
 ---------------------------------------------------------------------

 SCF Done:  E(RHF) =  -669.535646007     A.U. after   15 cycles
 E2 =    -0.2091570660D+01 EUMP2 =    -0.67162721666645D+03

 The electronic state is 1-A.
 Alpha  occ. eigenvalues --  -20.60837 -20.60831 -15.85872 -11.31187 -11.27768
 Alpha  occ. eigenvalues --  -11.27707 -11.27507 -11.26775 -11.26754 -11.21611
 Alpha  occ. eigenvalues --  -11.21393 -11.21237 -11.21165 -11.21153 -11.20907
 Alpha  occ. eigenvalues --   -1.59902  -1.39457  -1.19366  -1.08772  -1.08296
 Alpha  occ. eigenvalues --   -1.04761  -1.03445  -0.95912  -0.95606  -0.86939
 Alpha  occ. eigenvalues --   -0.86158  -0.82441  -0.79517  -0.78089  -0.77489
 Alpha  occ. eigenvalues --   -0.72091  -0.71220  -0.70482  -0.65018  -0.64950
 Alpha  occ. eigenvalues --   -0.64751  -0.62148  -0.60815  -0.59286  -0.57502
 Alpha  occ. eigenvalues --   -0.55355  -0.55107  -0.53099  -0.52911  -0.52601
 Alpha  occ. eigenvalues --   -0.52281  -0.49814  -0.48852  -0.48845  -0.47812
 Alpha  occ. eigenvalues --   -0.46520  -0.45635  -0.45548  -0.44846  -0.43702
 Alpha  occ. eigenvalues --   -0.37353  -0.36350
 Alpha virt. eigenvalues --    0.05000   0.11228   0.16509   0.21037   0.23050
 Alpha virt. eigenvalues --    0.24328   0.26266   0.26855   0.27481   0.28003
 Alpha virt. eigenvalues --    0.29241   0.29833   0.31540   0.31844   0.32381

 Mulliken charges:
               1
     1  C   -0.298351
     2  C   -0.299998
     3  C   -0.475659
     4  H    0.148297
     5  H    0.148243
     6  H    0.152663
     7  H    0.154383
     8  H    0.154434
     9  H    0.154271
    10  H    0.160645
    11  C   -0.299613
    12  C   -0.298964
    13  C   -0.484665
    14  H    0.151208
    15  H    0.156006
    16  H    0.150955
    17  H    0.149763
    18  H    0.166274
    19  H    0.160199
    20  H    0.148556
    21  C   -0.170628
    22  C   -0.218749
    23  C   -0.170825
    24  C    0.156873
    25  C   -0.172509
    26  C   -0.220475
    27  H    0.225587
    28  H    0.223372
    29  H    0.275415
    30  H    0.282407
    31  H    0.223834
    32  N    0.488480
    33  O   -0.461713
    34  O   -0.459715
 Sum of Mulliken charges =  -0.00000

 Dipole moment (field-independent basis, Debye):
    X=              1.7612    Y=             -4.3269    Z=              2.0765  Tot=              5.1123
 Quadrupole moment (field-independent basis, Debye-Ang):
   XX=            -84.2225   YY=            -98.3057   ZZ=            -92.7541
   XY=            -10.5862   XZ=              9.3745   YZ=              3.2114

 Normal termination of Gaussian 16 at Thu May  6 10:39:41 2021.
