 Gaussian 16, Revision A.03,
 Gaussian 16:  EM64L-G16RevA.03 25-Dec-2016

 -------------
 #p 6-31g* mp2
 -------------

 ------------------------------------------------------
 Input file generated by CHIRIPA (05-May-2021 14:51:11)
 ------------------------------------------------------
 Symbolic Z-matrix:
 Charge =  0 Multiplicity = 1

                         Standard orientation:
 ---------------------------------------------------------------------
 Center     Atomic      Atomic             Coordinates (Angstroms)
 Number     Number       Type             X           Y           Z
 ---------------------------------------------------------------------
      1          6           0       -2.265679   -0.973196    0.676720
      2          6           0       -1.098566   -1.803612    0.141705
      3          6           0       -0.227389   -2.385281    1.255486
      4          1           0       -1.872345   -0.158403    1.299894
      5          1           0       -2.881717   -1.600982    1.335337
      6          1           0       -0.485689   -1.174832   -0.516803
      7          1           0       -1.494714   -2.616409   -0.480424
      8          1           0       -0.819493   -3.034852    1.908228
      9          1           0        0.195265   -1.585083    1.871642
     10          1           0        0.600848   -2.975216    0.850691
     11          6           0       -3.145757   -0.384986   -0.424734
     12          6           0       -4.312870    0.445430    0.110281
     13          6           0       -5.184046    1.027098   -1.003500
     14          1           0       -2.529718    0.242800   -1.083351
     15          1           0       -3.539090   -1.199779   -1.047908
     16          1           0       -3.916722    1.258227    0.732410
     17          1           0       -4.925747   -0.183351    0.768789
     18          1           0       -5.606701    0.226901   -1.619656
     19          1           0       -4.591943    1.676669   -1.656242
     20          1           0       -6.012283    1.617034   -0.598704
     21          6           0        3.214070    0.214088   -0.455814
     22          6           0        2.910296   -1.268560   -0.237954
     23          6           0        3.936145   -2.186229   -0.903771
     24          1           0        3.247238    0.420416   -1.534365
     25          1           0        4.216044    0.437364   -0.063906
     26          1           0        1.908638   -1.488675   -0.628908
     27          1           0        2.877658   -1.471344    0.840206
     28          1           0        4.938515   -1.995475   -0.506949
     29          1           0        3.963989   -2.012906   -1.984412
     30          1           0        3.699774   -3.241523   -0.735413
     31          6           0        2.197365    1.144095    0.203828
     32          6           0        2.501139    2.626743   -0.014033
     33          6           0        1.475291    3.544411    0.651785
     34          1           0        1.195392    0.920818   -0.188080
     35          1           0        2.164198    0.937767    1.282379
     36          1           0        2.533777    2.829525   -1.092192
     37          1           0        3.502798    2.846858    0.376922
     38          1           0        1.447446    3.371088    1.732426
     39          1           0        0.472921    3.353657    0.254963
     40          1           0        1.711662    4.599705    0.483426
 ---------------------------------------------------------------------

 SCF Done:  E(RHF) =  -470.731858867     A.U. after   11 cycles
 E2 =    -0.1584737450D+01 EUMP2 =    -0.47231659631761D+03

 The electronic state is 1-A.
 Alpha  occ. eigenvalues --  -11.21647 -11.21604 -11.21581 -11.21495 -11.21440
 Alpha  occ. eigenvalues --  -11.21406 -11.21356 -11.21343 -11.21126 -11.21076
 Alpha  occ. eigenvalues --  -11.21052 -11.20948  -1.08490  -1.08388  -1.03602
 Alpha  occ. eigenvalues --   -1.03457  -0.96013  -0.95948  -0.87051  -0.86940
 Alpha  occ. eigenvalues --   -0.79649  -0.79550  -0.78322  -0.78206  -0.65226
 Alpha  occ. eigenvalues --   -0.64934  -0.61038  -0.60853  -0.59589  -0.59146
 Alpha  occ. eigenvalues --   -0.57752  -0.57413  -0.55290  -0.55254  -0.52721
 Alpha  occ. eigenvalues --   -0.52624  -0.52443  -0.52352  -0.49942  -0.49915
 Alpha  occ. eigenvalues --   -0.47965  -0.47802  -0.46856  -0.46531  -0.46004
 Alpha  occ. eigenvalues --   -0.45819  -0.45659  -0.45303  -0.43823  -0.43723
 Alpha virt. eigenvalues --    0.20496   0.23034   0.23701   0.24431   0.25189
 Alpha virt. eigenvalues --    0.26083   0.26870   0.27470   0.28333   0.29724
 Alpha virt. eigenvalues --    0.30777   0.31010   0.31665   0.31973   0.32475

 Mulliken charges:
               1
     1  C   -0.298443
     2  C   -0.305579
     3  C   -0.477306
     4  H    0.150501
     5  H    0.149728
     6  H    0.155215
     7  H    0.151651
     8  H    0.154142
     9  H    0.156639
    10  H    0.163443
    11  C   -0.298200
    12  C   -0.299710
    13  C   -0.475681
    14  H    0.148484
    15  H    0.149681
    16  H    0.152143
    17  H    0.152055
    18  H    0.155160
    19  H    0.155014
    20  H    0.160353
    21  C   -0.297877
    22  C   -0.306524
    23  C   -0.476016
    24  H    0.149030
    25  H    0.149338
    26  H    0.160387
    27  H    0.153891
    28  H    0.155064
    29  H    0.154892
    30  H    0.159656
    31  C   -0.302029
    32  C   -0.299523
    33  C   -0.475669
    34  H    0.151724
    35  H    0.149614
    36  H    0.152080
    37  H    0.152365
    38  H    0.155173
    39  H    0.154533
    40  H    0.160602
 Sum of Mulliken charges =  -0.00000

 Dipole moment (field-independent basis, Debye):
    X=              0.0107    Y=             -0.0041    Z=              0.0143  Tot=              0.0183
 Quadrupole moment (field-independent basis, Debye-Ang):
   XX=            -85.1788   YY=            -84.9781   ZZ=            -84.7323
   XY=              1.3738   XZ=              0.3015   YZ=             -0.0016

 Normal termination of Gaussian 16 at Thu May  6 00:39:41 2021.
