 Gaussian 16, Revision A.03,
 Gaussian 16:  EM64L-G16RevA.03 25-Dec-2016

 -------------
 #p 6-31g* mp2
 -------------

 ------------------------------------------------------
 Input file generated by CHIRIPA (05-May-2021 14:57:26)
 ------------------------------------------------------
 Symbolic Z-matrix:
 Charge =  0 Multiplicity = 1

                         Standard orientation:
 ---------------------------------------------------------------------
 Center     Atomic      Atomic             Coordinates (Angstroms)
 Number     Number       Type             X           Y           Z
 ---------------------------------------------------------------------
      1          6           0       -3.671879   -1.960826    1.133213
      2          6           0       -3.526717   -1.880829   -0.255689
      3          6           0       -3.218661   -0.662522   -0.868370
      4          6           0       -3.061978    0.460963   -0.058109
      5          6           0       -3.200217    0.413377    1.328223
      6          6           0       -3.508453   -0.815487    1.919350
      7          1           0       -3.911254   -2.911337    1.600786
      8          1           0       -3.653068   -2.768682   -0.868712
      9          1           0       -3.100644   -0.572252   -1.941375
     10          1           0       -3.068278    1.315629    1.912989
     11          1           0       -3.620597   -0.874644    2.998224
     12          7           0       -2.735758    1.756318   -0.695318
     13          8           0       -2.602773    2.731592    0.040749
     14          8           0       -2.619227    1.771816   -1.918763
     15          6           0        1.265140   -1.778191   -0.820273
     16          6           0        0.966018   -0.483598   -0.383153
     17          6           0        1.983358    0.373170    0.047562
     18          6           0        3.294653   -0.099488    0.027855
     19          6           0        3.624564   -1.383894   -0.401969
     20          6           0        2.591121   -2.223424   -0.828273
     21          1           0        0.468591   -2.437053   -1.153149
     22          1           0       -0.062849   -0.135137   -0.375854
     23          1           0        1.779924    1.380191    0.390987
     24          1           0        4.659753   -1.702933   -0.397806
     25          1           0        2.826372   -3.228319   -1.167220
     26          7           0        4.380189    0.798408    0.481498
     27          8           0        5.527368    0.358082    0.454480
     28          8           0        4.063299    1.925504    0.855492
 ---------------------------------------------------------------------

 SCF Done:  E(RHF) =  -868.337406603     A.U. after   16 cycles
 E2 =    -0.2600913146D+01 EUMP2 =    -0.87093831974881D+03

 The electronic state is 1-A.
 Alpha  occ. eigenvalues --  -20.61698 -20.61692 -20.60560 -20.60545 -15.86753
 Alpha  occ. eigenvalues --  -15.85608 -11.32226 -11.30997 -11.28818 -11.28740
 Alpha  occ. eigenvalues --  -11.28481 -11.27816 -11.27723 -11.27596 -11.27516
 Alpha  occ. eigenvalues --  -11.27372 -11.26647 -11.26551  -1.60787  -1.59631
 Alpha  occ. eigenvalues --   -1.40328  -1.39182  -1.20407  -1.19179  -1.09764
 Alpha  occ. eigenvalues --   -1.08583  -1.05787  -1.04581  -0.96573  -0.95409
 Alpha  occ. eigenvalues --   -0.87171  -0.85987  -0.83382  -0.82237  -0.78432
 Alpha  occ. eigenvalues --   -0.77273  -0.72941  -0.72161  -0.71826  -0.71437
 Alpha  occ. eigenvalues --   -0.70954  -0.70315  -0.66017  -0.65745  -0.64835
 Alpha  occ. eigenvalues --   -0.64606  -0.63106  -0.61933  -0.56234  -0.55135
 Alpha  occ. eigenvalues --   -0.54179  -0.53841  -0.52917  -0.52624  -0.49720
 Alpha  occ. eigenvalues --   -0.49703  -0.48591  -0.48578  -0.45692  -0.44582
 Alpha  occ. eigenvalues --   -0.38368  -0.37409  -0.37186  -0.36176
 Alpha virt. eigenvalues --    0.04054   0.05259   0.10209   0.11476   0.15535
 Alpha virt. eigenvalues --    0.16737   0.20491   0.21364   0.26384   0.26859
 Alpha virt. eigenvalues --    0.27463   0.28419   0.29969   0.30984   0.31670

 Mulliken charges:
               1
     1  C   -0.170385
     2  C   -0.219837
     3  C   -0.180174
     4  C    0.150920
     5  C   -0.172588
     6  C   -0.216798
     7  H    0.229290
     8  H    0.225077
     9  H    0.277470
    10  H    0.279825
    11  H    0.228389
    12  N    0.487824
    13  O   -0.456178
    14  O   -0.458099
    15  C   -0.172745
    16  C   -0.218117
    17  C   -0.172410
    18  C    0.158665
    19  C   -0.171513
    20  C   -0.218600
    21  H    0.220060
    22  H    0.225712
    23  H    0.280401
    24  H    0.274850
    25  H    0.221242
    26  N    0.487938
    27  O   -0.461769
    28  O   -0.458448
 Sum of Mulliken charges =  -0.00000

 Dipole moment (field-independent basis, Debye):
    X=             -5.2242    Y=             -7.6253    Z=              0.7942  Tot=              9.2773
 Quadrupole moment (field-independent basis, Debye-Ang):
   XX=           -121.3012   YY=           -105.5096   ZZ=           -101.5998
   XY=              1.0337   XZ=            -13.3532   YZ=              4.2740

 Normal termination of Gaussian 16 at Wed May  5 19:36:09 2021.
