 Gaussian 16, Revision A.03,
 Gaussian 16:  EM64L-G16RevA.03 25-Dec-2016

 -------------
 #p 6-31g* mp2
 -------------

 ------------------------------------------------------
 Input file generated by CHIRIPA (05-May-2021 14:57:20)
 ------------------------------------------------------
 Symbolic Z-matrix:
 Charge =  0 Multiplicity = 1

                         Standard orientation:
 ---------------------------------------------------------------------
 Center     Atomic      Atomic             Coordinates (Angstroms)
 Number     Number       Type             X           Y           Z
 ---------------------------------------------------------------------
      1          6           0       -2.250763    2.137127    0.729394
      2          6           0       -2.871524    2.016097   -0.518215
      3          6           0       -3.527374    0.833560   -0.873201
      4          6           0       -3.543095   -0.212703    0.047874
      5          6           0       -2.933900   -0.122690    1.298502
      6          6           0       -2.283874    1.069229    1.632179
      7          1           0       -1.743545    3.059394    0.996879
      8          1           0       -2.847407    2.843802   -1.221328
      9          1           0       -4.016140    0.712886   -1.832348
     10          1           0       -2.974771   -0.965047    1.978341
     11          1           0       -1.802641    1.160395    2.601792
     12          7           0       -4.234331   -1.469568   -0.316655
     13          8           0       -4.233973   -2.376755    0.512591
     14          8           0       -4.763392   -1.523714   -1.424716
     15          6           0        1.162366    1.080572   -0.376024
     16          6           0        1.579737    0.631227    0.881121
     17          6           0        2.833642    0.034079    1.041375
     18          6           0        3.648317   -0.098372   -0.082036
     19          6           0        3.260894    0.339262   -1.347607
     20          6           0        2.002796    0.933414   -1.484421
     21          1           0        0.186674    1.543288   -0.491409
     22          1           0        0.929145    0.744201    1.743682
     23          1           0        3.181828   -0.322666    2.003102
     24          1           0        3.931526    0.212839   -2.188849
     25          1           0        1.681288    1.281452   -2.461943
     26          7           0        4.977990   -0.728962    0.075210
     27          8           0        5.677069   -0.833996   -0.930221
     28          8           0        5.295932   -1.106240    1.200915
 ---------------------------------------------------------------------

 SCF Done:  E(RHF) =  -868.336442732     A.U. after   16 cycles
 E2 =    -0.2602223380D+01 EUMP2 =    -0.87093866611187D+03

 The electronic state is 1-A.
 Alpha  occ. eigenvalues --  -20.61627 -20.61620 -20.60935 -20.60929 -15.86691
 Alpha  occ. eigenvalues --  -15.85993 -11.32353 -11.31398 -11.28964 -11.28960
 Alpha  occ. eigenvalues --  -11.28800 -11.28077 -11.28049 -11.28015 -11.27978
 Alpha  occ. eigenvalues --  -11.27630 -11.27042 -11.26978  -1.60695  -1.60010
 Alpha  occ. eigenvalues --   -1.40240  -1.39562  -1.20590  -1.19583  -1.09955
 Alpha  occ. eigenvalues --   -1.08958  -1.06019  -1.05008  -0.96717  -0.95785
 Alpha  occ. eigenvalues --   -0.87411  -0.86399  -0.83526  -0.82632  -0.78501
 Alpha  occ. eigenvalues --   -0.77680  -0.72903  -0.72209  -0.72022  -0.71707
 Alpha  occ. eigenvalues --   -0.71334  -0.70685  -0.66229  -0.66035  -0.65235
 Alpha  occ. eigenvalues --   -0.65037  -0.63331  -0.62364  -0.56542  -0.55738
 Alpha  occ. eigenvalues --   -0.54114  -0.54072  -0.53312  -0.53097  -0.49685
 Alpha  occ. eigenvalues --   -0.49638  -0.48973  -0.48961  -0.45579  -0.44959
 Alpha  occ. eigenvalues --   -0.38593  -0.37682  -0.37498  -0.36614
 Alpha virt. eigenvalues --    0.03998   0.04880   0.09825   0.11030   0.15362
 Alpha virt. eigenvalues --    0.16349   0.19231   0.21928   0.24847   0.26836
 Alpha virt. eigenvalues --    0.27819   0.28983   0.29558   0.30901   0.32046

 Mulliken charges:
               1
     1  C   -0.186266
     2  C   -0.222953
     3  C   -0.168484
     4  C    0.160487
     5  C   -0.168041
     6  C   -0.220198
     7  H    0.229775
     8  H    0.227056
     9  H    0.279818
    10  H    0.280400
    11  H    0.224435
    12  N    0.487995
    13  O   -0.456431
    14  O   -0.457318
    15  C   -0.174375
    16  C   -0.221663
    17  C   -0.170246
    18  C    0.158272
    19  C   -0.169700
    20  C   -0.220704
    21  H    0.231314
    22  H    0.214372
    23  H    0.275280
    24  H    0.276331
    25  H    0.222746
    26  N    0.488113
    27  O   -0.459635
    28  O   -0.460378
 Sum of Mulliken charges =  -0.00000

 Dipole moment (field-independent basis, Debye):
    X=             -2.6099    Y=              6.4884    Z=              0.6674  Tot=              7.0254
 Quadrupole moment (field-independent basis, Debye-Ang):
   XX=           -155.9865   YY=           -107.6267   ZZ=            -95.9520
   XY=             -7.9775   XZ=             -5.8883   YZ=             -2.9975

 Normal termination of Gaussian 16 at Thu May  6 12:47:33 2021.
