 Gaussian 16, Revision A.03,
 Gaussian 16:  EM64L-G16RevA.03 25-Dec-2016

 -------------
 #p 6-31g* mp2
 -------------

 ------------------------------------------------------
 Input file generated by CHIRIPA (05-May-2021 14:53:18)
 ------------------------------------------------------
 Symbolic Z-matrix:
 Charge =  0 Multiplicity = 1

                         Standard orientation:
 ---------------------------------------------------------------------
 Center     Atomic      Atomic             Coordinates (Angstroms)
 Number     Number       Type             X           Y           Z
 ---------------------------------------------------------------------
      1          6           0       -3.808925   -0.181693    0.682789
      2          6           0       -2.524017   -0.955793    0.386536
      3          6           0       -1.497659   -0.851737    1.515055
      4          1           0       -3.561112    0.874036    0.858775
      5          1           0       -4.249233   -0.559179    1.616078
      6          1           0       -2.086998   -0.577898   -0.546644
      7          1           0       -2.774939   -2.009765    0.211046
      8          1           0       -1.910386   -1.247140    2.448819
      9          1           0       -1.218536    0.192862    1.686823
     10          1           0       -0.586946   -1.412396    1.282411
     11          6           0       -4.844716   -0.276128   -0.436115
     12          6           0       -6.129624    0.497972   -0.139862
     13          6           0       -7.155982    0.393917   -1.268381
     14          1           0       -4.404408    0.101358   -1.369403
     15          1           0       -5.092529   -1.331856   -0.612101
     16          1           0       -5.878702    1.551945    0.035629
     17          1           0       -6.566643    0.120078    0.793319
     18          1           0       -7.435105   -0.650682   -1.440149
     19          1           0       -6.743255    0.789320   -2.202144
     20          1           0       -8.066695    0.954576   -1.035736
     21          6           0        2.697586    2.575868    0.296104
     22          6           0        3.887346    2.288811   -0.381090
     23          6           0        4.275556    0.964397   -0.604179
     24          6           0        3.446333   -0.052900   -0.134299
     25          6           0        2.255050    0.200959    0.543705
     26          6           0        1.886666    1.532865    0.755531
     27          1           0        2.403716    3.607614    0.465030
     28          1           0        4.519086    3.096798   -0.739010
     29          1           0        5.191425    0.713807   -1.125529
     30          1           0        1.646040   -0.625798    0.888664
     31          1           0        0.962137    1.752823    1.281753
     32          7           0        3.846820   -1.458963   -0.364511
     33          8           0        3.098763   -2.337206    0.059444
     34          8           0        4.901193   -1.656168   -0.964547
 ---------------------------------------------------------------------

 SCF Done:  E(RHF) =  -669.535380092     A.U. after   15 cycles
 E2 =    -0.2091402892D+01 EUMP2 =    -0.67162678298464D+03

 The electronic state is 1-A.
 Alpha  occ. eigenvalues --  -20.60733 -20.60728 -15.85784 -11.31121 -11.27705
 Alpha  occ. eigenvalues --  -11.27655 -11.27450 -11.26721 -11.26691 -11.22067
 Alpha  occ. eigenvalues --  -11.21871 -11.21847 -11.21801 -11.21671 -11.21281
 Alpha  occ. eigenvalues --   -1.59808  -1.39362  -1.19301  -1.08810  -1.08704
 Alpha  occ. eigenvalues --   -1.04702  -1.03941  -0.96421  -0.95540  -0.87445
 Alpha  occ. eigenvalues --   -0.86104  -0.82372  -0.80005  -0.78599  -0.77419
 Alpha  occ. eigenvalues --   -0.72005  -0.71130  -0.70425  -0.65444  -0.64953
 Alpha  occ. eigenvalues --   -0.64725  -0.62134  -0.61303  -0.59765  -0.58007
 Alpha  occ. eigenvalues --   -0.55722  -0.55206  -0.53210  -0.53031  -0.52932
 Alpha  occ. eigenvalues --   -0.52591  -0.50355  -0.48762  -0.48759  -0.48313
 Alpha  occ. eigenvalues --   -0.47020  -0.46151  -0.46058  -0.44773  -0.44186
 Alpha  occ. eigenvalues --   -0.37291  -0.36300
 Alpha virt. eigenvalues --    0.05105   0.11341   0.16587   0.19849   0.22725
 Alpha virt. eigenvalues --    0.23848   0.25330   0.26170   0.26603   0.27626
 Alpha virt. eigenvalues --    0.28760   0.29757   0.31433   0.31611   0.32313

 Mulliken charges:
               1
     1  C   -0.298634
     2  C   -0.299285
     3  C   -0.484971
     4  H    0.146530
     5  H    0.150897
     6  H    0.153528
     7  H    0.157829
     8  H    0.161337
     9  H    0.145459
    10  H    0.166094
    11  C   -0.298741
    12  C   -0.299791
    13  C   -0.475927
    14  H    0.150045
    15  H    0.151811
    16  H    0.150881
    17  H    0.152524
    18  H    0.156321
    19  H    0.155411
    20  H    0.160739
    21  C   -0.170913
    22  C   -0.218928
    23  C   -0.170353
    24  C    0.158666
    25  C   -0.177260
    26  C   -0.224223
    27  H    0.225365
    28  H    0.223132
    29  H    0.275375
    30  H    0.284833
    31  H    0.226349
    32  N    0.487440
    33  O   -0.461037
    34  O   -0.460503
 Sum of Mulliken charges =  -0.00000

 Dipole moment (field-independent basis, Debye):
    X=             -1.5818    Y=              4.8638    Z=              0.7892  Tot=              5.1750
 Quadrupole moment (field-independent basis, Debye-Ang):
   XX=           -101.4603   YY=            -94.5649   ZZ=            -94.9233
   XY=             19.4135   XZ=             -0.0177   YZ=             -2.0017

 Normal termination of Gaussian 16 at Thu May  6 13:59:52 2021.
