 Gaussian 16, Revision A.03,
 Gaussian 16:  EM64L-G16RevA.03 25-Dec-2016

 -------------
 #p 6-31g* mp2
 -------------

 ------------------------------------------------------
 Input file generated by CHIRIPA (05-May-2021 14:53:12)
 ------------------------------------------------------
 Symbolic Z-matrix:
 Charge =  0 Multiplicity = 1

                         Standard orientation:
 ---------------------------------------------------------------------
 Center     Atomic      Atomic             Coordinates (Angstroms)
 Number     Number       Type             X           Y           Z
 ---------------------------------------------------------------------
      1          6           0        3.393378   -0.431543   -0.615788
      2          6           0        2.305280    0.621376   -0.828833
      3          6           0        0.996043    0.022661   -1.343841
      4          1           0        3.576477   -0.957237   -1.562924
      5          1           0        3.029469   -1.186131    0.095242
      6          1           0        2.671652    1.374503   -1.538190
      7          1           0        2.124885    1.144755    0.118874
      8          1           0        0.604446   -0.714338   -0.635260
      9          1           0        1.154320   -0.483284   -2.301740
     10          1           0        0.232131    0.792851   -1.489117
     11          6           0        4.708205    0.151595   -0.101095
     12          6           0        5.796303   -0.901324    0.111950
     13          6           0        7.105539   -0.302609    0.626958
     14          1           0        5.072113    0.906183   -0.812125
     15          1           0        4.525105    0.677289    0.846040
     16          1           0        5.976697   -1.424703   -0.835757
     17          1           0        5.429931   -1.654451    0.821307
     18          1           0        6.947262    0.203336    1.584856
     19          1           0        7.497136    0.434390   -0.081623
     20          1           0        7.869451   -1.072800    0.772233
     21          6           0       -1.287808    1.652757    0.959137
     22          6           0       -1.385358    0.377687    1.525883
     23          6           0       -2.421112   -0.485881    1.157084
     24          6           0       -3.346129   -0.039855    0.214380
     25          6           0       -3.275834    1.224643   -0.368194
     26          6           0       -2.231694    2.071428    0.015572
     27          1           0       -0.479953    2.317078    1.251443
     28          1           0       -0.653748    0.049868    2.258910
     29          1           0       -2.520362   -1.478191    1.580036
     30          1           0       -4.020145    1.523270   -1.096370
     31          1           0       -2.158423    3.061120   -0.426226
     32          7           0       -4.447075   -0.945193   -0.183973
     33          8           0       -5.249347   -0.528470   -1.016643
     34          8           0       -4.486877   -2.054376    0.344009
 ---------------------------------------------------------------------

 SCF Done:  E(RHF) =  -669.534616869     A.U. after   15 cycles
 E2 =    -0.2093059884D+01 EUMP2 =    -0.67162767675285D+03

 The electronic state is 1-A.
 Alpha  occ. eigenvalues --  -20.60782 -20.60777 -15.85838 -11.31223 -11.27814
 Alpha  occ. eigenvalues --  -11.27806 -11.27532 -11.26811 -11.26796 -11.22175
 Alpha  occ. eigenvalues --  -11.21989 -11.21880 -11.21818 -11.21421 -11.21289
 Alpha  occ. eigenvalues --   -1.59857  -1.39410  -1.19408  -1.08905  -1.08785
 Alpha  occ. eigenvalues --   -1.04818  -1.03948  -0.96371  -0.95622  -0.87379
 Alpha  occ. eigenvalues --   -0.86212  -0.82460  -0.80020  -0.78712  -0.77502
 Alpha  occ. eigenvalues --   -0.72056  -0.71180  -0.70516  -0.65537  -0.65060
 Alpha  occ. eigenvalues --   -0.64818  -0.62165  -0.61366  -0.59775  -0.58010
 Alpha  occ. eigenvalues --   -0.55716  -0.55311  -0.53515  -0.52909  -0.52820
 Alpha  occ. eigenvalues --   -0.52569  -0.50269  -0.48817  -0.48809  -0.48334
 Alpha  occ. eigenvalues --   -0.47071  -0.46248  -0.46184  -0.44812  -0.44202
 Alpha  occ. eigenvalues --   -0.37301  -0.36390
 Alpha virt. eigenvalues --    0.05014   0.11149   0.16439   0.20471   0.22639
 Alpha virt. eigenvalues --    0.24072   0.25845   0.26601   0.27319   0.27607
 Alpha virt. eigenvalues --    0.28461   0.30522   0.31177   0.31532   0.31967

 Mulliken charges:
               1
     1  C   -0.297763
     2  C   -0.300114
     3  C   -0.476469
     4  H    0.152801
     5  H    0.148150
     6  H    0.152478
     7  H    0.140290
     8  H    0.155459
     9  H    0.155922
    10  H    0.161831
    11  C   -0.298007
    12  C   -0.299887
    13  C   -0.475840
    14  H    0.150260
    15  H    0.146692
    16  H    0.153507
    17  H    0.151853
    18  H    0.154443
    19  H    0.155688
    20  H    0.161614
    21  C   -0.166724
    22  C   -0.216147
    23  C   -0.171270
    24  C    0.159268
    25  C   -0.170164
    26  C   -0.220625
    27  H    0.226568
    28  H    0.223201
    29  H    0.275759
    30  H    0.275976
    31  H    0.223829
    32  N    0.488120
    33  O   -0.460317
    34  O   -0.460383
 Sum of Mulliken charges =  -0.00000

 Dipole moment (field-independent basis, Debye):
    X=              3.8492    Y=              3.1693    Z=              1.3851  Tot=              5.1749
 Quadrupole moment (field-independent basis, Debye-Ang):
   XX=           -121.5098   YY=            -92.9900   ZZ=            -91.8977
   XY=            -12.7389   XZ=             -3.4221   YZ=             -2.1081

 Normal termination of Gaussian 16 at Thu May  6 07:20:32 2021.
