 Gaussian 16, Revision A.03,
 Gaussian 16:  EM64L-G16RevA.03 25-Dec-2016

 -------------
 #p 6-31g* mp2
 -------------

 ------------------------------------------------------
 Input file generated by CHIRIPA (05-May-2021 14:51:10)
 ------------------------------------------------------
 Symbolic Z-matrix:
 Charge =  0 Multiplicity = 1

                         Standard orientation:
 ---------------------------------------------------------------------
 Center     Atomic      Atomic             Coordinates (Angstroms)
 Number     Number       Type             X           Y           Z
 ---------------------------------------------------------------------
      1          6           0       -3.786120    1.087615   -0.101944
      2          6           0       -2.360906    1.638217   -0.042059
      3          6           0       -2.315479    3.166120   -0.077325
      4          1           0       -4.273979    1.449339   -1.017419
      5          1           0       -4.363721    1.492089    0.740774
      6          1           0       -1.785779    1.231735   -0.883853
      7          1           0       -1.876320    1.274984    0.873284
      8          1           0       -2.865339    3.587544    0.770412
      9          1           0       -2.774284    3.544049   -0.996710
     10          1           0       -1.287172    3.538308   -0.033500
     11          6           0       -3.847968   -0.438400   -0.067571
     12          6           0       -5.273182   -0.989003   -0.127456
     13          6           0       -5.318610   -2.516906   -0.092190
     14          1           0       -3.270368   -0.842875   -0.910289
     15          1           0       -3.360110   -0.800125    0.847904
     16          1           0       -5.757769   -0.625770   -1.042799
     17          1           0       -5.848309   -0.582521    0.714338
     18          1           0       -4.859805   -2.894835    0.827195
     19          1           0       -4.768750   -2.938330   -0.939927
     20          1           0       -6.346917   -2.889093   -0.136015
     21          6           0        4.475172   -0.623356   -0.162324
     22          6           0        5.679451    0.290863    0.065490
     23          6           0        6.988757   -0.320660   -0.434060
     24          1           0        4.650118   -1.582595    0.343836
     25          1           0        4.390893   -0.846707   -1.234894
     26          1           0        5.760613    0.513542    1.137144
     27          1           0        5.501534    1.248107   -0.441112
     28          1           0        6.932598   -0.526983   -1.507782
     29          1           0        7.193150   -1.265721    0.079442
     30          1           0        7.836554    0.349597   -0.261274
     31          6           0        3.158917   -0.025858    0.331839
     32          6           0        1.954638   -0.940078    0.104025
     33          6           0        0.645332   -0.328554    0.603575
     34          1           0        3.243196    0.197493    1.404409
     35          1           0        2.983971    0.933381   -0.174321
     36          1           0        2.132555   -1.897322    0.610626
     37          1           0        1.873475   -1.162757   -0.967629
     38          1           0        0.440939    0.616507    0.090073
     39          1           0        0.701490   -0.122232    1.677296
     40          1           0       -0.202466   -0.998812    0.430789
 ---------------------------------------------------------------------

 SCF Done:  E(RHF) =  -470.732235403     A.U. after   11 cycles
 E2 =    -0.1583306037D+01 EUMP2 =    -0.47231554144090D+03

 The electronic state is 1-A.
 Alpha  occ. eigenvalues --  -11.21587 -11.21585 -11.21530 -11.21457 -11.21379
 Alpha  occ. eigenvalues --  -11.21368 -11.21319 -11.21298 -11.21063 -11.21061
 Alpha  occ. eigenvalues --  -11.21027 -11.20931  -1.08416  -1.08371  -1.03542
 Alpha  occ. eigenvalues --   -1.03439  -0.95974  -0.95916  -0.87032  -0.86901
 Alpha  occ. eigenvalues --   -0.79759  -0.79391  -0.78281  -0.78105  -0.65044
 Alpha  occ. eigenvalues --   -0.65007  -0.60933  -0.60858  -0.59379  -0.59258
 Alpha  occ. eigenvalues --   -0.57692  -0.57432  -0.55246  -0.55213  -0.52763
 Alpha  occ. eigenvalues --   -0.52550  -0.52412  -0.52309  -0.49945  -0.49866
 Alpha  occ. eigenvalues --   -0.48068  -0.47655  -0.46643  -0.46534  -0.45874
 Alpha  occ. eigenvalues --   -0.45723  -0.45629  -0.45506  -0.43769  -0.43662
 Alpha virt. eigenvalues --    0.22132   0.23021   0.23742   0.24570   0.25808
 Alpha virt. eigenvalues --    0.26442   0.26814   0.27025   0.27846   0.29324
 Alpha virt. eigenvalues --    0.30730   0.30957   0.31614   0.31810   0.32263

 Mulliken charges:
               1
     1  C   -0.297885
     2  C   -0.303255
     3  C   -0.476570
     4  H    0.148975
     5  H    0.149042
     6  H    0.152351
     7  H    0.159398
     8  H    0.155070
     9  H    0.154739
    10  H    0.159580
    11  C   -0.299246
    12  C   -0.299568
    13  C   -0.475712
    14  H    0.149354
    15  H    0.150247
    16  H    0.151939
    17  H    0.151953
    18  H    0.155101
    19  H    0.155045
    20  H    0.160237
    21  C   -0.298154
    22  C   -0.299595
    23  C   -0.475679
    24  H    0.149627
    25  H    0.149394
    26  H    0.151864
    27  H    0.151843
    28  H    0.155137
    29  H    0.155160
    30  H    0.160190
    31  C   -0.298269
    32  C   -0.300900
    33  C   -0.478748
    34  H    0.149311
    35  H    0.149307
    36  H    0.151285
    37  H    0.151266
    38  H    0.160979
    39  H    0.153021
    40  H    0.162168
 Sum of Mulliken charges =  -0.00000

 Dipole moment (field-independent basis, Debye):
    X=             -0.0174    Y=              0.0056    Z=              0.0099  Tot=              0.0208
 Quadrupole moment (field-independent basis, Debye-Ang):
   XX=            -86.0800   YY=            -86.0262   ZZ=            -82.9763
   XY=              0.0830   XZ=              0.3597   YZ=             -0.4305

 Normal termination of Gaussian 16 at Wed May  5 18:12:07 2021.
