 Gaussian 16, Revision A.03,
 Gaussian 16:  EM64L-G16RevA.03 25-Dec-2016

 -------------
 #p 6-31g* mp2
 -------------

 ------------------------------------------------------
 Input file generated by CHIRIPA (05-May-2021 14:55:21)
 ------------------------------------------------------
 Symbolic Z-matrix:
 Charge =  0 Multiplicity = 1

                         Standard orientation:
 ---------------------------------------------------------------------
 Center     Atomic      Atomic             Coordinates (Angstroms)
 Number     Number       Type             X           Y           Z
 ---------------------------------------------------------------------
      1          6           0        2.377504    2.335890    0.488429
      2          6           0        3.419824    2.173452   -0.430105
      3          6           0        3.998963    0.917107   -0.631954
      4          6           0        3.508940   -0.159936    0.105030
      5          6           0        2.471804   -0.030107    1.027409
      6          6           0        1.907649    1.235532    1.212977
      7          1           0        1.933435    3.315459    0.638907
      8          1           0        3.786745    3.026222   -0.994195
      9          1           0        4.807086    0.763106   -1.336680
     10          1           0        2.127377   -0.898971    1.575007
     11          1           0        1.098295    1.358723    1.926990
     12          7           0        4.114117   -1.494892   -0.100041
     13          8           0        3.664390   -2.427912    0.561667
     14          8           0        5.026721   -1.582933   -0.918599
     15          6           0       -5.082373    0.120463   -0.345315
     16          6           0       -6.128669   -0.723723    0.383109
     17          6           0       -7.561438   -0.316900    0.037478
     18          1           0       -5.235153    1.179049   -0.094320
     19          1           0       -5.238715    0.030512   -1.429225
     20          1           0       -5.969537   -0.633303    1.465291
     21          1           0       -5.973261   -1.780441    0.130502
     22          1           0       -7.743913   -0.424272   -1.036662
     23          1           0       -7.740168    0.729383    0.305711
     24          1           0       -8.293115   -0.933190    0.569168
     25          6           0       -3.645177   -0.274269   -0.010085
     26          6           0       -2.598881    0.569915   -0.738509
     27          6           0       -1.166113    0.163093   -0.392877
     28          1           0       -3.488836   -0.184319    1.073825
     29          1           0       -3.492397   -1.332855   -0.261080
     30          1           0       -2.754289    1.626634   -0.485902
     31          1           0       -2.758013    0.479497   -1.820691
     32          1           0       -0.987382   -0.883189   -0.661111
     33          1           0       -0.983637    0.270466    0.681262
     34          1           0       -0.434435    0.779383   -0.924567
 ---------------------------------------------------------------------

 SCF Done:  E(RHF) =  -669.534904624     A.U. after   15 cycles
 E2 =    -0.2091902701D+01 EUMP2 =    -0.67162680732484D+03

 The electronic state is 1-A.
 Alpha  occ. eigenvalues --  -20.60740 -20.60734 -15.85792 -11.31159 -11.27712
 Alpha  occ. eigenvalues --  -11.27699 -11.27458 -11.26758 -11.26732 -11.21967
 Alpha  occ. eigenvalues --  -11.21819 -11.21707 -11.21628 -11.21459 -11.21259
 Alpha  occ. eigenvalues --   -1.59814  -1.39368  -1.19330  -1.08743  -1.08714
 Alpha  occ. eigenvalues --   -1.04738  -1.03826  -0.96279  -0.95561  -0.87304
 Alpha  occ. eigenvalues --   -0.86128  -0.82396  -0.79897  -0.78537  -0.77437
 Alpha  occ. eigenvalues --   -0.72011  -0.71136  -0.70435  -0.65370  -0.64983
 Alpha  occ. eigenvalues --   -0.64746  -0.62102  -0.61220  -0.59651  -0.57885
 Alpha  occ. eigenvalues --   -0.55598  -0.55230  -0.53401  -0.52860  -0.52684
 Alpha  occ. eigenvalues --   -0.52609  -0.50216  -0.48770  -0.48765  -0.48211
 Alpha  occ. eigenvalues --   -0.46933  -0.46079  -0.46003  -0.44773  -0.44077
 Alpha  occ. eigenvalues --   -0.37301  -0.36265
 Alpha virt. eigenvalues --    0.05078   0.11314   0.16518   0.20784   0.22659
 Alpha virt. eigenvalues --    0.24010   0.25850   0.26580   0.27348   0.28312
 Alpha virt. eigenvalues --    0.28529   0.30083   0.31344   0.31678   0.32214

 Mulliken charges:
               1
     1  C   -0.173365
     2  C   -0.218611
     3  C   -0.171623
     4  C    0.158394
     5  C   -0.169776
     6  C   -0.211848
     7  H    0.225375
     8  H    0.223281
     9  H    0.275371
    10  H    0.275609
    11  H    0.223233
    12  N    0.488063
    13  O   -0.460381
    14  O   -0.460591
    15  C   -0.298298
    16  C   -0.299856
    17  C   -0.475836
    18  H    0.148582
    19  H    0.150536
    20  H    0.151464
    21  H    0.153244
    22  H    0.155757
    23  H    0.154727
    24  H    0.161061
    25  C   -0.298356
    26  C   -0.300597
    27  C   -0.474996
    28  H    0.147260
    29  H    0.152177
    30  H    0.148529
    31  H    0.154011
    32  H    0.159831
    33  H    0.144011
    34  H    0.163619
 Sum of Mulliken charges =  -0.00000

 Dipole moment (field-independent basis, Debye):
    X=             -2.1627    Y=              4.6748    Z=              0.6839  Tot=              5.1961
 Quadrupole moment (field-independent basis, Debye-Ang):
   XX=           -109.4444   YY=            -95.6765   ZZ=            -92.1800
   XY=             18.7054   XZ=             -0.1763   YZ=             -0.5501

 Normal termination of Gaussian 16 at Wed May  5 17:25:44 2021.
