 Gaussian 16, Revision A.03,
 Gaussian 16:  EM64L-G16RevA.03 25-Dec-2016

 -------------
 #p 6-31g* mp2
 -------------

 ------------------------------------------------------
 Input file generated by CHIRIPA (05-May-2021 14:57:23)
 ------------------------------------------------------
 Symbolic Z-matrix:
 Charge =  0 Multiplicity = 1

                         Standard orientation:
 ---------------------------------------------------------------------
 Center     Atomic      Atomic             Coordinates (Angstroms)
 Number     Number       Type             X           Y           Z
 ---------------------------------------------------------------------
      1          6           0       -3.607693   -2.451186   -0.387802
      2          6           0       -4.761673   -1.660713   -0.385698
      3          6           0       -4.668987   -0.269291   -0.286193
      4          6           0       -3.400582    0.300947   -0.189916
      5          6           0       -2.232328   -0.459626   -0.189328
      6          6           0       -2.348923   -1.849181   -0.289784
      7          1           0       -3.688981   -3.531351   -0.465469
      8          1           0       -5.740570   -2.125505   -0.461692
      9          1           0       -5.546022    0.366485   -0.282195
     10          1           0       -1.270413    0.032504   -0.112227
     11          1           0       -1.451015   -2.460575   -0.291170
     12          7           0       -3.289804    1.772995   -0.084071
     13          8           0       -2.160605    2.251058   -0.000388
     14          8           0       -4.334272    2.420850   -0.086798
     15          6           0        5.500832    0.320037   -1.166710
     16          6           0        4.749804    1.411721   -0.718708
     17          6           0        3.594485    1.213928    0.043304
     18          6           0        3.217561   -0.094915    0.340200
     19          6           0        3.944726   -1.203106   -0.091580
     20          6           0        5.096608   -0.981597   -0.852270
     21          1           0        6.396976    0.482898   -1.758146
     22          1           0        5.061342    2.423696   -0.961391
     23          1           0        2.994445    2.040968    0.402992
     24          1           0        3.609014   -2.200205    0.166310
     25          1           0        5.677915   -1.831312   -1.198845
     26          7           0        1.996295   -0.316863    1.146209
     27          8           0        1.685464   -1.479823    1.394291
     28          8           0        1.373024    0.676337    1.514616
 ---------------------------------------------------------------------

 SCF Done:  E(RHF) =  -868.339226437     A.U. after   16 cycles
 E2 =    -0.2599103549D+01 EUMP2 =    -0.87093832998552D+03

 The electronic state is 1-A.
 Alpha  occ. eigenvalues --  -20.61306 -20.61211 -20.59881 -20.59845 -15.86271
 Alpha  occ. eigenvalues --  -15.84914 -11.31448 -11.30203 -11.28039 -11.27941
 Alpha  occ. eigenvalues --  -11.27713 -11.26995 -11.26930 -11.26844 -11.26653
 Alpha  occ. eigenvalues --  -11.26563 -11.25868 -11.25694  -1.60335  -1.58945
 Alpha  occ. eigenvalues --   -1.39881  -1.38496  -1.19608  -1.18384  -1.09043
 Alpha  occ. eigenvalues --   -1.07810  -1.04976  -1.03762  -0.95901  -0.94649
 Alpha  occ. eigenvalues --   -0.86384  -0.85174  -0.82729  -0.81470  -0.77803
 Alpha  occ. eigenvalues --   -0.76511  -0.72471  -0.71663  -0.71137  -0.70709
 Alpha  occ. eigenvalues --   -0.70266  -0.69508  -0.65258  -0.64974  -0.64038
 Alpha  occ. eigenvalues --   -0.63767  -0.62318  -0.61091  -0.55489  -0.54318
 Alpha  occ. eigenvalues --   -0.53324  -0.53061  -0.52120  -0.51851  -0.49263
 Alpha  occ. eigenvalues --   -0.49227  -0.47906  -0.47881  -0.45310  -0.43917
 Alpha  occ. eigenvalues --   -0.37586  -0.36570  -0.36401  -0.35358
 Alpha virt. eigenvalues --    0.04669   0.06002   0.11085   0.12285   0.16189
 Alpha virt. eigenvalues --    0.17491   0.21242   0.22389   0.27186   0.27958
 Alpha virt. eigenvalues --    0.28431   0.29182   0.30875   0.31840   0.32412

 Mulliken charges:
               1
     1  C   -0.171503
     2  C   -0.219402
     3  C   -0.172097
     4  C    0.155988
     5  C   -0.169494
     6  C   -0.219347
     7  H    0.222229
     8  H    0.219493
     9  H    0.272375
    10  H    0.283881
    11  H    0.228865
    12  N    0.487585
    13  O   -0.456961
    14  O   -0.465578
    15  C   -0.170029
    16  C   -0.218712
    17  C   -0.170034
    18  C    0.156464
    19  C   -0.171781
    20  C   -0.218711
    21  H    0.226833
    22  H    0.226223
    23  H    0.281589
    24  H    0.273204
    25  H    0.223502
    26  N    0.484917
    27  O   -0.467887
    28  O   -0.451610
 Sum of Mulliken charges =  -0.00000

 Dipole moment (field-independent basis, Debye):
    X=              4.3409    Y=             -4.2413    Z=             -3.1502  Tot=              6.8378
 Quadrupole moment (field-independent basis, Debye-Ang):
   XX=            -70.8265   YY=           -103.9544   ZZ=           -108.2734
   XY=             18.9885   XZ=             -6.7028   YZ=              1.7862

 Normal termination of Gaussian 16 at Thu May  6 06:36:53 2021.
