 Gaussian 16, Revision A.03,
 Gaussian 16:  EM64L-G16RevA.03 25-Dec-2016

 -------------
 #p 6-31g* mp2
 -------------

 ------------------------------------------------------
 Input file generated by CHIRIPA (05-May-2021 14:57:25)
 ------------------------------------------------------
 Symbolic Z-matrix:
 Charge =  0 Multiplicity = 1

                         Standard orientation:
 ---------------------------------------------------------------------
 Center     Atomic      Atomic             Coordinates (Angstroms)
 Number     Number       Type             X           Y           Z
 ---------------------------------------------------------------------
      1          6           0       -4.236014   -1.504445    1.328919
      2          6           0       -4.291785   -0.166333    1.732488
      3          6           0       -3.637847    0.825422    0.995375
      4          6           0       -2.934151    0.441906   -0.145246
      5          6           0       -2.859979   -0.882780   -0.573026
      6          6           0       -3.521549   -1.857775    0.179476
      7          1           0       -4.746972   -2.268354    1.907503
      8          1           0       -4.845894    0.110980    2.624735
      9          1           0       -3.664605    1.868850    1.285133
     10          1           0       -2.299678   -1.128535   -1.466942
     11          1           0       -3.476515   -2.896183   -0.136317
     12          7           0       -2.237817    1.482960   -0.933741
     13          8           0       -1.624560    1.119177   -1.934848
     14          8           0       -2.318472    2.643010   -0.535726
     15          6           0        4.711206    1.336070    1.026334
     16          6           0        5.033647   -0.019415    0.902997
     17          6           0        4.120362   -0.918512    0.344352
     18          6           0        2.888211   -0.425628   -0.082450
     19          6           0        2.537582    0.919136    0.026905
     20          6           0        3.466397    1.800202    0.588665
     21          1           0        5.426700    2.027506    1.461512
     22          1           0        5.999634   -0.382683    1.242040
     23          1           0        4.344067   -1.972948    0.236935
     24          1           0        1.566759    1.251575   -0.320090
     25          1           0        3.213268    2.852359    0.683198
     26          7           0        1.913136   -1.367917   -0.675511
     27          8           0        0.834262   -0.908624   -1.043910
     28          8           0        2.246211   -2.547932   -0.760725
 ---------------------------------------------------------------------

 SCF Done:  E(RHF) =  -868.339426095     A.U. after   16 cycles
 E2 =    -0.2599812298D+01 EUMP2 =    -0.87093923839328D+03

 The electronic state is 1-A.
 Alpha  occ. eigenvalues --  -20.60556 -20.60512 -20.60219 -20.60095 -15.85565
 Alpha  occ. eigenvalues --  -15.85182 -11.30824 -11.30392 -11.27438 -11.27295
 Alpha  occ. eigenvalues --  -11.27150 -11.27081 -11.26828 -11.26784 -11.26435
 Alpha  occ. eigenvalues --  -11.26336 -11.26063 -11.25904  -1.59614  -1.59235
 Alpha  occ. eigenvalues --   -1.39164  -1.38777  -1.18999  -1.18590  -1.08427
 Alpha  occ. eigenvalues --   -1.08032  -1.04377  -1.03965  -0.95275  -0.94874
 Alpha  occ. eigenvalues --   -0.85784  -0.85375  -0.82103  -0.81700  -0.77161
 Alpha  occ. eigenvalues --   -0.76733  -0.71848  -0.71384  -0.70927  -0.70516
 Alpha  occ. eigenvalues --   -0.70107  -0.69712  -0.64653  -0.64381  -0.64246
 Alpha  occ. eigenvalues --   -0.63980  -0.61707  -0.61289  -0.54909  -0.54526
 Alpha  occ. eigenvalues --   -0.52731  -0.52464  -0.52319  -0.52056  -0.48584
 Alpha  occ. eigenvalues --   -0.48559  -0.48190  -0.48134  -0.44592  -0.44186
 Alpha  occ. eigenvalues --   -0.37001  -0.36605  -0.35979  -0.35549
 Alpha virt. eigenvalues --    0.05357   0.05757   0.11672   0.12094   0.16864
 Alpha virt. eigenvalues --    0.17240   0.21789   0.22195   0.27743   0.28103
 Alpha virt. eigenvalues --    0.28582   0.29167   0.31264   0.31692   0.32848

 Mulliken charges:
               1
     1  C   -0.170775
     2  C   -0.220126
     3  C   -0.172792
     4  C    0.154013
     5  C   -0.161107
     6  C   -0.220901
     7  H    0.222945
     8  H    0.219445
     9  H    0.271149
    10  H    0.289501
    11  H    0.224966
    12  N    0.485968
    13  O   -0.450804
    14  O   -0.471017
    15  C   -0.170784
    16  C   -0.219191
    17  C   -0.171501
    18  C    0.156677
    19  C   -0.172626
    20  C   -0.219723
    21  H    0.224662
    22  H    0.221681
    23  H    0.273508
    24  H    0.285819
    25  H    0.226518
    26  N    0.489877
    27  O   -0.460081
    28  O   -0.465302
 Sum of Mulliken charges =  -0.00000

 Dipole moment (field-independent basis, Debye):
    X=              1.0682    Y=             -0.4275    Z=              4.6246  Tot=              4.7656
 Quadrupole moment (field-independent basis, Debye-Ang):
   XX=            -70.3269   YY=           -106.6458   ZZ=           -105.0896
   XY=             14.8813   XZ=             -2.2525   YZ=              2.7136

 Normal termination of Gaussian 16 at Thu May  6 11:23:49 2021.
