 Gaussian 16, Revision A.03,
 Gaussian 16:  EM64L-G16RevA.03 25-Dec-2016

 -------------
 #p 6-31g* mp2
 -------------

 ------------------------------------------------------
 Input file generated by CHIRIPA (05-May-2021 14:57:25)
 ------------------------------------------------------
 Symbolic Z-matrix:
 Charge =  0 Multiplicity = 1

                         Standard orientation:
 ---------------------------------------------------------------------
 Center     Atomic      Atomic             Coordinates (Angstroms)
 Number     Number       Type             X           Y           Z
 ---------------------------------------------------------------------
      1          6           0        5.317772   -0.985414   -0.126032
      2          6           0        5.280655    0.334722    0.334820
      3          6           0        4.093948    1.071962    0.282368
      4          6           0        2.957995    0.455029   -0.239449
      5          6           0        2.963126   -0.858440   -0.706423
      6          6           0        4.160929   -1.576739   -0.644269
      7          1           0        6.243945   -1.550763   -0.081517
      8          1           0        6.177536    0.796523    0.737797
      9          1           0        4.037110    2.095570    0.632248
     10          1           0        2.052856   -1.291710   -1.102784
     11          1           0        4.186809   -2.601806   -1.002895
     12          7           0        1.695808    1.225486   -0.300113
     13          8           0        0.708721    0.659108   -0.764348
     14          8           0        1.717492    2.381159    0.117721
     15          6           0       -5.116900    0.951567   -0.731051
     16          6           0       -4.254040    1.570333    0.179509
     17          6           0       -3.169898    0.870966    0.718091
     18          6           0       -2.977414   -0.451756    0.322309
     19          6           0       -3.819492   -1.095894   -0.582833
     20          6           0       -4.897261   -0.377229   -1.108651
     21          1           0       -5.956613    1.502347   -1.144477
     22          1           0       -4.422179    2.602183    0.474568
     23          1           0       -2.486359    1.325601    1.424846
     24          1           0       -3.626204   -2.125652   -0.857888
     25          1           0       -5.565741   -0.860328   -1.815613
     26          7           0       -1.833055   -1.202360    0.885726
     27          8           0       -1.685156   -2.366702    0.520937
     28          8           0       -1.105674   -0.612127    1.681451
 ---------------------------------------------------------------------

 SCF Done:  E(RHF) =  -868.339458954     A.U. after   16 cycles
 E2 =    -0.2599512905D+01 EUMP2 =    -0.87093897185902D+03

 The electronic state is 1-A.
 Alpha  occ. eigenvalues --  -20.60232 -20.60191 -20.59890 -20.59823 -15.85257
 Alpha  occ. eigenvalues --  -15.84906 -11.30521 -11.30194 -11.27135 -11.27043
 Alpha  occ. eigenvalues --  -11.26876 -11.26844 -11.26721 -11.26593 -11.26149
 Alpha  occ. eigenvalues --  -11.26083 -11.25871 -11.25784  -1.59262  -1.58907
 Alpha  occ. eigenvalues --   -1.38828  -1.38471  -1.18699  -1.18382  -1.08123
 Alpha  occ. eigenvalues --   -1.07804  -1.04098  -1.03797  -0.94975  -0.94653
 Alpha  occ. eigenvalues --   -0.85505  -0.85203  -0.81824  -0.81505  -0.76863
 Alpha  occ. eigenvalues --   -0.76536  -0.71562  -0.71183  -0.70619  -0.70042
 Alpha  occ. eigenvalues --   -0.69830  -0.69541  -0.64371  -0.64122  -0.64064
 Alpha  occ. eigenvalues --   -0.63836  -0.61447  -0.61154  -0.54639  -0.54352
 Alpha  occ. eigenvalues --   -0.52423  -0.52204  -0.52105  -0.51914  -0.48270
 Alpha  occ. eigenvalues --   -0.48252  -0.47924  -0.47880  -0.44504  -0.43634
 Alpha  occ. eigenvalues --   -0.36687  -0.36368  -0.35689  -0.35383
 Alpha virt. eigenvalues --    0.05686   0.06040   0.11966   0.12273   0.17172
 Alpha virt. eigenvalues --    0.17510   0.22031   0.22278   0.27949   0.28179
 Alpha virt. eigenvalues --    0.28919   0.29196   0.31535   0.31799   0.33206

 Mulliken charges:
               1
     1  C   -0.170675
     2  C   -0.218985
     3  C   -0.170861
     4  C    0.160464
     5  C   -0.165988
     6  C   -0.218884
     7  H    0.223587
     8  H    0.220921
     9  H    0.273201
    10  H    0.279714
    11  H    0.223315
    12  N    0.492395
    13  O   -0.462402
    14  O   -0.465566
    15  C   -0.170860
    16  C   -0.219102
    17  C   -0.161689
    18  C    0.163750
    19  C   -0.171299
    20  C   -0.219171
    21  H    0.222180
    22  H    0.222062
    23  H    0.279162
    24  H    0.271322
    25  H    0.219233
    26  N    0.493200
    27  O   -0.470608
    28  O   -0.458416
 Sum of Mulliken charges =  -0.00000

 Dipole moment (field-independent basis, Debye):
    X=              0.5084    Y=             -0.0123    Z=             -1.7092  Tot=              1.7832
 Quadrupole moment (field-independent basis, Debye-Ang):
   XX=            -55.7625   YY=           -104.2618   ZZ=           -105.4433
   XY=             -9.6039   XZ=              6.0890   YZ=              7.0028

 Normal termination of Gaussian 16 at Thu May  6 14:42:13 2021.
