 Gaussian 16, Revision A.03,
 Gaussian 16:  EM64L-G16RevA.03 25-Dec-2016

 -------------
 #p 6-31g* mp2
 -------------

 ------------------------------------------------------
 Input file generated by CHIRIPA (05-May-2021 14:57:25)
 ------------------------------------------------------
 Symbolic Z-matrix:
 Charge =  0 Multiplicity = 1

                         Standard orientation:
 ---------------------------------------------------------------------
 Center     Atomic      Atomic             Coordinates (Angstroms)
 Number     Number       Type             X           Y           Z
 ---------------------------------------------------------------------
      1          6           0       -1.884441    2.332628   -0.268003
      2          6           0       -2.410355    1.804408   -1.451607
      3          6           0       -3.111567    0.594987   -1.439369
      4          6           0       -3.268875   -0.062650   -0.220329
      5          6           0       -2.756731    0.437964    0.975658
      6          6           0       -2.059000    1.648926    0.939723
      7          1           0       -1.341075    3.272734   -0.286714
      8          1           0       -2.276326    2.333202   -2.391000
      9          1           0       -3.529156    0.163411   -2.340911
     10          1           0       -2.906525   -0.112117    1.896739
     11          1           0       -1.651664    2.056775    1.860473
     12          7           0       -4.009374   -1.343826   -0.194829
     13          8           0       -4.134296   -1.903827    0.892107
     14          8           0       -4.450833   -1.763752   -1.262262
     15          6           0        1.258764    0.433315    1.793803
     16          6           0        1.681121   -0.894272    1.668711
     17          6           0        2.726265   -1.228205    0.802276
     18          6           0        3.329362   -0.204751    0.072820
     19          6           0        2.931209    1.127244    0.175556
     20          6           0        1.884054    1.438065    1.048140
     21          1           0        0.446090    0.683745    2.469259
     22          1           0        1.197352   -1.676645    2.246556
     23          1           0        3.073226   -2.247784    0.686114
     24          1           0        3.432842    1.885325   -0.413593
     25          1           0        1.558141    2.469945    1.143264
     26          7           0        4.436875   -0.546037   -0.847691
     27          8           0        4.951835    0.374056   -1.479262
     28          8           0        4.769012   -1.727166   -0.920185
 ---------------------------------------------------------------------

 SCF Done:  E(RHF) =  -868.335849388     A.U. after   16 cycles
 E2 =    -0.2601629770D+01 EUMP2 =    -0.87093747915825D+03

 The electronic state is 1-A.
 Alpha  occ. eigenvalues --  -20.61364 -20.61343 -20.61064 -20.61051 -15.86416
 Alpha  occ. eigenvalues --  -15.86119 -11.31899 -11.31556 -11.28559 -11.28427
 Alpha  occ. eigenvalues --  -11.28287 -11.28197 -11.28112 -11.27984 -11.27665
 Alpha  occ. eigenvalues --  -11.27460 -11.27289 -11.27129  -1.60429  -1.60135
 Alpha  occ. eigenvalues --   -1.39980  -1.39686  -1.20094  -1.19757  -1.09478
 Alpha  occ. eigenvalues --   -1.09149  -1.05534  -1.05178  -0.96283  -0.95974
 Alpha  occ. eigenvalues --   -0.86942  -0.86577  -0.83146  -0.82790  -0.78157
 Alpha  occ. eigenvalues --   -0.77820  -0.72633  -0.72337  -0.71754  -0.71459
 Alpha  occ. eigenvalues --   -0.71224  -0.70943  -0.65765  -0.65627  -0.65404
 Alpha  occ. eigenvalues --   -0.65173  -0.62888  -0.62526  -0.56082  -0.55742
 Alpha  occ. eigenvalues --   -0.53950  -0.53629  -0.53344  -0.53286  -0.49402
 Alpha  occ. eigenvalues --   -0.49379  -0.49103  -0.49085  -0.45360  -0.45076
 Alpha  occ. eigenvalues --   -0.38321  -0.37754  -0.36878  -0.36712
 Alpha virt. eigenvalues --    0.04303   0.04793   0.10239   0.11114   0.15550
 Alpha virt. eigenvalues --    0.16452   0.18341   0.22293   0.24923   0.25597
 Alpha virt. eigenvalues --    0.28221   0.28974   0.30016   0.31420   0.32578

 Mulliken charges:
               1
     1  C   -0.168550
     2  C   -0.217299
     3  C   -0.168931
     4  C    0.159941
     5  C   -0.171695
     6  C   -0.218234
     7  H    0.223533
     8  H    0.227120
     9  H    0.278850
    10  H    0.273118
    11  H    0.214402
    12  N    0.488015
    13  O   -0.461273
    14  O   -0.456981
    15  C   -0.162840
    16  C   -0.219416
    17  C   -0.169438
    18  C    0.158612
    19  C   -0.171024
    20  C   -0.217357
    21  H    0.216459
    22  H    0.227130
    23  H    0.278283
    24  H    0.274825
    25  H    0.213923
    26  N    0.488035
    27  O   -0.460958
    28  O   -0.458248
 Sum of Mulliken charges =  -0.00000

 Dipole moment (field-independent basis, Debye):
    X=             -1.3669    Y=              5.5328    Z=              2.9203  Tot=              6.4038
 Quadrupole moment (field-independent basis, Debye-Ang):
   XX=           -148.7788   YY=           -101.9994   ZZ=            -99.8445
   XY=             -9.9735   XZ=             11.4220   YZ=             -3.7720

 Normal termination of Gaussian 16 at Wed May  5 21:09:10 2021.
