 Gaussian 16, Revision A.03,
 Gaussian 16:  EM64L-G16RevA.03 25-Dec-2016

 -------------
 #p 6-31g* mp2
 -------------

 ------------------------------------------------------
 Input file generated by CHIRIPA (05-May-2021 14:53:13)
 ------------------------------------------------------
 Symbolic Z-matrix:
 Charge =  0 Multiplicity = 1

                         Standard orientation:
 ---------------------------------------------------------------------
 Center     Atomic      Atomic             Coordinates (Angstroms)
 Number     Number       Type             X           Y           Z
 ---------------------------------------------------------------------
      1          6           0       -4.685158   -0.014039   -0.290627
      2          6           0       -5.651641   -0.690225    0.682342
      3          6           0       -6.621561   -1.644399   -0.015225
      4          1           0       -5.261485    0.535346   -1.047573
      5          1           0       -4.118015   -0.785957   -0.829040
      6          1           0       -6.215810    0.082768    1.219753
      7          1           0       -5.072942   -1.237907    1.437172
      8          1           0       -6.074537   -2.436316   -0.536986
      9          1           0       -7.223898   -1.108137   -0.755640
     10          1           0       -7.303296   -2.116789    0.698880
     11          6           0       -3.709221    0.942843    0.391759
     12          6           0       -2.742737    1.619028   -0.581210
     13          6           0       -1.772817    2.573203    0.116357
     14          1           0       -4.276363    1.714760    0.930171
     15          1           0       -3.132893    0.393458    1.148705
     16          1           0       -3.321436    2.166710   -1.336040
     17          1           0       -2.178568    0.846035   -1.118621
     18          1           0       -1.170480    2.036941    0.856772
     19          1           0       -2.319841    3.365119    0.638118
     20          1           0       -1.091083    3.045592   -0.597748
     21          6           0        0.976397   -1.339183   -0.371765
     22          6           0        2.070948   -2.183854   -0.159617
     23          6           0        3.351332   -1.653917    0.025672
     24          6           0        3.501666   -0.268422   -0.007383
     25          6           0        2.430891    0.599300   -0.216638
     26          6           0        1.159538    0.047255   -0.399549
     27          1           0       -0.014729   -1.759437   -0.514778
     28          1           0        1.931690   -3.260964   -0.137542
     29          1           0        4.216127   -2.284756    0.191776
     30          1           0        2.601027    1.668969   -0.233406
     31          1           0        0.311322    0.705657   -0.564111
     32          7           0        4.852371    0.304301    0.187516
     33          8           0        4.958376    1.528341    0.153974
     34          8           0        5.779473   -0.481684    0.370130
 ---------------------------------------------------------------------

 SCF Done:  E(RHF) =  -669.535157880     A.U. after   15 cycles
 E2 =    -0.2091825946D+01 EUMP2 =    -0.67162698382628D+03

 The electronic state is 1-A.
 Alpha  occ. eigenvalues --  -20.60722 -20.60717 -15.85774 -11.31134 -11.27705
 Alpha  occ. eigenvalues --  -11.27682 -11.27442 -11.26726 -11.26626 -11.22785
 Alpha  occ. eigenvalues --  -11.22344 -11.22306 -11.22226 -11.22212 -11.21679
 Alpha  occ. eigenvalues --   -1.59797  -1.39351  -1.19302  -1.09363  -1.08701
 Alpha  occ. eigenvalues --   -1.04715  -1.04450  -0.96900  -0.95538  -0.87913
 Alpha  occ. eigenvalues --   -0.86102  -0.82368  -0.80524  -0.79135  -0.77420
 Alpha  occ. eigenvalues --   -0.71993  -0.71120  -0.70421  -0.66093  -0.64952
 Alpha  occ. eigenvalues --   -0.64719  -0.62308  -0.61579  -0.60264  -0.58487
 Alpha  occ. eigenvalues --   -0.56213  -0.55185  -0.53596  -0.53304  -0.53033
 Alpha  occ. eigenvalues --   -0.52733  -0.50817  -0.48833  -0.48748  -0.48737
 Alpha  occ. eigenvalues --   -0.47584  -0.46673  -0.46599  -0.44758  -0.44697
 Alpha  occ. eigenvalues --   -0.37290  -0.36299
 Alpha virt. eigenvalues --    0.05110   0.11296   0.16569   0.19092   0.22649
 Alpha virt. eigenvalues --    0.23814   0.25236   0.26155   0.26498   0.28682
 Alpha virt. eigenvalues --    0.29079   0.30639   0.30812   0.31094   0.31671

 Mulliken charges:
               1
     1  C   -0.298087
     2  C   -0.300296
     3  C   -0.476005
     4  H    0.152432
     5  H    0.145570
     6  H    0.154289
     7  H    0.151762
     8  H    0.154340
     9  H    0.156700
    10  H    0.162506
    11  C   -0.298844
    12  C   -0.303634
    13  C   -0.487620
    14  H    0.154135
    15  H    0.148964
    16  H    0.158694
    17  H    0.143267
    18  H    0.155587
    19  H    0.165751
    20  H    0.160015
    21  C   -0.174367
    22  C   -0.218342
    23  C   -0.171424
    24  C    0.159101
    25  C   -0.174323
    26  C   -0.229135
    27  H    0.224691
    28  H    0.223017
    29  H    0.275380
    30  H    0.275927
    31  H    0.243039
    32  N    0.488011
    33  O   -0.460392
    34  O   -0.460706
 Sum of Mulliken charges =  -0.00000

 Dipole moment (field-independent basis, Debye):
    X=             -5.0269    Y=             -1.9172    Z=             -0.6394  Tot=              5.4180
 Quadrupole moment (field-independent basis, Debye-Ang):
   XX=           -127.0710   YY=            -89.0911   ZZ=            -95.7163
   XY=             -9.1830   XZ=             -2.4761   YZ=             -0.6450

 Normal termination of Gaussian 16 at Thu May  6 08:55:57 2021.
