 Gaussian 16, Revision A.03,
 Gaussian 16:  EM64L-G16RevA.03 25-Dec-2016

 -------------
 #p 6-31g* mp2
 -------------

 ------------------------------------------------------
 Input file generated by CHIRIPA (05-May-2021 14:55:20)
 ------------------------------------------------------
 Symbolic Z-matrix:
 Charge =  0 Multiplicity = 1

                         Standard orientation:
 ---------------------------------------------------------------------
 Center     Atomic      Atomic             Coordinates (Angstroms)
 Number     Number       Type             X           Y           Z
 ---------------------------------------------------------------------
      1          6           0        0.600887   -0.970558    1.269499
      2          6           0        1.392320   -1.968447    0.691249
      3          6           0        2.611613   -1.646831    0.087563
      4          6           0        3.010614   -0.311154    0.080090
      5          6           0        2.244377    0.705664    0.647763
      6          6           0        1.028688    0.360965    1.245952
      7          1           0       -0.344889   -1.229362    1.736321
      8          1           0        1.062603   -3.003362    0.708057
      9          1           0        3.243979   -2.399424   -0.367556
     10          1           0        2.599590    1.728501    0.615426
     11          1           0        0.416112    1.138029    1.694246
     12          7           0        4.299517    0.041545   -0.556096
     13          8           0        4.628636    1.225722   -0.549525
     14          8           0        4.956235   -0.872865   -1.049262
     15          6           0       -3.728488   -0.228557   -0.501571
     16          6           0       -5.068621   -0.788855   -0.023981
     17          6           0       -5.348088   -2.192430   -0.562192
     18          1           0       -3.716237   -0.210785   -1.599969
     19          1           0       -2.923101   -0.908458   -0.190959
     20          1           0       -5.871109   -0.107391   -0.334202
     21          1           0       -5.077758   -0.805115    1.073410
     22          1           0       -4.568125   -2.890459   -0.241235
     23          1           0       -5.365983   -2.188770   -1.656845
     24          1           0       -6.311078   -2.573683   -0.208416
     25          6           0       -3.434871    1.173921    0.028121
     26          6           0       -2.094738    1.734219   -0.449468
     27          6           0       -1.815271    3.137794    0.088743
     28          1           0       -4.240258    1.853823   -0.282489
     29          1           0       -3.447123    1.156150    1.126520
     30          1           0       -2.085601    1.750481   -1.546860
     31          1           0       -1.292250    1.052755   -0.139246
     32          1           0       -1.797376    3.134134    1.183397
     33          1           0       -2.595234    3.835823   -0.232215
     34          1           0       -0.852281    3.519047   -0.265033
 ---------------------------------------------------------------------

 SCF Done:  E(RHF) =  -669.534790995     A.U. after   15 cycles
 E2 =    -0.2093030854D+01 EUMP2 =    -0.67162782184892D+03

 The electronic state is 1-A.
 Alpha  occ. eigenvalues --  -20.60806 -20.60801 -15.85859 -11.31255 -11.27813
 Alpha  occ. eigenvalues --  -11.27805 -11.27572 -11.26845 -11.26819 -11.22249
 Alpha  occ. eigenvalues --  -11.22189 -11.22123 -11.22066 -11.21844 -11.21667
 Alpha  occ. eigenvalues --   -1.59880  -1.39433  -1.19431  -1.09140  -1.08820
 Alpha  occ. eigenvalues --   -1.04841  -1.04207  -0.96677  -0.95651  -0.87686
 Alpha  occ. eigenvalues --   -0.86239  -0.82478  -0.80262  -0.78940  -0.77519
 Alpha  occ. eigenvalues --   -0.72078  -0.71203  -0.70538  -0.65862  -0.65079
 Alpha  occ. eigenvalues --   -0.64811  -0.62259  -0.61534  -0.60029  -0.58271
 Alpha  occ. eigenvalues --   -0.56014  -0.55312  -0.53362  -0.53182  -0.53074
 Alpha  occ. eigenvalues --   -0.52906  -0.50627  -0.48843  -0.48831  -0.48564
 Alpha  occ. eigenvalues --   -0.47307  -0.46472  -0.46426  -0.44832  -0.44466
 Alpha  occ. eigenvalues --   -0.37364  -0.36387
 Alpha virt. eigenvalues --    0.04983   0.11095   0.16387   0.19418   0.22727
 Alpha virt. eigenvalues --    0.23454   0.25493   0.26068   0.26969   0.28655
 Alpha virt. eigenvalues --    0.28982   0.30485   0.31033   0.31441   0.31763

 Mulliken charges:
               1
     1  C   -0.171663
     2  C   -0.218175
     3  C   -0.170811
     4  C    0.158869
     5  C   -0.172899
     6  C   -0.219277
     7  H    0.226637
     8  H    0.223820
     9  H    0.275930
    10  H    0.276133
    11  H    0.229018
    12  N    0.488057
    13  O   -0.460098
    14  O   -0.460177
    15  C   -0.297728
    16  C   -0.300060
    17  C   -0.475433
    18  H    0.153522
    19  H    0.142994
    20  H    0.154592
    21  H    0.150213
    22  H    0.152334
    23  H    0.157364
    24  H    0.162207
    25  C   -0.298111
    26  C   -0.309604
    27  C   -0.478437
    28  H    0.152761
    29  H    0.144440
    30  H    0.156586
    31  H    0.156025
    32  H    0.148607
    33  H    0.160460
    34  H    0.161907
 Sum of Mulliken charges =  -0.00000

 Dipole moment (field-independent basis, Debye):
    X=             -4.5744    Y=             -1.2365    Z=              2.1461  Tot=              5.2019
 Quadrupole moment (field-independent basis, Debye-Ang):
   XX=           -122.1803   YY=            -90.1409   ZZ=            -94.3053
   XY=             -3.7674   XZ=              6.8325   YZ=             -0.3218

 Normal termination of Gaussian 16 at Thu May  6 17:27:00 2021.
