 Gaussian 16, Revision A.03,
 Gaussian 16:  EM64L-G16RevA.03 25-Dec-2016

 -------------
 #p 6-31g* mp2
 -------------

 ------------------------------------------------------
 Input file generated by CHIRIPA (05-May-2021 14:53:17)
 ------------------------------------------------------
 Symbolic Z-matrix:
 Charge =  0 Multiplicity = 1

                         Standard orientation:
 ---------------------------------------------------------------------
 Center     Atomic      Atomic             Coordinates (Angstroms)
 Number     Number       Type             X           Y           Z
 ---------------------------------------------------------------------
      1          6           0        2.927321   -0.631636    0.169648
      2          6           0        2.153535   -1.817139   -0.408125
      3          6           0        0.734337   -1.925478    0.150386
      4          1           0        2.968438   -0.726762    1.263360
      5          1           0        2.376848    0.295269   -0.043008
      6          1           0        2.705999   -2.741397   -0.195647
      7          1           0        2.114421   -1.719280   -1.500603
      8          1           0        0.161757   -1.019779   -0.074252
      9          1           0        0.756697   -2.047704    1.238119
     10          1           0        0.199198   -2.779660   -0.276063
     11          6           0        4.347834   -0.510023   -0.379061
     12          6           0        5.121620    0.675481    0.198712
     13          6           0        6.540818    0.783820   -0.359799
     14          1           0        4.898307   -1.436927   -0.166405
     15          1           0        4.306717   -0.414896   -1.472773
     16          1           0        5.160734    0.577621    1.291190
     17          1           0        4.569156    1.599739   -0.013766
     18          1           0        6.518458    0.906046   -1.447532
     19          1           0        7.113398   -0.121879   -0.135161
     20          1           0        7.075958    1.638002    0.066649
     21          6           0       -4.543032   -1.378684   -0.295824
     22          6           0       -4.635376   -0.177538   -1.006626
     23          6           0       -3.698373    0.840357   -0.805471
     24          6           0       -2.677394    0.622360    0.118310
     25          6           0       -2.558556   -0.563254    0.841833
     26          6           0       -3.506743   -1.567376    0.624514
     27          1           0       -5.275263   -2.164059   -0.458364
     28          1           0       -5.439107   -0.028223   -1.722004
     29          1           0       -3.746186    1.780055   -1.342220
     30          1           0       -1.746148   -0.682863    1.548306
     31          1           0       -3.432546   -2.499174    1.177951
     32          7           0       -1.679511    1.692669    0.339819
     33          8           0       -0.789490    1.475932    1.159286
     34          8           0       -1.806284    2.728049   -0.310223
 ---------------------------------------------------------------------

 SCF Done:  E(RHF) =  -669.535238789     A.U. after   15 cycles
 E2 =    -0.2092719596D+01 EUMP2 =    -0.67162795838511D+03

 The electronic state is 1-A.
 Alpha  occ. eigenvalues --  -20.60896 -20.60872 -15.85905 -11.31183 -11.27779
 Alpha  occ. eigenvalues --  -11.27722 -11.27511 -11.26761 -11.26735 -11.21272
 Alpha  occ. eigenvalues --  -11.21033 -11.20900 -11.20860 -11.20720 -11.20609
 Alpha  occ. eigenvalues --   -1.59947  -1.39503  -1.19372  -1.08783  -1.07924
 Alpha  occ. eigenvalues --   -1.04762  -1.03118  -0.95669  -0.95543  -0.86649
 Alpha  occ. eigenvalues --   -0.86141  -0.82457  -0.79206  -0.77726  -0.77476
 Alpha  occ. eigenvalues --   -0.72128  -0.71270  -0.70485  -0.65026  -0.64770
 Alpha  occ. eigenvalues --   -0.64549  -0.62121  -0.60522  -0.58945  -0.57180
 Alpha  occ. eigenvalues --   -0.55283  -0.54887  -0.53149  -0.52891  -0.52285
 Alpha  occ. eigenvalues --   -0.51933  -0.49549  -0.48888  -0.48878  -0.47498
 Alpha  occ. eigenvalues --   -0.46226  -0.45320  -0.45204  -0.44718  -0.43348
 Alpha  occ. eigenvalues --   -0.37348  -0.36316
 Alpha virt. eigenvalues --    0.04997   0.11243   0.16445   0.21269   0.23356
 Alpha virt. eigenvalues --    0.24606   0.26430   0.27296   0.27777   0.28221
 Alpha virt. eigenvalues --    0.29012   0.30869   0.31565   0.32007   0.32246

 Mulliken charges:
               1
     1  C   -0.300504
     2  C   -0.299432
     3  C   -0.480357
     4  H    0.149662
     5  H    0.162822
     6  H    0.149035
     7  H    0.151026
     8  H    0.162439
     9  H    0.150537
    10  H    0.153495
    11  C   -0.298320
    12  C   -0.299915
    13  C   -0.475511
    14  H    0.146399
    15  H    0.148243
    16  H    0.151900
    17  H    0.156586
    18  H    0.154349
    19  H    0.153218
    20  H    0.159903
    21  C   -0.170323
    22  C   -0.219014
    23  C   -0.170666
    24  C    0.156959
    25  C   -0.169115
    26  C   -0.220318
    27  H    0.225629
    28  H    0.223295
    29  H    0.275362
    30  H    0.279950
    31  H    0.223867
    32  N    0.487803
    33  O   -0.459434
    34  O   -0.459571
 Sum of Mulliken charges =  -0.00000

 Dipole moment (field-independent basis, Debye):
    X=             -3.5990    Y=             -3.6216    Z=             -0.7462  Tot=              5.1600
 Quadrupole moment (field-independent basis, Debye-Ang):
   XX=            -76.7446   YY=            -98.3312   ZZ=            -92.7074
   XY=              6.4885   XZ=              4.2227   YZ=             -3.5989

 Normal termination of Gaussian 16 at Wed May  5 15:46:02 2021.
