 Gaussian 16, Revision A.03,
 Gaussian 16:  EM64L-G16RevA.03 25-Dec-2016

 -------------
 #p 6-31g* mp2
 -------------

 ------------------------------------------------------
 Input file generated by CHIRIPA (05-May-2021 14:53:17)
 ------------------------------------------------------
 Symbolic Z-matrix:
 Charge =  0 Multiplicity = 1

                         Standard orientation:
 ---------------------------------------------------------------------
 Center     Atomic      Atomic             Coordinates (Angstroms)
 Number     Number       Type             X           Y           Z
 ---------------------------------------------------------------------
      1          6           0        3.437639   -1.184307    0.097889
      2          6           0        1.929787   -1.041841    0.307821
      3          6           0        1.199068   -2.384542    0.276251
      4          1           0        3.622108   -1.681230   -0.864392
      5          1           0        3.848145   -1.844557    0.874387
      6          1           0        1.522468   -0.380948   -0.468019
      7          1           0        1.748891   -0.545027    1.269626
      8          1           0        1.577785   -3.047772    1.060661
      9          1           0        1.350075   -2.882760   -0.686857
     10          1           0        0.122472   -2.259381    0.428354
     11          6           0        4.182011    0.149410    0.126832
     12          6           0        5.689862    0.006943   -0.083100
     13          6           0        6.420582    1.349645   -0.051530
     14          1           0        3.771505    0.809660   -0.649666
     15          1           0        3.997542    0.646332    1.089113
     16          1           0        5.870759   -0.489870   -1.044905
     17          1           0        6.097181   -0.653949    0.692740
     18          1           0        6.269574    1.847863    0.911578
     19          1           0        6.041865    2.012875   -0.835940
     20          1           0        7.497178    1.224484   -0.203634
     21          6           0       -1.634432    2.540552   -0.122653
     22          6           0       -2.941139    2.542818    0.376377
     23          6           0       -3.693977    1.365025    0.400548
     24          6           0       -3.106165    0.197727   -0.084411
     25          6           0       -1.806687    0.163319   -0.587861
     26          6           0       -1.072367    1.352903   -0.602334
     27          1           0       -1.056802    3.460071   -0.137663
     28          1           0       -3.380218    3.463684    0.749555
     29          1           0       -4.707728    1.338409    0.781361
     30          1           0       -1.396096   -0.770227   -0.953002
     31          1           0       -0.057785    1.348170   -0.990467
     32          7           0       -3.893358   -1.055391   -0.063955
     33          8           0       -3.352610   -2.070627   -0.496997
     34          8           0       -5.036203   -0.998623    0.384732
 ---------------------------------------------------------------------

 SCF Done:  E(RHF) =  -669.535024878     A.U. after   15 cycles
 E2 =    -0.2092466058D+01 EUMP2 =    -0.67162749093624D+03

 The electronic state is 1-A.
 Alpha  occ. eigenvalues --  -20.60766 -20.60761 -15.85813 -11.31160 -11.27727
 Alpha  occ. eigenvalues --  -11.27695 -11.27458 -11.26747 -11.26705 -11.22249
 Alpha  occ. eigenvalues --  -11.22045 -11.21945 -11.21870 -11.21491 -11.21395
 Alpha  occ. eigenvalues --   -1.59838  -1.39392  -1.19331  -1.08958  -1.08728
 Alpha  occ. eigenvalues --   -1.04739  -1.04012  -0.96436  -0.95565  -0.87446
 Alpha  occ. eigenvalues --   -0.86129  -0.82408  -0.80091  -0.78794  -0.77446
 Alpha  occ. eigenvalues --   -0.72031  -0.71159  -0.70446  -0.65610  -0.64980
 Alpha  occ. eigenvalues --   -0.64741  -0.62217  -0.61350  -0.59765  -0.58046
 Alpha  occ. eigenvalues --   -0.55715  -0.55221  -0.53181  -0.53018  -0.53013
 Alpha  occ. eigenvalues --   -0.52641  -0.50361  -0.48791  -0.48788  -0.48376
 Alpha  occ. eigenvalues --   -0.47130  -0.46307  -0.46242  -0.44802  -0.44256
 Alpha  occ. eigenvalues --   -0.37310  -0.36309
 Alpha virt. eigenvalues --    0.05042   0.11264   0.16523   0.19890   0.22694
 Alpha virt. eigenvalues --    0.23822   0.24940   0.26538   0.26660   0.28488
 Alpha virt. eigenvalues --    0.29167   0.30140   0.31242   0.31540   0.32281

 Mulliken charges:
               1
     1  C   -0.298155
     2  C   -0.302187
     3  C   -0.482664
     4  H    0.151190
     5  H    0.153102
     6  H    0.139377
     7  H    0.155118
     8  H    0.160259
     9  H    0.157123
    10  H    0.167586
    11  C   -0.297800
    12  C   -0.299967
    13  C   -0.475922
    14  H    0.143960
    15  H    0.149908
    16  H    0.153116
    17  H    0.153939
    18  H    0.155258
    19  H    0.153975
    20  H    0.162099
    21  C   -0.171565
    22  C   -0.218458
    23  C   -0.171076
    24  C    0.157637
    25  C   -0.173761
    26  C   -0.219441
    27  H    0.225694
    28  H    0.223281
    29  H    0.275409
    30  H    0.279708
    31  H    0.226394
    32  N    0.488373
    33  O   -0.461310
    34  O   -0.460199
 Sum of Mulliken charges =  -0.00000

 Dipole moment (field-independent basis, Debye):
    X=              2.8709    Y=              4.3178    Z=              0.0060  Tot=              5.1851
 Quadrupole moment (field-independent basis, Debye-Ang):
   XX=           -109.3317   YY=            -92.7465   ZZ=            -93.6306
   XY=            -16.2866   XZ=             -1.5412   YZ=              0.5945

 Normal termination of Gaussian 16 at Thu May  6 07:33:25 2021.
