 Gaussian 16, Revision A.03,
 Gaussian 16:  EM64L-G16RevA.03 25-Dec-2016

 -------------
 #p 6-31g* mp2
 -------------

 ------------------------------------------------------
 Input file generated by CHIRIPA (05-May-2021 14:57:25)
 ------------------------------------------------------
 Symbolic Z-matrix:
 Charge =  0 Multiplicity = 1

                         Standard orientation:
 ---------------------------------------------------------------------
 Center     Atomic      Atomic             Coordinates (Angstroms)
 Number     Number       Type             X           Y           Z
 ---------------------------------------------------------------------
      1          6           0       -4.805557    1.787826    0.541027
      2          6           0       -4.048562    1.925308   -0.627125
      3          6           0       -3.122842    0.943593   -0.992946
      4          6           0       -2.979104   -0.167638   -0.163612
      5          6           0       -3.718559   -0.333293    1.006454
      6          6           0       -4.638434    0.660951    1.352657
      7          1           0       -5.522409    2.555312    0.817586
      8          1           0       -4.176246    2.799391   -1.259361
      9          1           0       -2.523779    1.024723   -1.891812
     10          1           0       -3.569085   -1.215831    1.616538
     11          1           0       -5.224961    0.551528    2.260433
     12          7           0       -2.002179   -1.213568   -0.540506
     13          8           0       -1.894281   -2.183100    0.207158
     14          8           0       -1.362861   -1.044030   -1.576444
     15          6           0        1.871686   -2.185713    0.121204
     16          6           0        2.387938   -1.665392    1.312535
     17          6           0        3.092383   -0.457789    1.313474
     18          6           0        3.262739    0.206104    0.099590
     19          6           0        2.760442   -0.286580   -1.103843
     20          6           0        2.059254   -1.495862   -1.081063
     21          1           0        1.325721   -3.124460    0.129686
     22          1           0        2.243799   -2.198973    2.247713
     23          1           0        3.502690   -0.032276    2.221221
     24          1           0        2.920232    0.268146   -2.020448
     25          1           0        1.659441   -1.897572   -2.007792
     26          7           0        4.006780    1.485428    0.088030
     27          8           0        4.143268    2.051049   -0.994597
     28          8           0        4.439382    1.898317    1.161815
 ---------------------------------------------------------------------

 SCF Done:  E(RHF) =  -868.340750214     A.U. after   16 cycles
 E2 =    -0.2599564781D+01 EUMP2 =    -0.87094031499521D+03

 The electronic state is 1-A.
 Alpha  occ. eigenvalues --  -20.61642 -20.61620 -20.60003 -20.59996 -15.86630
 Alpha  occ. eigenvalues --  -15.85043 -11.31691 -11.30094 -11.28233 -11.28208
 Alpha  occ. eigenvalues --  -11.27903 -11.27175 -11.27149 -11.26658 -11.26553
 Alpha  occ. eigenvalues --  -11.26102 -11.25578 -11.25366  -1.60676  -1.59086
 Alpha  occ. eigenvalues --   -1.40242  -1.38648  -1.19832  -1.18208  -1.09287
 Alpha  occ. eigenvalues --   -1.07617  -1.05190  -1.03559  -0.96178  -0.94517
 Alpha  occ. eigenvalues --   -0.86603  -0.84943  -0.83026  -0.81372  -0.78103
 Alpha  occ. eigenvalues --   -0.76495  -0.72897  -0.71960  -0.71268  -0.70940
 Alpha  occ. eigenvalues --   -0.70409  -0.69216  -0.65493  -0.65193  -0.63830
 Alpha  occ. eigenvalues --   -0.63517  -0.62543  -0.60921  -0.55704  -0.53938
 Alpha  occ. eigenvalues --   -0.53534  -0.53279  -0.51930  -0.51626  -0.49646
 Alpha  occ. eigenvalues --   -0.49603  -0.48042  -0.47989  -0.45708  -0.44126
 Alpha  occ. eigenvalues --   -0.37797  -0.36776  -0.36075  -0.35142
 Alpha virt. eigenvalues --    0.04407   0.06023   0.10883   0.12526   0.15984
 Alpha virt. eigenvalues --    0.17643   0.21046   0.22776   0.26974   0.27904
 Alpha virt. eigenvalues --    0.28577   0.29680   0.30645   0.32043   0.32424

 Mulliken charges:
               1
     1  C   -0.169554
     2  C   -0.218215
     3  C   -0.169604
     4  C    0.158768
     5  C   -0.170482
     6  C   -0.218437
     7  H    0.227894
     8  H    0.226097
     9  H    0.275973
    10  H    0.274378
    11  H    0.224763
    12  N    0.491196
    13  O   -0.466329
    14  O   -0.463529
    15  C   -0.167277
    16  C   -0.221560
    17  C   -0.174831
    18  C    0.156136
    19  C   -0.176364
    20  C   -0.207064
    21  H    0.235729
    22  H    0.219539
    23  H    0.270173
    24  H    0.271208
    25  H    0.231835
    26  N    0.488181
    27  O   -0.463959
    28  O   -0.464665
 Sum of Mulliken charges =  -0.00000

 Dipole moment (field-independent basis, Debye):
    X=             -6.5589    Y=             -0.9672    Z=              1.2179  Tot=              6.7408
 Quadrupole moment (field-independent basis, Debye-Ang):
   XX=           -103.2273   YY=           -107.3371   ZZ=            -97.3760
   XY=            -26.2246   XZ=             -4.4468   YZ=             -3.9597

 Normal termination of Gaussian 16 at Fri May  7 00:27:14 2021.
