 Gaussian 16, Revision A.03,
 Gaussian 16:  EM64L-G16RevA.03 25-Dec-2016

 -------------
 #p 6-31g* mp2
 -------------

 ------------------------------------------------------
 Input file generated by CHIRIPA (05-May-2021 14:57:24)
 ------------------------------------------------------
 Symbolic Z-matrix:
 Charge =  0 Multiplicity = 1

                         Standard orientation:
 ---------------------------------------------------------------------
 Center     Atomic      Atomic             Coordinates (Angstroms)
 Number     Number       Type             X           Y           Z
 ---------------------------------------------------------------------
      1          6           0        3.637222   -2.274974   -0.010781
      2          6           0        2.658539   -1.817776    0.877853
      3          6           0        2.373000   -0.452919    0.978761
      4          6           0        3.088540    0.430885    0.172422
      5          6           0        4.069398    0.006255   -0.722506
      6          6           0        4.338291   -1.363107   -0.806721
      7          1           0        3.852570   -3.336977   -0.082686
      8          1           0        2.112502   -2.523658    1.497223
      9          1           0        1.620430   -0.071718    1.658277
     10          1           0        4.597101    0.733996   -1.326939
     11          1           0        5.098883   -1.715316   -1.497731
     12          7           0        2.795063    1.878183    0.270414
     13          8           0        3.439480    2.636484   -0.450935
     14          8           0        1.926177    2.226868    1.066712
     15          6           0       -0.781986   -1.062165   -0.408641
     16          6           0       -1.052138    0.295387   -0.610121
     17          6           0       -2.353168    0.788397   -0.472977
     18          6           0       -3.364574   -0.108263   -0.131874
     19          6           0       -3.127151   -1.466188    0.075396
     20          6           0       -1.818528   -1.937077   -0.067128
     21          1           0        0.231636   -1.436554   -0.517268
     22          1           0       -0.249118    0.977164   -0.875422
     23          1           0       -2.590317    1.834635   -0.623192
     24          1           0       -3.948426   -2.121488    0.339039
     25          1           0       -1.611658   -2.991865    0.089946
     26          7           0       -4.745935    0.401956    0.016162
     27          8           0       -5.619437   -0.408543    0.317369
     28          8           0       -4.928990    1.602701   -0.171817
 ---------------------------------------------------------------------

 SCF Done:  E(RHF) =  -868.336594291     A.U. after   16 cycles
 E2 =    -0.2603003555D+01 EUMP2 =    -0.87093959784628D+03

 The electronic state is 1-A.
 Alpha  occ. eigenvalues --  -20.61896 -20.61890 -20.60610 -20.60593 -15.86933
 Alpha  occ. eigenvalues --  -15.85658 -11.32380 -11.31039 -11.28950 -11.28931
 Alpha  occ. eigenvalues --  -11.28708 -11.27965 -11.27904 -11.27663 -11.27544
 Alpha  occ. eigenvalues --  -11.27247 -11.26713 -11.26534  -1.60973  -1.59679
 Alpha  occ. eigenvalues --   -1.40516  -1.39232  -1.20597  -1.19217  -1.09952
 Alpha  occ. eigenvalues --   -1.08624  -1.05990  -1.04613  -0.96765  -0.95446
 Alpha  occ. eigenvalues --   -0.87358  -0.86020  -0.83584  -0.82265  -0.78618
 Alpha  occ. eigenvalues --   -0.77310  -0.73131  -0.72338  -0.71874  -0.71633
 Alpha  occ. eigenvalues --   -0.71003  -0.70362  -0.66203  -0.65933  -0.64862
 Alpha  occ. eigenvalues --   -0.64634  -0.63275  -0.61952  -0.56431  -0.55568
 Alpha  occ. eigenvalues --   -0.54025  -0.53920  -0.52940  -0.52700  -0.49908
 Alpha  occ. eigenvalues --   -0.49891  -0.48639  -0.48626  -0.45879  -0.44633
 Alpha  occ. eigenvalues --   -0.38595  -0.37811  -0.36952  -0.36208
 Alpha virt. eigenvalues --    0.03846   0.05241   0.09864   0.11474   0.15238
 Alpha virt. eigenvalues --    0.16756   0.20307   0.21705   0.26130   0.27109
 Alpha virt. eigenvalues --    0.27368   0.28813   0.30048   0.31282   0.31672

 Mulliken charges:
               1
     1  C   -0.170274
     2  C   -0.229864
     3  C   -0.178689
     4  C    0.154839
     5  C   -0.169661
     6  C   -0.218739
     7  H    0.229823
     8  H    0.227184
     9  H    0.283181
    10  H    0.279534
    11  H    0.228224
    12  N    0.485870
    13  O   -0.455351
    14  O   -0.457829
    15  C   -0.182455
    16  C   -0.219910
    17  C   -0.169791
    18  C    0.157835
    19  C   -0.171073
    20  C   -0.222693
    21  H    0.232057
    22  H    0.228812
    23  H    0.279648
    24  H    0.274274
    25  H    0.217459
    26  N    0.488009
    27  O   -0.461989
    28  O   -0.458432
 Sum of Mulliken charges =  -0.00000

 Dipole moment (field-independent basis, Debye):
    X=              6.2407    Y=             -6.6944    Z=             -0.8699  Tot=              9.1933
 Quadrupole moment (field-independent basis, Debye-Ang):
   XX=           -128.1930   YY=           -104.9672   ZZ=           -103.2163
   XY=             -7.9531   XZ=             -3.0338   YZ=             -2.7213

 Normal termination of Gaussian 16 at Thu May  6 00:17:06 2021.
