 Gaussian 16, Revision A.03,
 Gaussian 16:  EM64L-G16RevA.03 25-Dec-2016

 -------------
 #p 6-31g* mp2
 -------------

 ------------------------------------------------------
 Input file generated by CHIRIPA (05-May-2021 14:53:11)
 ------------------------------------------------------
 Symbolic Z-matrix:
 Charge =  0 Multiplicity = 1

                         Standard orientation:
 ---------------------------------------------------------------------
 Center     Atomic      Atomic             Coordinates (Angstroms)
 Number     Number       Type             X           Y           Z
 ---------------------------------------------------------------------
      1          6           0       -2.486157   -0.575009    0.113997
      2          6           0       -3.260203   -1.850737   -0.219704
      3          6           0       -2.532975   -3.118210    0.230236
      4          1           0       -1.496327   -0.619577   -0.360551
      5          1           0       -2.311487   -0.533398    1.198042
      6          1           0       -3.434566   -1.889240   -1.302631
      7          1           0       -4.248377   -1.803042    0.255535
      8          1           0       -2.372318   -3.106337    1.313125
      9          1           0       -1.553882   -3.193025   -0.253894
     10          1           0       -3.103942   -4.018292   -0.018180
     11          6           0       -3.200369    0.700476   -0.329588
     12          6           0       -2.426324    1.976205    0.004113
     13          6           0       -3.153551    3.243678   -0.445827
     14          1           0       -3.375039    0.658866   -1.413633
     15          1           0       -4.190199    0.745044    0.144959
     16          1           0       -1.438149    1.928509   -0.471126
     17          1           0       -2.251960    2.014708    1.087040
     18          1           0       -4.132644    3.318493    0.038303
     19          1           0       -3.314209    3.231804   -1.528716
     20          1           0       -2.582585    4.143759   -0.197411
     21          6           0        1.865363   -2.538848   -0.115638
     22          6           0        0.981857   -1.764104    0.643118
     23          6           0        1.169343   -0.383691    0.760824
     24          6           0        2.255710    0.191698    0.103537
     25          6           0        3.153322   -0.553287   -0.659734
     26          6           0        2.946368   -1.932036   -0.763502
     27          1           0        1.712157   -3.610541   -0.201662
     28          1           0        0.141470   -2.232663    1.147349
     29          1           0        0.500676    0.239837    1.341785
     30          1           0        3.981966   -0.057754   -1.150871
     31          1           0        3.634115   -2.531223   -1.353438
     32          7           0        2.464497    1.652199    0.220768
     33          8           0        3.429266    2.135096   -0.368016
     34          8           0        1.659422    2.286388    0.899218
 ---------------------------------------------------------------------

 SCF Done:  E(RHF) =  -669.533809052     A.U. after   15 cycles
 E2 =    -0.2095162729D+01 EUMP2 =    -0.67162897178105D+03

 The electronic state is 1-A.
 Alpha  occ. eigenvalues --  -20.60786 -20.60779 -15.85823 -11.31159 -11.27716
 Alpha  occ. eigenvalues --  -11.27656 -11.27441 -11.26741 -11.26606 -11.22227
 Alpha  occ. eigenvalues --  -11.22028 -11.21845 -11.21537 -11.21426 -11.20805
 Alpha  occ. eigenvalues --   -1.59852  -1.39406  -1.19330  -1.08802  -1.08705
 Alpha  occ. eigenvalues --   -1.04725  -1.03819  -0.96326  -0.95565  -0.87353
 Alpha  occ. eigenvalues --   -0.86114  -0.82421  -0.79960  -0.78603  -0.77363
 Alpha  occ. eigenvalues --   -0.72041  -0.71172  -0.70425  -0.65414  -0.64974
 Alpha  occ. eigenvalues --   -0.64749  -0.62086  -0.61209  -0.59707  -0.57902
 Alpha  occ. eigenvalues --   -0.55640  -0.55219  -0.53155  -0.53018  -0.52932
 Alpha  occ. eigenvalues --   -0.52524  -0.50287  -0.48818  -0.48795  -0.48178
 Alpha  occ. eigenvalues --   -0.46981  -0.46058  -0.45943  -0.44777  -0.44057
 Alpha  occ. eigenvalues --   -0.37314  -0.36190
 Alpha virt. eigenvalues --    0.05043   0.11143   0.16469   0.20519   0.22913
 Alpha virt. eigenvalues --    0.23731   0.24757   0.26540   0.26777   0.28534
 Alpha virt. eigenvalues --    0.29848   0.30104   0.31100   0.31868   0.32402

 Mulliken charges:
               1
     1  C   -0.309708
     2  C   -0.296600
     3  C   -0.483881
     4  H    0.158307
     5  H    0.141370
     6  H    0.155287
     7  H    0.154952
     8  H    0.150814
     9  H    0.151965
    10  H    0.165173
    11  C   -0.297547
    12  C   -0.301937
    13  C   -0.476710
    14  H    0.150419
    15  H    0.149591
    16  H    0.158546
    17  H    0.152388
    18  H    0.153031
    19  H    0.154085
    20  H    0.167571
    21  C   -0.175099
    22  C   -0.220990
    23  C   -0.174246
    24  C    0.157294
    25  C   -0.171777
    26  C   -0.218340
    27  H    0.225972
    28  H    0.234238
    29  H    0.279831
    30  H    0.275228
    31  H    0.223200
    32  N    0.488046
    33  O   -0.460275
    34  O   -0.460198
 Sum of Mulliken charges =  -0.00000

 Dipole moment (field-independent basis, Debye):
    X=             -0.7899    Y=             -5.0173    Z=             -0.4704  Tot=              5.1008
 Quadrupole moment (field-independent basis, Debye-Ang):
   XX=            -94.9882   YY=            -98.1044   ZZ=            -93.0327
   XY=            -11.8864   XZ=             -4.0815   YZ=              0.0298

 Normal termination of Gaussian 16 at Wed May  5 15:26:08 2021.
