 Gaussian 16, Revision A.03,
 Gaussian 16:  EM64L-G16RevA.03 25-Dec-2016

 -------------
 #p 6-31g* mp2
 -------------

 ------------------------------------------------------
 Input file generated by CHIRIPA (05-May-2021 14:55:25)
 ------------------------------------------------------
 Symbolic Z-matrix:
 Charge =  0 Multiplicity = 1

                         Standard orientation:
 ---------------------------------------------------------------------
 Center     Atomic      Atomic             Coordinates (Angstroms)
 Number     Number       Type             X           Y           Z
 ---------------------------------------------------------------------
      1          6           0       -3.529565    2.548306    0.060528
      2          6           0       -4.603990    1.889092   -0.545747
      3          6           0       -4.641861    0.492539   -0.598222
      4          6           0       -3.583719   -0.216619   -0.031902
      5          6           0       -2.499390    0.411219    0.579114
      6          6           0       -2.482540    1.808570    0.620037
      7          1           0       -3.508311    3.633492    0.096805
      8          1           0       -5.418507    2.461004   -0.981089
      9          1           0       -5.461421   -0.043350   -1.061431
     10          1           0       -1.702023   -0.186042    1.004442
     11          1           0       -1.646847    2.317847    1.091522
     12          7           0       -3.612684   -1.695510   -0.081340
     13          8           0       -2.668146   -2.297357    0.424885
     14          8           0       -4.579377   -2.224814   -0.625379
     15          6           0        5.305126   -0.139037    0.250089
     16          6           0        6.325966    0.267901   -0.813054
     17          6           0        7.770052    0.053326   -0.358777
     18          1           0        5.491679    0.435848    1.167504
     19          1           0        5.456158   -1.196493    0.507714
     20          1           0        6.172155    1.323904   -1.069601
     21          1           0        6.136840   -0.307880   -1.728108
     22          1           0        7.946678   -1.000772   -0.121538
     23          1           0        7.982193    0.640285    0.540710
     24          1           0        8.483161    0.350714   -1.133952
     25          6           0        3.856972    0.069610   -0.189279
     26          6           0        2.836132   -0.337327    0.873864
     27          6           0        1.392047   -0.122752    0.419586
     28          1           0        3.705940    1.127066   -0.446904
     29          1           0        3.670419   -0.505274   -1.106694
     30          1           0        3.025258    0.238454    1.788917
     31          1           0        2.989943   -1.393331    1.130411
     32          1           0        1.179906   -0.709711   -0.479900
     33          1           0        1.215421    0.931346    0.182348
     34          1           0        0.678938   -0.420141    1.194761
 ---------------------------------------------------------------------

 SCF Done:  E(RHF) =  -669.535508176     A.U. after   15 cycles
 E2 =    -0.2091107576D+01 EUMP2 =    -0.67162661575237D+03

 The electronic state is 1-A.
 Alpha  occ. eigenvalues --  -20.60707 -20.60702 -15.85759 -11.31098 -11.27687
 Alpha  occ. eigenvalues --  -11.27633 -11.27433 -11.26701 -11.26677 -11.21867
 Alpha  occ. eigenvalues --  -11.21715 -11.21590 -11.21540 -11.21504 -11.21156
 Alpha  occ. eigenvalues --   -1.59782  -1.39336  -1.19280  -1.08683  -1.08618
 Alpha  occ. eigenvalues --   -1.04681  -1.03746  -0.96219  -0.95517  -0.87247
 Alpha  occ. eigenvalues --   -0.86080  -0.82350  -0.79817  -0.78417  -0.77393
 Alpha  occ. eigenvalues --   -0.71980  -0.71105  -0.70401  -0.65243  -0.64934
 Alpha  occ. eigenvalues --   -0.64697  -0.62072  -0.61133  -0.59575  -0.57814
 Alpha  occ. eigenvalues --   -0.55492  -0.55201  -0.53123  -0.52997  -0.52658
 Alpha  occ. eigenvalues --   -0.52552  -0.50142  -0.48736  -0.48734  -0.48127
 Alpha  occ. eigenvalues --   -0.46823  -0.45964  -0.45876  -0.44747  -0.44001
 Alpha  occ. eigenvalues --   -0.37270  -0.36274
 Alpha virt. eigenvalues --    0.05122   0.11356   0.16600   0.20594   0.22777
 Alpha virt. eigenvalues --    0.23960   0.26021   0.26395   0.27119   0.27851
 Alpha virt. eigenvalues --    0.28869   0.29801   0.31484   0.31599   0.31998

 Mulliken charges:
               1
     1  C   -0.170718
     2  C   -0.219009
     3  C   -0.170406
     4  C    0.158055
     5  C   -0.174935
     6  C   -0.221910
     7  H    0.225167
     8  H    0.223061
     9  H    0.275295
    10  H    0.284681
    11  H    0.223763
    12  N    0.487256
    13  O   -0.460595
    14  O   -0.460784
    15  C   -0.298589
    16  C   -0.299778
    17  C   -0.475837
    18  H    0.149131
    19  H    0.151308
    20  H    0.151125
    21  H    0.152921
    22  H    0.156077
    23  H    0.154902
    24  H    0.160559
    25  C   -0.299084
    26  C   -0.299362
    27  C   -0.480670
    28  H    0.147666
    29  H    0.152013
    30  H    0.150484
    31  H    0.157259
    32  H    0.164803
    33  H    0.149123
    34  H    0.157027
 Sum of Mulliken charges =  -0.00000

 Dipole moment (field-independent basis, Debye):
    X=              0.2345    Y=              5.1399    Z=              0.1394  Tot=              5.1471
 Quadrupole moment (field-independent basis, Debye-Ang):
   XX=            -92.8452   YY=            -96.7727   ZZ=            -94.2385
   XY=            -19.1618   XZ=              1.6100   YZ=              0.0899

 Normal termination of Gaussian 16 at Thu May  6 20:56:29 2021.
