 Gaussian 16, Revision A.03,
 Gaussian 16:  EM64L-G16RevA.03 25-Dec-2016

 -------------
 #p 6-31g* mp2
 -------------

 ------------------------------------------------------
 Input file generated by CHIRIPA (05-May-2021 14:53:13)
 ------------------------------------------------------
 Symbolic Z-matrix:
 Charge =  0 Multiplicity = 1

                         Standard orientation:
 ---------------------------------------------------------------------
 Center     Atomic      Atomic             Coordinates (Angstroms)
 Number     Number       Type             X           Y           Z
 ---------------------------------------------------------------------
      1          6           0       -4.125849    0.073543   -0.574001
      2          6           0       -4.648627   -1.294306   -0.133910
      3          6           0       -5.388516   -2.031595   -1.250496
      4          1           0       -4.968289    0.685693   -0.924018
      5          1           0       -3.455724   -0.057446   -1.434913
      6          1           0       -5.316480   -1.160911    0.726783
      7          1           0       -3.804870   -1.903204    0.215280
      8          1           0       -4.728105   -2.193873   -2.108473
      9          1           0       -6.248303   -1.447363   -1.594063
     10          1           0       -5.753697   -3.006994   -0.914193
     11          6           0       -3.383879    0.822811    0.531352
     12          6           0       -2.861101    2.190660    0.091261
     13          6           0       -2.121213    2.927949    1.207847
     14          1           0       -4.054005    0.953800    1.392264
     15          1           0       -2.541440    0.210661    0.881369
     16          1           0       -3.704858    2.799558   -0.257929
     17          1           0       -2.193248    2.057265   -0.769432
     18          1           0       -1.261425    2.343717    1.551414
     19          1           0       -2.781624    3.090227    2.065824
     20          1           0       -1.756032    3.903348    0.871544
     21          6           0        1.025717   -1.627754    1.062620
     22          6           0        0.773148   -0.448967    0.353261
     23          6           0        1.822468    0.267110   -0.230444
     24          6           0        3.117924   -0.226623   -0.084460
     25          6           0        3.401680   -1.397881    0.616202
     26          6           0        2.336865   -2.097620    1.191599
     27          1           0        0.204562   -2.177673    1.512828
     28          1           0       -0.244102   -0.081695    0.251477
     29          1           0        1.655276    1.182508   -0.784980
     30          1           0        4.426322   -1.739054    0.700629
     31          1           0        2.535984   -3.012787    1.741933
     32          7           0        4.236994    0.522807   -0.698004
     33          8           0        5.369346    0.066770   -0.555011
     34          8           0        3.960580    1.552057   -1.310276
 ---------------------------------------------------------------------

 SCF Done:  E(RHF) =  -669.535446346     A.U. after   15 cycles
 E2 =    -0.2091697239D+01 EUMP2 =    -0.67162714358511D+03

 The electronic state is 1-A.
 Alpha  occ. eigenvalues --  -20.60757 -20.60752 -15.85811 -11.31182 -11.27758
 Alpha  occ. eigenvalues --  -11.27753 -11.27502 -11.26772 -11.26744 -11.22509
 Alpha  occ. eigenvalues --  -11.22428 -11.22409 -11.22226 -11.21831 -11.21710
 Alpha  occ. eigenvalues --   -1.59833  -1.39386  -1.19358  -1.09340  -1.08752
 Alpha  occ. eigenvalues --   -1.04765  -1.04346  -0.96782  -0.95586  -0.87791
 Alpha  occ. eigenvalues --   -0.86165  -0.82419  -0.80406  -0.79155  -0.77465
 Alpha  occ. eigenvalues --   -0.72030  -0.71156  -0.70468  -0.66100  -0.65011
 Alpha  occ. eigenvalues --   -0.64711  -0.62190  -0.61653  -0.60142  -0.58388
 Alpha  occ. eigenvalues --   -0.56086  -0.55263  -0.53435  -0.53200  -0.53087
 Alpha  occ. eigenvalues --   -0.52858  -0.50726  -0.48802  -0.48784  -0.48698
 Alpha  occ. eigenvalues --   -0.47462  -0.46675  -0.46614  -0.44790  -0.44619
 Alpha  occ. eigenvalues --   -0.37340  -0.36364
 Alpha virt. eigenvalues --    0.05067   0.11251   0.16503   0.18284   0.22963
 Alpha virt. eigenvalues --    0.23347   0.25216   0.26032   0.27115   0.28325
 Alpha virt. eigenvalues --    0.29601   0.30197   0.31020   0.31192   0.31992

 Mulliken charges:
               1
     1  C   -0.299327
     2  C   -0.298782
     3  C   -0.476285
     4  H    0.154183
     5  H    0.149485
     6  H    0.154002
     7  H    0.146251
     8  H    0.156393
     9  H    0.157556
    10  H    0.161793
    11  C   -0.301418
    12  C   -0.302443
    13  C   -0.477658
    14  H    0.155009
    15  H    0.138461
    16  H    0.157840
    17  H    0.148784
    18  H    0.151858
    19  H    0.158484
    20  H    0.165713
    21  C   -0.172975
    22  C   -0.227848
    23  C   -0.172719
    24  C    0.158986
    25  C   -0.171058
    26  C   -0.218496
    27  H    0.225458
    28  H    0.236259
    29  H    0.276185
    30  H    0.275665
    31  H    0.223469
    32  N    0.487997
    33  O   -0.460502
    34  O   -0.460319
 Sum of Mulliken charges =  -0.00000

 Dipole moment (field-independent basis, Debye):
    X=             -4.1541    Y=             -2.5602    Z=              2.1437  Tot=              5.3298
 Quadrupole moment (field-independent basis, Debye-Ang):
   XX=           -116.1046   YY=            -91.4330   ZZ=            -95.6273
   XY=            -10.9611   XZ=              7.8531   YZ=             -1.9290

 Normal termination of Gaussian 16 at Wed May  5 17:03:51 2021.
