 Gaussian 16, Revision A.03,
 Gaussian 16:  EM64L-G16RevA.03 25-Dec-2016

 -------------
 #p 6-31g* mp2
 -------------

 ------------------------------------------------------
 Input file generated by CHIRIPA (05-May-2021 14:51:10)
 ------------------------------------------------------
 Symbolic Z-matrix:
 Charge =  0 Multiplicity = 1

                         Standard orientation:
 ---------------------------------------------------------------------
 Center     Atomic      Atomic             Coordinates (Angstroms)
 Number     Number       Type             X           Y           Z
 ---------------------------------------------------------------------
      1          6           0       -3.104017    0.353949    0.401624
      2          6           0       -3.221862    0.926919   -1.011104
      3          6           0       -4.552432    1.641195   -1.250244
      4          1           0       -3.933562   -0.344517    0.577537
      5          1           0       -3.220623    1.167705    1.130733
      6          1           0       -3.103687    0.112543   -1.737357
      7          1           0       -2.391831    1.623957   -1.183742
      8          1           0       -4.675050    2.472411   -0.548357
      9          1           0       -5.390950    0.952409   -1.105117
     10          1           0       -4.615427    2.043042   -2.266320
     11          6           0       -1.779320   -0.363135    0.655983
     12          6           0       -1.661476   -0.936106    2.068712
     13          6           0       -0.330906   -1.650381    2.307852
     14          1           0       -1.662714   -1.176891   -0.073125
     15          1           0       -0.949775    0.335331    0.480070
     16          1           0       -2.491506   -1.633143    2.241350
     17          1           0       -1.779650   -0.121730    2.794964
     18          1           0        0.507613   -0.961596    2.162724
     19          1           0       -0.208288   -2.481597    1.605965
     20          1           0       -0.267910   -2.052229    3.323928
     21          6           0        2.423185   -0.757743   -0.572783
     22          6           0        1.369109   -1.283492   -1.547718
     23          6           0        1.344333   -2.810336   -1.624695
     24          1           0        3.411964   -1.127027   -0.877561
     25          1           0        2.228580   -1.173032    0.425745
     26          1           0        1.564827   -0.866239   -2.543816
     27          1           0        0.382748   -0.912756   -1.240695
     28          1           0        1.126409   -3.242093   -0.642506
     29          1           0        2.315205   -3.195312   -1.953031
     30          1           0        0.583660   -3.164596   -2.327358
     31          6           0        2.460153    0.766929   -0.484824
     32          6           0        3.514229    1.292678    0.490110
     33          6           0        3.539004    2.819523    0.567088
     34          1           0        2.654758    1.182219   -1.483352
     35          1           0        1.471373    1.136213   -0.180046
     36          1           0        4.500590    0.921943    0.183087
     37          1           0        3.318510    0.875425    1.486208
     38          1           0        2.568133    3.204499    0.895423
     39          1           0        3.756929    3.251280   -0.415102
     40          1           0        4.299678    3.173782    1.269750
 ---------------------------------------------------------------------

 SCF Done:  E(RHF) =  -470.731712715     A.U. after   11 cycles
 E2 =    -0.1585933896D+01 EUMP2 =    -0.47231764661193D+03

 The electronic state is 1-A.
 Alpha  occ. eigenvalues --  -11.21713 -11.21658 -11.21598 -11.21496 -11.21431
 Alpha  occ. eigenvalues --  -11.21369 -11.21351 -11.21217 -11.21187 -11.21111
 Alpha  occ. eigenvalues --  -11.21080 -11.20993  -1.08559  -1.08335  -1.03633
 Alpha  occ. eigenvalues --   -1.03450  -0.96080  -0.95926  -0.87099  -0.86942
 Alpha  occ. eigenvalues --   -0.79696  -0.79541  -0.78471  -0.78078  -0.65218
 Alpha  occ. eigenvalues --   -0.64969  -0.61068  -0.60855  -0.59404  -0.59302
 Alpha  occ. eigenvalues --   -0.57705  -0.57545  -0.55427  -0.55174  -0.52767
 Alpha  occ. eigenvalues --   -0.52656  -0.52537  -0.52333  -0.50146  -0.49758
 Alpha  occ. eigenvalues --   -0.48137  -0.47783  -0.46721  -0.46669  -0.46292
 Alpha  occ. eigenvalues --   -0.45732  -0.45567  -0.45053  -0.43873  -0.43707
 Alpha virt. eigenvalues --    0.19922   0.22543   0.23099   0.24823   0.25138
 Alpha virt. eigenvalues --    0.25774   0.26302   0.27889   0.29182   0.29777
 Alpha virt. eigenvalues --    0.30703   0.31243   0.31679   0.32198   0.32503

 Mulliken charges:
               1
     1  C   -0.297039
     2  C   -0.300448
     3  C   -0.475664
     4  H    0.149946
     5  H    0.149556
     6  H    0.152232
     7  H    0.152203
     8  H    0.155282
     9  H    0.155288
    10  H    0.160625
    11  C   -0.308326
    12  C   -0.298851
    13  C   -0.482627
    14  H    0.153566
    15  H    0.155335
    16  H    0.152492
    17  H    0.152108
    18  H    0.158484
    19  H    0.158262
    20  H    0.161170
    21  C   -0.302470
    22  C   -0.308138
    23  C   -0.478484
    24  H    0.149072
    25  H    0.154998
    26  H    0.150603
    27  H    0.163209
    28  H    0.156532
    29  H    0.155099
    30  H    0.158963
    31  C   -0.302917
    32  C   -0.299734
    33  C   -0.475545
    34  H    0.149820
    35  H    0.151567
    36  H    0.152451
    37  H    0.151269
    38  H    0.154443
    39  H    0.155353
    40  H    0.160315
 Sum of Mulliken charges =  -0.00000

 Dipole moment (field-independent basis, Debye):
    X=             -0.0753    Y=              0.0037    Z=              0.0388  Tot=              0.0848
 Quadrupole moment (field-independent basis, Debye-Ang):
   XX=            -84.9905   YY=            -85.5790   ZZ=            -84.2923
   XY=              0.7753   XZ=             -0.6456   YZ=              0.1519

 Normal termination of Gaussian 16 at Wed May  5 18:13:39 2021.
