 Gaussian 16, Revision A.03,
 Gaussian 16:  EM64L-G16RevA.03 25-Dec-2016

 -------------
 #p 6-31g* mp2
 -------------

 ------------------------------------------------------
 Input file generated by CHIRIPA (05-May-2021 14:57:24)
 ------------------------------------------------------
 Symbolic Z-matrix:
 Charge =  0 Multiplicity = 1

                         Standard orientation:
 ---------------------------------------------------------------------
 Center     Atomic      Atomic             Coordinates (Angstroms)
 Number     Number       Type             X           Y           Z
 ---------------------------------------------------------------------
      1          6           0       -2.046860   -0.961453    0.779905
      2          6           0       -2.676281   -1.581816   -0.304299
      3          6           0       -3.951371   -1.177901   -0.711175
      4          6           0       -4.570766   -0.145788   -0.008052
      5          6           0       -3.969711    0.491905    1.076092
      6          6           0       -2.694441    0.071607    1.465432
      7          1           0       -1.056270   -1.281587    1.089165
      8          1           0       -2.175748   -2.384367   -0.838549
      9          1           0       -4.461636   -1.640862   -1.547067
     10          1           0       -4.493818    1.289150    1.589055
     11          1           0       -2.208034    0.555203    2.307802
     12          7           0       -5.920741    0.290491   -0.429511
     13          8           0       -6.445196    1.202129    0.206492
     14          8           0       -6.428835   -0.287453   -1.387874
     15          6           0        2.178613    1.501179    0.044211
     16          6           0        2.222733    0.165673    0.457732
     17          6           0        3.419383   -0.555193    0.403598
     18          6           0        4.558029    0.093609   -0.071620
     19          6           0        4.546093    1.423050   -0.490827
     20          6           0        3.338388    2.124506   -0.427916
     21          1           0        1.244733    2.053625    0.089673
     22          1           0        1.323597   -0.320979    0.824838
     23          1           0        3.481796   -1.590117    0.717374
     24          1           0        5.458836    1.881109   -0.852074
     25          1           0        3.307085    3.161570   -0.749728
     26          7           0        5.830719   -0.659265   -0.133575
     27          8           0        6.819989   -0.064824   -0.556213
     28          8           0        5.814886   -1.829552    0.241675
 ---------------------------------------------------------------------

 SCF Done:  E(RHF) =  -868.336658292     A.U. after   16 cycles
 E2 =    -0.2599573887D+01 EUMP2 =    -0.87093623217896D+03

 The electronic state is 1-A.
 Alpha  occ. eigenvalues --  -20.61354 -20.61347 -20.61287 -20.61277 -15.86410
 Alpha  occ. eigenvalues --  -15.86345 -11.31932 -11.31812 -11.28510 -11.28474
 Alpha  occ. eigenvalues --  -11.28463 -11.28395 -11.28371 -11.28185 -11.27626
 Alpha  occ. eigenvalues --  -11.27570 -11.27563 -11.27383  -1.60424  -1.60358
 Alpha  occ. eigenvalues --   -1.39973  -1.39909  -1.20125  -1.20011  -1.09519
 Alpha  occ. eigenvalues --   -1.09385  -1.05537  -1.05445  -0.96323  -0.96196
 Alpha  occ. eigenvalues --   -0.86941  -0.86841  -0.83145  -0.83033  -0.78137
 Alpha  occ. eigenvalues --   -0.78070  -0.72625  -0.72560  -0.71749  -0.71684
 Alpha  occ. eigenvalues --   -0.71316  -0.71106  -0.65784  -0.65670  -0.65589
 Alpha  occ. eigenvalues --   -0.65438  -0.62867  -0.62804  -0.56184  -0.55890
 Alpha  occ. eigenvalues --   -0.53880  -0.53749  -0.53632  -0.53529  -0.49399
 Alpha  occ. eigenvalues --   -0.49370  -0.49327  -0.49308  -0.45343  -0.45292
 Alpha  occ. eigenvalues --   -0.38161  -0.37986  -0.37131  -0.37048
 Alpha virt. eigenvalues --    0.04357   0.04494   0.10498   0.10604   0.15671
 Alpha virt. eigenvalues --    0.15956   0.18084   0.21850   0.24600   0.26533
 Alpha virt. eigenvalues --    0.27672   0.28702   0.29605   0.31571   0.31875

 Mulliken charges:
               1
     1  C   -0.176331
     2  C   -0.217838
     3  C   -0.170260
     4  C    0.159623
     5  C   -0.170607
     6  C   -0.220888
     7  H    0.221527
     8  H    0.226507
     9  H    0.278406
    10  H    0.277459
    11  H    0.222677
    12  N    0.487831
    13  O   -0.458924
    14  O   -0.458039
    15  C   -0.171573
    16  C   -0.220154
    17  C   -0.171568
    18  C    0.159071
    19  C   -0.169724
    20  C   -0.218361
    21  H    0.227203
    22  H    0.214973
    23  H    0.275257
    24  H    0.277888
    25  H    0.226244
    26  N    0.488087
    27  O   -0.458341
    28  O   -0.460145
 Sum of Mulliken charges =  -0.00000

 Dipole moment (field-independent basis, Debye):
    X=              0.2112    Y=              1.1954    Z=              1.5751  Tot=              1.9886
 Quadrupole moment (field-independent basis, Debye-Ang):
   XX=           -187.5817   YY=            -98.6220   ZZ=           -102.6754
   XY=             20.5301   XZ=             -6.5396   YZ=              0.8681

 Normal termination of Gaussian 16 at Thu May  6 16:21:44 2021.
