 Gaussian 16, Revision A.03,
 Gaussian 16:  EM64L-G16RevA.03 25-Dec-2016

 -------------
 #p 6-31g* mp2
 -------------

 ------------------------------------------------------
 Input file generated by CHIRIPA (05-May-2021 14:55:25)
 ------------------------------------------------------
 Symbolic Z-matrix:
 Charge =  0 Multiplicity = 1

                         Standard orientation:
 ---------------------------------------------------------------------
 Center     Atomic      Atomic             Coordinates (Angstroms)
 Number     Number       Type             X           Y           Z
 ---------------------------------------------------------------------
      1          6           0       -0.511641    0.415571    0.931288
      2          6           0       -1.497992    0.002517    1.832964
      3          6           0       -2.798430   -0.259646    1.391737
      4          6           0       -3.078933   -0.097762    0.035861
      5          6           0       -2.118007    0.312348   -0.887026
      6          6           0       -0.824245    0.568898   -0.423441
      7          1           0        0.495977    0.617046    1.282728
      8          1           0       -1.258082   -0.117403    2.885631
      9          1           0       -3.581265   -0.580678    2.068144
     10          1           0       -2.387325    0.423000   -1.930406
     11          1           0       -0.060249    0.889550   -1.125962
     12          7           0       -4.452114   -0.372331   -0.443082
     13          8           0       -4.673771   -0.222207   -1.642651
     14          8           0       -5.280755   -0.732465    0.390162
     15          6           0        3.261562    0.655921   -0.438350
     16          6           0        3.483822    1.965072    0.319747
     17          6           0        2.697362    3.133548   -0.275182
     18          1           0        3.548226    0.795219   -1.489713
     19          1           0        2.189173    0.416402   -0.435865
     20          1           0        4.555637    2.201334    0.317022
     21          1           0        3.196776    1.822586    1.369471
     22          1           0        1.623062    2.923355   -0.257922
     23          1           0        2.989643    3.304254   -1.316350
     24          1           0        2.870902    4.059406    0.282073
     25          6           0        4.041136   -0.521497    0.144471
     26          6           0        3.818876   -1.830647   -0.613625
     27          6           0        4.605335   -2.999123   -0.018696
     28          1           0        5.113526   -0.281977    0.141987
     29          1           0        3.754473   -0.660794    1.195835
     30          1           0        4.105921   -1.688163   -1.663349
     31          1           0        2.747061   -2.066909   -0.610900
     32          1           0        4.313055   -3.169829    1.022473
     33          1           0        5.679636   -2.788930   -0.035956
     34          1           0        4.431797   -3.924980   -0.575950
 ---------------------------------------------------------------------

 SCF Done:  E(RHF) =  -669.534716072     A.U. after   15 cycles
 E2 =    -0.2093178015D+01 EUMP2 =    -0.67162789408637D+03

 The electronic state is 1-A.
 Alpha  occ. eigenvalues --  -20.60766 -20.60761 -15.85819 -11.31197 -11.27766
 Alpha  occ. eigenvalues --  -11.27757 -11.27487 -11.26778 -11.26742 -11.22788
 Alpha  occ. eigenvalues --  -11.22616 -11.22399 -11.22339 -11.22190 -11.21699
 Alpha  occ. eigenvalues --   -1.59841  -1.39394  -1.19368  -1.09512  -1.08759
 Alpha  occ. eigenvalues --   -1.04773  -1.04498  -0.96949  -0.95599  -0.87960
 Alpha  occ. eigenvalues --   -0.86182  -0.82426  -0.80577  -0.79316  -0.77468
 Alpha  occ. eigenvalues --   -0.72039  -0.71164  -0.70540  -0.66225  -0.65010
 Alpha  occ. eigenvalues --   -0.64730  -0.62176  -0.61827  -0.60310  -0.58552
 Alpha  occ. eigenvalues --   -0.56278  -0.55255  -0.53596  -0.53387  -0.53071
 Alpha  occ. eigenvalues --   -0.52873  -0.50900  -0.48887  -0.48792  -0.48782
 Alpha  occ. eigenvalues --   -0.47621  -0.46804  -0.46745  -0.44797  -0.44769
 Alpha  occ. eigenvalues --   -0.37340  -0.36367
 Alpha virt. eigenvalues --    0.05049   0.11126   0.16529   0.18665   0.22475
 Alpha virt. eigenvalues --    0.23827   0.24874   0.25396   0.27022   0.28121
 Alpha virt. eigenvalues --    0.29723   0.29845   0.30933   0.31217   0.31804

 Mulliken charges:
               1
     1  C   -0.174758
     2  C   -0.219505
     3  C   -0.170696
     4  C    0.158319
     5  C   -0.170892
     6  C   -0.223804
     7  H    0.231070
     8  H    0.223565
     9  H    0.275663
    10  H    0.275950
    11  H    0.228608
    12  N    0.488040
    13  O   -0.460242
    14  O   -0.460341
    15  C   -0.307959
    16  C   -0.302130
    17  C   -0.479583
    18  H    0.154750
    19  H    0.143674
    20  H    0.158662
    21  H    0.147773
    22  H    0.150652
    23  H    0.159075
    24  H    0.166081
    25  C   -0.297670
    26  C   -0.301118
    27  C   -0.476194
    28  H    0.153850
    29  H    0.147100
    30  H    0.153911
    31  H    0.152769
    32  H    0.155323
    33  H    0.156610
    34  H    0.163446
 Sum of Mulliken charges =  -0.00000

 Dipole moment (field-independent basis, Debye):
    X=              5.0448    Y=              0.9513    Z=              1.6415  Tot=              5.3897
 Quadrupole moment (field-independent basis, Debye-Ang):
   XX=           -123.4236   YY=            -95.8522   ZZ=            -90.0442
   XY=             -2.3805   XZ=             -7.3612   YZ=             -1.2592

 Normal termination of Gaussian 16 at Thu May  6 03:13:35 2021.
