 Gaussian 16, Revision A.03,
 Gaussian 16:  EM64L-G16RevA.03 25-Dec-2016

 -------------
 #p 6-31g* mp2
 -------------

 ------------------------------------------------------
 Input file generated by CHIRIPA (05-May-2021 14:55:20)
 ------------------------------------------------------
 Symbolic Z-matrix:
 Charge =  0 Multiplicity = 1

                         Standard orientation:
 ---------------------------------------------------------------------
 Center     Atomic      Atomic             Coordinates (Angstroms)
 Number     Number       Type             X           Y           Z
 ---------------------------------------------------------------------
      1          6           0       -0.361996   -0.494935   -0.569794
      2          6           0       -0.831723    0.808063   -0.374665
      3          6           0       -2.184487    1.043160   -0.111402
      4          6           0       -3.043554   -0.052979   -0.049978
      5          6           0       -2.605937   -1.362828   -0.239915
      6          6           0       -1.249038   -1.574319   -0.501916
      7          1           0        0.690470   -0.668395   -0.773813
      8          1           0       -0.145121    1.648243   -0.426806
      9          1           0       -2.574944    2.041625    0.043610
     10          1           0       -3.314464   -2.180167   -0.181891
     11          1           0       -0.887052   -2.587320   -0.653042
     12          7           0       -4.477854    0.183412    0.228059
     13          8           0       -5.214358   -0.799338    0.277068
     14          8           0       -4.838395    1.346969    0.391710
     15          6           0        3.739340   -0.555640   -0.207076
     16          6           0        3.576070   -1.743546    0.741716
     17          6           0        3.871932   -3.083600    0.067540
     18          1           0        3.072085   -0.689018   -1.069587
     19          1           0        4.764381   -0.549622   -0.602869
     20          1           0        2.552050   -1.746521    1.136673
     21          1           0        4.243652   -1.607230    1.602163
     22          1           0        4.898822   -3.105778   -0.311414
     23          1           0        3.197609   -3.245861   -0.779549
     24          1           0        3.749131   -3.919065    0.763801
     25          6           0        3.447001    0.791004    0.452329
     26          6           0        3.610272    1.978910   -0.496463
     27          6           0        3.314409    3.318964    0.177713
     28          1           0        2.421961    0.784986    0.848122
     29          1           0        4.114256    0.924382    1.314840
     30          1           0        2.942690    1.842593   -1.356910
     31          1           0        4.634291    1.981885   -0.891420
     32          1           0        3.988733    3.481225    1.024803
     33          1           0        2.287520    3.341142    0.556668
     34          1           0        3.437210    4.154429   -0.518547
 ---------------------------------------------------------------------

 SCF Done:  E(RHF) =  -669.535351967     A.U. after   15 cycles
 E2 =    -0.2092801033D+01 EUMP2 =    -0.67162815299964D+03

 The electronic state is 1-A.
 Alpha  occ. eigenvalues --  -20.60762 -20.60757 -15.85816 -11.31190 -11.27759
 Alpha  occ. eigenvalues --  -11.27756 -11.27464 -11.26774 -11.26763 -11.22721
 Alpha  occ. eigenvalues --  -11.22710 -11.22644 -11.22535 -11.22079 -11.22071
 Alpha  occ. eigenvalues --   -1.59837  -1.39390  -1.19362  -1.09626  -1.08749
 Alpha  occ. eigenvalues --   -1.04767  -1.04627  -0.97075  -0.95587  -0.88079
 Alpha  occ. eigenvalues --   -0.86162  -0.82422  -0.80675  -0.79415  -0.77467
 Alpha  occ. eigenvalues --   -0.72033  -0.71160  -0.70548  -0.66302  -0.65010
 Alpha  occ. eigenvalues --   -0.64716  -0.62214  -0.61946  -0.60421  -0.58665
 Alpha  occ. eigenvalues --   -0.56473  -0.55158  -0.53718  -0.53469  -0.53092
 Alpha  occ. eigenvalues --   -0.52853  -0.51025  -0.48982  -0.48789  -0.48787
 Alpha  occ. eigenvalues --   -0.47738  -0.46943  -0.46897  -0.44896  -0.44794
 Alpha  occ. eigenvalues --   -0.37328  -0.36369
 Alpha virt. eigenvalues --    0.05043   0.11205   0.16447   0.17588   0.21444
 Alpha virt. eigenvalues --    0.23760   0.25243   0.25896   0.26656   0.27655
 Alpha virt. eigenvalues --    0.29721   0.30404   0.30826   0.31445   0.32394

 Mulliken charges:
               1
     1  C   -0.177745
     2  C   -0.225443
     3  C   -0.170870
     4  C    0.158466
     5  C   -0.170508
     6  C   -0.221849
     7  H    0.238713
     8  H    0.226937
     9  H    0.275842
    10  H    0.275659
    11  H    0.224036
    12  N    0.487983
    13  O   -0.460387
    14  O   -0.460352
    15  C   -0.303682
    16  C   -0.303433
    17  C   -0.475558
    18  H    0.140918
    19  H    0.157168
    20  H    0.150790
    21  H    0.157867
    22  H    0.159253
    23  H    0.150166
    24  H    0.164245
    25  C   -0.303664
    26  C   -0.301480
    27  C   -0.476800
    28  H    0.147560
    29  H    0.156290
    30  H    0.146914
    31  H    0.157234
    32  H    0.160035
    33  H    0.151306
    34  H    0.164387
 Sum of Mulliken charges =  -0.00000

 Dipole moment (field-independent basis, Debye):
    X=              5.3268    Y=             -0.8146    Z=             -0.8914  Tot=              5.4620
 Quadrupole moment (field-independent basis, Debye-Ang):
   XX=           -123.6537   YY=            -90.4627   ZZ=            -95.5657
   XY=              3.6343   XZ=              3.4481   YZ=              0.0106

 Normal termination of Gaussian 16 at Wed May  5 22:09:34 2021.
