 Gaussian 16, Revision A.03,
 Gaussian 16:  EM64L-G16RevA.03 25-Dec-2016

 -------------
 #p 6-31g* mp2
 -------------

 ------------------------------------------------------
 Input file generated by CHIRIPA (05-May-2021 14:55:23)
 ------------------------------------------------------
 Symbolic Z-matrix:
 Charge =  0 Multiplicity = 1

                         Standard orientation:
 ---------------------------------------------------------------------
 Center     Atomic      Atomic             Coordinates (Angstroms)
 Number     Number       Type             X           Y           Z
 ---------------------------------------------------------------------
      1          6           0       -2.161803   -2.241988    0.892500
      2          6           0       -2.930460   -1.985100   -0.247542
      3          6           0       -3.248261   -0.672401   -0.608612
      4          6           0       -2.778797    0.364072    0.196756
      5          6           0       -2.010981    0.140368    1.338556
      6          6           0       -1.705321   -1.180306    1.680521
      7          1           0       -1.919643   -3.264822    1.165567
      8          1           0       -3.286326   -2.807646   -0.861402
      9          1           0       -3.841580   -0.445079   -1.485946
     10          1           0       -1.670524    0.981087    1.930753
     11          1           0       -1.108188   -1.376827    2.566442
     12          7           0       -3.108812    1.757989   -0.175380
     13          8           0       -2.683151    2.653590    0.550807
     14          8           0       -3.786889    1.928545   -1.186201
     15          6           0        3.994295   -0.001816    0.214973
     16          6           0        5.261813    0.663843   -0.321946
     17          6           0        6.266576    0.998153    0.780997
     18          1           0        3.523515    0.662121    0.952875
     19          1           0        4.269985   -0.920109    0.751747
     20          1           0        4.983693    1.579881   -0.858735
     21          1           0        5.729526   -0.001672   -1.058797
     22          1           0        6.572681    0.090572    1.311278
     23          1           0        5.822609    1.681111    1.512478
     24          1           0        7.165091    1.473234    0.375006
     25          6           0        2.980185   -0.342088   -0.875680
     26          6           0        1.712668   -1.007747   -0.338760
     27          6           0        0.707904   -1.342055   -1.441703
     28          1           0        2.704495    0.576206   -1.412454
     29          1           0        3.450964   -1.006024   -1.613582
     30          1           0        1.244953   -0.342231    0.398090
     31          1           0        1.990787   -1.923783    0.198028
     32          1           0        1.151871   -2.025014   -2.173184
     33          1           0        0.401800   -0.434475   -1.971985
     34          1           0       -0.190610   -1.817137   -1.035713
 ---------------------------------------------------------------------

 SCF Done:  E(RHF) =  -669.534361856     A.U. after   15 cycles
 E2 =    -0.2094083363D+01 EUMP2 =    -0.67162844521835D+03

 The electronic state is 1-A.
 Alpha  occ. eigenvalues --  -20.60848 -20.60842 -15.85901 -11.31305 -11.27876
 Alpha  occ. eigenvalues --  -11.27848 -11.27577 -11.26877 -11.26851 -11.21747
 Alpha  occ. eigenvalues --  -11.21670 -11.21511 -11.21440 -11.21141 -11.20985
 Alpha  occ. eigenvalues --   -1.59922  -1.39475  -1.19480  -1.08876  -1.08523
 Alpha  occ. eigenvalues --   -1.04876  -1.03608  -0.96050  -0.95692  -0.87071
 Alpha  occ. eigenvalues --   -0.86270  -0.82519  -0.79689  -0.78354  -0.77559
 Alpha  occ. eigenvalues --   -0.72118  -0.71245  -0.70574  -0.65165  -0.65119
 Alpha  occ. eigenvalues --   -0.64868  -0.62215  -0.61018  -0.59534  -0.57765
 Alpha  occ. eigenvalues --   -0.55376  -0.55353  -0.53630  -0.52959  -0.52568
 Alpha  occ. eigenvalues --   -0.52030  -0.49989  -0.48880  -0.48872  -0.48006
 Alpha  occ. eigenvalues --   -0.46734  -0.45894  -0.45821  -0.44872  -0.43881
 Alpha  occ. eigenvalues --   -0.37376  -0.36422
 Alpha virt. eigenvalues --    0.04938   0.11126   0.16385   0.21200   0.22803
 Alpha virt. eigenvalues --    0.24303   0.26413   0.26883   0.27752   0.27898
 Alpha virt. eigenvalues --    0.28291   0.30882   0.31271   0.31862   0.32391

 Mulliken charges:
               1
     1  C   -0.175575
     2  C   -0.219100
     3  C   -0.168197
     4  C    0.160111
     5  C   -0.171770
     6  C   -0.212306
     7  H    0.226757
     8  H    0.224600
     9  H    0.276269
    10  H    0.276012
    11  H    0.224867
    12  N    0.487866
    13  O   -0.460322
    14  O   -0.459878
    15  C   -0.298087
    16  C   -0.299828
    17  C   -0.475796
    18  H    0.149013
    19  H    0.147290
    20  H    0.153856
    21  H    0.151824
    22  H    0.154113
    23  H    0.155493
    24  H    0.160973
    25  C   -0.298523
    26  C   -0.298279
    27  C   -0.483615
    28  H    0.152618
    29  H    0.149258
    30  H    0.149914
    31  H    0.145299
    32  H    0.151502
    33  H    0.156689
    34  H    0.166951
 Sum of Mulliken charges =  -0.00000

 Dipole moment (field-independent basis, Debye):
    X=              1.0117    Y=             -4.8752    Z=              1.3375  Tot=              5.1556
 Quadrupole moment (field-independent basis, Debye-Ang):
   XX=           -100.9824   YY=            -97.6394   ZZ=            -91.8408
   XY=             14.8272   XZ=             -1.7505   YZ=              0.7900

 Normal termination of Gaussian 16 at Thu May  6 07:54:17 2021.
