 Gaussian 16, Revision A.03,
 Gaussian 16:  EM64L-G16RevA.03 25-Dec-2016

 -------------
 #p 6-31g* mp2
 -------------

 ------------------------------------------------------
 Input file generated by CHIRIPA (05-May-2021 14:57:27)
 ------------------------------------------------------
 Symbolic Z-matrix:
 Charge =  0 Multiplicity = 1

                         Standard orientation:
 ---------------------------------------------------------------------
 Center     Atomic      Atomic             Coordinates (Angstroms)
 Number     Number       Type             X           Y           Z
 ---------------------------------------------------------------------
      1          6           0       -1.721484   -2.108477    0.499679
      2          6           0       -1.350661   -0.781793    0.742415
      3          6           0       -2.261206    0.258940    0.536670
      4          6           0       -3.539981   -0.064478    0.085643
      5          6           0       -3.939410   -1.376284   -0.165174
      6          6           0       -3.012399   -2.400973    0.047457
      7          1           0       -1.007756   -2.910712    0.662181
      8          1           0       -0.348804   -0.551677    1.093660
      9          1           0       -2.000571    1.294840    0.716670
     10          1           0       -4.945320   -1.574491   -0.514858
     11          1           0       -3.303157   -3.430368   -0.141885
     12          7           0       -4.512650    1.028807   -0.135814
     13          8           0       -5.633167    0.717549   -0.533554
     14          8           0       -4.136093    2.176281    0.092540
     15          6           0        2.701334    2.672963   -0.026541
     16          6           0        4.007090    2.297320    0.305743
     17          6           0        4.394022    0.954789    0.256327
     18          6           0        3.445253    0.009905   -0.131385
     19          6           0        2.136757    0.352759   -0.468398
     20          6           0        1.771972    1.701198   -0.411872
     21          1           0        2.409358    3.718168    0.014608
     22          1           0        4.730955    3.049851    0.605347
     23          1           0        5.398243    0.636265    0.508319
     24          1           0        1.437416   -0.420118   -0.763358
     25          1           0        0.757207    1.990023   -0.670477
     26          7           0        3.843157   -1.414499   -0.187463
     27          8           0        2.988510   -2.227764   -0.532161
     28          8           0        5.002146   -1.690712    0.114344
 ---------------------------------------------------------------------

 SCF Done:  E(RHF) =  -868.338585062     A.U. after   16 cycles
 E2 =    -0.2600406349D+01 EUMP2 =    -0.87093899141131D+03

 The electronic state is 1-A.
 Alpha  occ. eigenvalues --  -20.61520 -20.61481 -20.61125 -20.61103 -15.86555
 Alpha  occ. eigenvalues --  -15.86171 -11.31885 -11.31517 -11.28451 -11.28407
 Alpha  occ. eigenvalues --  -11.28163 -11.28114 -11.28048 -11.27700 -11.27451
 Alpha  occ. eigenvalues --  -11.27390 -11.27055 -11.26988  -1.60578  -1.60193
 Alpha  occ. eigenvalues --   -1.40134  -1.39748  -1.20047  -1.19677  -1.09430
 Alpha  occ. eigenvalues --   -1.09044  -1.05457  -1.05079  -0.96277  -0.95888
 Alpha  occ. eigenvalues --   -0.86842  -0.86457  -0.83123  -0.82724  -0.78207
 Alpha  occ. eigenvalues --   -0.77786  -0.72772  -0.72386  -0.71903  -0.71517
 Alpha  occ. eigenvalues --   -0.71124  -0.70710  -0.65698  -0.65498  -0.65302
 Alpha  occ. eigenvalues --   -0.65011  -0.62905  -0.62305  -0.55897  -0.55469
 Alpha  occ. eigenvalues --   -0.53814  -0.53570  -0.53386  -0.53050  -0.49536
 Alpha  occ. eigenvalues --   -0.49516  -0.49151  -0.49135  -0.45548  -0.45160
 Alpha  occ. eigenvalues --   -0.37997  -0.37606  -0.37086  -0.36670
 Alpha virt. eigenvalues --    0.04299   0.04726   0.10473   0.10905   0.15736
 Alpha virt. eigenvalues --    0.16207   0.19980   0.21967   0.25498   0.26943
 Alpha virt. eigenvalues --    0.28218   0.28708   0.30295   0.31021   0.31511

 Mulliken charges:
               1
     1  C   -0.171247
     2  C   -0.228605
     3  C   -0.176807
     4  C    0.159304
     5  C   -0.170028
     6  C   -0.218297
     7  H    0.237153
     8  H    0.227616
     9  H    0.270314
    10  H    0.276902
    11  H    0.226833
    12  N    0.488316
    13  O   -0.458352
    14  O   -0.463321
    15  C   -0.169878
    16  C   -0.217869
    17  C   -0.170263
    18  C    0.159198
    19  C   -0.181118
    20  C   -0.224283
    21  H    0.230351
    22  H    0.226666
    23  H    0.277490
    24  H    0.276086
    25  H    0.227313
    26  N    0.488447
    27  O   -0.465099
    28  O   -0.456820
 Sum of Mulliken charges =  -0.00000

 Dipole moment (field-independent basis, Debye):
    X=              2.1362    Y=              1.0992    Z=              0.9800  Tot=              2.5946
 Quadrupole moment (field-independent basis, Debye-Ang):
   XX=           -131.4310   YY=           -101.7498   ZZ=           -105.4715
   XY=             35.7596   XZ=              1.1795   YZ=              0.3706

 Normal termination of Gaussian 16 at Thu May  6 03:37:58 2021.
