 Gaussian 16, Revision A.03,
 Gaussian 16:  EM64L-G16RevA.03 25-Dec-2016

 -------------
 #p 6-31g* mp2
 -------------

 ------------------------------------------------------
 Input file generated by CHIRIPA (05-May-2021 14:51:12)
 ------------------------------------------------------
 Symbolic Z-matrix:
 Charge =  0 Multiplicity = 1

                         Standard orientation:
 ---------------------------------------------------------------------
 Center     Atomic      Atomic             Coordinates (Angstroms)
 Number     Number       Type             X           Y           Z
 ---------------------------------------------------------------------
      1          6           0       -3.602880    0.292489    0.571150
      2          6           0       -4.700269   -0.531635   -0.103047
      3          6           0       -5.643128   -1.194735    0.901497
      4          1           0       -3.026260   -0.357092    1.243830
      5          1           0       -4.067713    1.062342    1.202539
      6          1           0       -4.233504   -1.298819   -0.734058
      7          1           0       -5.274223    0.119942   -0.774346
      8          1           0       -6.135484   -0.440370    1.523687
      9          1           0       -5.088852   -1.867192    1.564204
     10          1           0       -6.419831   -1.778775    0.398020
     11          6           0       -2.652326    0.961614   -0.420034
     12          6           0       -1.554937    1.785738    0.254163
     13          6           0       -0.612078    2.448838   -0.750381
     14          1           0       -2.187493    0.191761   -1.051423
     15          1           0       -3.228946    1.611195   -1.092714
     16          1           0       -0.980983    1.134161    0.925462
     17          1           0       -2.021702    2.552922    0.885174
     18          1           0       -1.166354    3.121295   -1.413087
     19          1           0       -0.119722    1.694474   -1.372571
     20          1           0        0.164626    3.032878   -0.246904
     21          6           0        2.643570   -1.213007   -0.151723
     22          6           0        1.286586   -0.807573   -0.728092
     23          6           0        0.329172   -1.990673   -0.874478
     24          1           0        3.097027   -1.975483   -0.799759
     25          1           0        2.491310   -1.686104    0.828273
     26          1           0        1.441471   -0.334133   -1.706090
     27          1           0        0.836392   -0.045835   -0.078711
     28          1           0        0.145263   -2.459960    0.097402
     29          1           0        0.753782   -2.749897   -1.539224
     30          1           0       -0.634728   -1.678290   -1.288209
     31          6           0        3.611636   -0.041096    0.000607
     32          6           0        4.968620   -0.446530    0.576975
     33          6           0        5.926034    0.736570    0.723362
     34          1           0        3.763896    0.432001   -0.979389
     35          1           0        3.158179    0.721380    0.648643
     36          1           0        5.418815   -1.208269   -0.072405
     37          1           0        4.813734   -0.919970    1.554973
     38          1           0        5.501424    1.495793    1.388108
     39          1           0        6.109942    1.205857   -0.248518
     40          1           0        6.889933    0.424186    1.137092
 ---------------------------------------------------------------------

 SCF Done:  E(RHF) =  -470.731466092     A.U. after   11 cycles
 E2 =    -0.1585101765D+01 EUMP2 =    -0.47231656785687D+03

 The electronic state is 1-A.
 Alpha  occ. eigenvalues --  -11.21614 -11.21599 -11.21592 -11.21584 -11.21425
 Alpha  occ. eigenvalues --  -11.21387 -11.21365 -11.21327 -11.21149 -11.21078
 Alpha  occ. eigenvalues --  -11.21060 -11.20932  -1.08500  -1.08383  -1.03643
 Alpha  occ. eigenvalues --   -1.03443  -0.96024  -0.95952  -0.87072  -0.86934
 Alpha  occ. eigenvalues --   -0.79669  -0.79563  -0.78294  -0.78234  -0.65304
 Alpha  occ. eigenvalues --   -0.64923  -0.61261  -0.60735  -0.59357  -0.59266
 Alpha  occ. eigenvalues --   -0.57599  -0.57564  -0.55319  -0.55284  -0.52734
 Alpha  occ. eigenvalues --   -0.52639  -0.52509  -0.52310  -0.49960  -0.49955
 Alpha  occ. eigenvalues --   -0.48042  -0.47708  -0.46833  -0.46475  -0.45888
 Alpha  occ. eigenvalues --   -0.45783  -0.45626  -0.45551  -0.43797  -0.43758
 Alpha virt. eigenvalues --    0.20267   0.23000   0.23869   0.24650   0.25604
 Alpha virt. eigenvalues --    0.26297   0.26675   0.27554   0.28961   0.29349
 Alpha virt. eigenvalues --    0.30527   0.30968   0.31723   0.31800   0.32196

 Mulliken charges:
               1
     1  C   -0.298206
     2  C   -0.299744
     3  C   -0.475687
     4  H    0.149812
     5  H    0.149502
     6  H    0.151757
     7  H    0.151919
     8  H    0.155115
     9  H    0.155260
    10  H    0.160255
    11  C   -0.303295
    12  C   -0.302923
    13  C   -0.481800
    14  H    0.154427
    15  H    0.149921
    16  H    0.152110
    17  H    0.152720
    18  H    0.154771
    19  H    0.163248
    20  H    0.159297
    21  C   -0.297101
    22  C   -0.309513
    23  C   -0.480095
    24  H    0.149503
    25  H    0.149170
    26  H    0.151758
    27  H    0.163538
    28  H    0.155021
    29  H    0.155915
    30  H    0.163055
    31  C   -0.298393
    32  C   -0.299654
    33  C   -0.475716
    34  H    0.149759
    35  H    0.149662
    36  H    0.151986
    37  H    0.151869
    38  H    0.155202
    39  H    0.155294
    40  H    0.160284
 Sum of Mulliken charges =  -0.00000

 Dipole moment (field-independent basis, Debye):
    X=              0.0235    Y=             -0.0099    Z=             -0.0097  Tot=              0.0272
 Quadrupole moment (field-independent basis, Debye-Ang):
   XX=            -85.5739   YY=            -85.0771   ZZ=            -84.2660
   XY=             -1.5217   XZ=             -0.0062   YZ=              0.3376

 Normal termination of Gaussian 16 at Wed May  5 21:32:46 2021.
