 Gaussian 16, Revision A.03,
 Gaussian 16:  EM64L-G16RevA.03 25-Dec-2016

 -------------
 #p 6-31g* mp2
 -------------

 ------------------------------------------------------
 Input file generated by CHIRIPA (05-May-2021 14:53:14)
 ------------------------------------------------------
 Symbolic Z-matrix:
 Charge =  0 Multiplicity = 1

                         Standard orientation:
 ---------------------------------------------------------------------
 Center     Atomic      Atomic             Coordinates (Angstroms)
 Number     Number       Type             X           Y           Z
 ---------------------------------------------------------------------
      1          6           0       -3.401597    0.725629    0.546617
      2          6           0       -2.509682    1.773656   -0.119801
      3          6           0       -1.960037    2.799149    0.872192
      4          1           0       -4.235122    1.231310    1.053045
      5          1           0       -2.827575    0.209556    1.328640
      6          1           0       -3.084799    2.286648   -0.901270
      7          1           0       -1.678289    1.265409   -0.624863
      8          1           0       -1.363240    2.305281    1.645838
      9          1           0       -2.777741    3.332323    1.367860
     10          1           0       -1.325165    3.538838    0.374541
     11          6           0       -3.958677   -0.306532   -0.432176
     12          6           0       -4.850593   -1.354558    0.234242
     13          6           0       -5.400237   -2.380051   -0.757751
     14          1           0       -4.532700    0.209542   -1.214199
     15          1           0       -3.125153   -0.812212   -0.938604
     16          1           0       -5.681985   -0.846311    0.739304
     17          1           0       -4.275475   -1.867550    1.015712
     18          1           0       -4.582534   -2.913225   -1.253419
     19          1           0       -5.997035   -1.886184   -1.531397
     20          1           0       -6.035110   -3.119740   -0.260100
     21          6           0        3.701720   -2.505483    0.401093
     22          6           0        4.591866   -1.521229   -0.040954
     23          6           0        4.144945   -0.220372   -0.291118
     24          6           0        2.795193    0.062684   -0.087802
     25          6           0        1.883798   -0.896113    0.351922
     26          6           0        2.352905   -2.190339    0.595777
     27          1           0        4.057517   -3.513443    0.592976
     28          1           0        5.639920   -1.763113   -0.193012
     29          1           0        4.812431    0.560875   -0.633951
     30          1           0        0.844791   -0.624848    0.494393
     31          1           0        1.659338   -2.952703    0.939012
     32          7           0        2.310314    1.436333   -0.349299
     33          8           0        1.116331    1.660257   -0.162486
     34          8           0        3.133431    2.263064   -0.736123
 ---------------------------------------------------------------------

 SCF Done:  E(RHF) =  -669.535759610     A.U. after   15 cycles
 E2 =    -0.2091809032D+01 EUMP2 =    -0.67162756864244D+03

 The electronic state is 1-A.
 Alpha  occ. eigenvalues --  -20.60949 -20.60944 -15.85981 -11.31310 -11.27880
 Alpha  occ. eigenvalues --  -11.27869 -11.27609 -11.26883 -11.26872 -11.21426
 Alpha  occ. eigenvalues --  -11.21043 -11.20979 -11.20791 -11.20477 -11.19692
 Alpha  occ. eigenvalues --   -1.60012  -1.39569  -1.19479  -1.08882  -1.07909
 Alpha  occ. eigenvalues --   -1.04877  -1.02865  -0.95735  -0.95312  -0.86354
 Alpha  occ. eigenvalues --   -0.86274  -0.82559  -0.79002  -0.77686  -0.77574
 Alpha  occ. eigenvalues --   -0.72223  -0.71325  -0.70588  -0.65147  -0.64881
 Alpha  occ. eigenvalues --   -0.64545  -0.62226  -0.60245  -0.58765  -0.56884
 Alpha  occ. eigenvalues --   -0.55379  -0.54621  -0.53208  -0.52969  -0.51974
 Alpha  occ. eigenvalues --   -0.51758  -0.49333  -0.48975  -0.48930  -0.47280
 Alpha  occ. eigenvalues --   -0.46096  -0.45239  -0.45189  -0.44777  -0.43131
 Alpha  occ. eigenvalues --   -0.37456  -0.36479
 Alpha virt. eigenvalues --    0.04901   0.11175   0.16388   0.20640   0.22891
 Alpha virt. eigenvalues --    0.24457   0.26555   0.27479   0.27917   0.28638
 Alpha virt. eigenvalues --    0.28890   0.30778   0.31635   0.32199   0.32971

 Mulliken charges:
               1
     1  C   -0.297538
     2  C   -0.303948
     3  C   -0.468498
     4  H    0.148190
     5  H    0.142245
     6  H    0.147701
     7  H    0.164306
     8  H    0.153016
     9  H    0.144191
    10  H    0.172926
    11  C   -0.296894
    12  C   -0.298557
    13  C   -0.475075
    14  H    0.150514
    15  H    0.145158
    16  H    0.152604
    17  H    0.147846
    18  H    0.152767
    19  H    0.156103
    20  H    0.158848
    21  C   -0.170557
    22  C   -0.218546
    23  C   -0.170664
    24  C    0.157662
    25  C   -0.171176
    26  C   -0.218650
    27  H    0.226103
    28  H    0.223908
    29  H    0.275920
    30  H    0.275841
    31  H    0.223966
    32  N    0.495254
    33  O   -0.465914
    34  O   -0.459053
 Sum of Mulliken charges =  -0.00000

 Dipole moment (field-independent basis, Debye):
    X=              1.9983    Y=             -4.7264    Z=              0.8453  Tot=              5.2006
 Quadrupole moment (field-independent basis, Debye-Ang):
   XX=            -81.2197   YY=            -95.7632   ZZ=            -95.9394
   XY=            -13.1136   XZ=              1.1157   YZ=             -0.7467

 Normal termination of Gaussian 16 at Wed May  5 17:03:59 2021.
