 Gaussian 16, Revision A.03,
 Gaussian 16:  EM64L-G16RevA.03 25-Dec-2016

 -------------
 #p 6-31g* mp2
 -------------

 ------------------------------------------------------
 Input file generated by CHIRIPA (05-May-2021 14:53:17)
 ------------------------------------------------------
 Symbolic Z-matrix:
 Charge =  0 Multiplicity = 1

                         Standard orientation:
 ---------------------------------------------------------------------
 Center     Atomic      Atomic             Coordinates (Angstroms)
 Number     Number       Type             X           Y           Z
 ---------------------------------------------------------------------
      1          6           0       -2.227551    1.149981   -0.261692
      2          6           0       -2.142751    2.291843    0.751691
      3          6           0       -1.057327    3.311140    0.404297
      4          1           0       -1.253321    0.645390   -0.318336
      5          1           0       -2.421531    1.567972   -1.259214
      6          1           0       -1.950365    1.871722    1.747232
      7          1           0       -3.117351    2.793653    0.806070
      8          1           0       -1.247956    3.757557   -0.577015
      9          1           0       -0.074338    2.830388    0.369494
     10          1           0       -1.014120    4.118686    1.141768
     11          6           0       -3.308051    0.122884    0.071957
     12          6           0       -3.392852   -1.018978   -0.941426
     13          6           0       -4.478275   -2.038275   -0.594032
     14          1           0       -3.114072   -0.295106    1.069479
     15          1           0       -4.282282    0.627475    0.128601
     16          1           0       -2.418251   -1.520788   -0.995805
     17          1           0       -3.585238   -0.598857   -1.936967
     18          1           0       -5.461264   -1.557523   -0.559229
     19          1           0       -4.287647   -2.484692    0.387280
     20          1           0       -4.521482   -2.845821   -1.331503
     21          6           0        1.292901   -2.650484    1.060733
     22          6           0        1.193706   -1.458184    1.785374
     23          6           0        1.672078   -0.259194    1.248597
     24          6           0        2.246399   -0.289042   -0.021267
     25          6           0        2.359651   -1.460781   -0.767922
     26          6           0        1.874531   -2.647981   -0.211360
     27          1           0        0.918669   -3.577308    1.485400
     28          1           0        0.742482   -1.457137    2.773524
     29          1           0        1.608008    0.678120    1.787813
     30          1           0        2.814493   -1.430306   -1.750576
     31          1           0        1.952901   -3.572440   -0.776407
     32          7           0        2.756403    0.974034   -0.600002
     33          8           0        3.258125    0.921127   -1.720767
     34          8           0        2.644763    1.993024    0.078107
 ---------------------------------------------------------------------

 SCF Done:  E(RHF) =  -669.536403265     A.U. after   15 cycles
 E2 =    -0.2092738169D+01 EUMP2 =    -0.67162914143394D+03

 The electronic state is 1-A.
 Alpha  occ. eigenvalues --  -20.60990 -20.60983 -15.86005 -11.31355 -11.27920
 Alpha  occ. eigenvalues --  -11.27899 -11.27642 -11.26922 -11.26908 -11.21727
 Alpha  occ. eigenvalues --  -11.21444 -11.21387 -11.21291 -11.21243 -11.20413
 Alpha  occ. eigenvalues --   -1.60039  -1.39596  -1.19518  -1.08915  -1.08387
 Alpha  occ. eigenvalues --   -1.04913  -1.03434  -0.95858  -0.95750  -0.86862
 Alpha  occ. eigenvalues --   -0.86311  -0.82585  -0.79505  -0.78188  -0.77637
 Alpha  occ. eigenvalues --   -0.72228  -0.71349  -0.70616  -0.65172  -0.65037
 Alpha  occ. eigenvalues --   -0.64904  -0.62261  -0.60834  -0.59265  -0.57466
 Alpha  occ. eigenvalues --   -0.55411  -0.55145  -0.53249  -0.52999  -0.52539
 Alpha  occ. eigenvalues --   -0.52260  -0.49808  -0.48986  -0.48981  -0.47811
 Alpha  occ. eigenvalues --   -0.46577  -0.45743  -0.45680  -0.44855  -0.43692
 Alpha  occ. eigenvalues --   -0.37485  -0.36501
 Alpha virt. eigenvalues --    0.04849   0.11081   0.16319   0.20986   0.22791
 Alpha virt. eigenvalues --    0.24116   0.26392   0.27158   0.27514   0.27707
 Alpha virt. eigenvalues --    0.28607   0.30571   0.31476   0.31810   0.31987

 Mulliken charges:
               1
     1  C   -0.299975
     2  C   -0.299185
     3  C   -0.484850
     4  H    0.148997
     5  H    0.151565
     6  H    0.143781
     7  H    0.150854
     8  H    0.156135
     9  H    0.170867
    10  H    0.158540
    11  C   -0.296572
    12  C   -0.299877
    13  C   -0.475253
    14  H    0.144610
    15  H    0.150197
    16  H    0.150566
    17  H    0.153626
    18  H    0.156474
    19  H    0.151909
    20  H    0.159310
    21  C   -0.170762
    22  C   -0.218604
    23  C   -0.171929
    24  C    0.158845
    25  C   -0.170738
    26  C   -0.218513
    27  H    0.226457
    28  H    0.224341
    29  H    0.277195
    30  H    0.276224
    31  H    0.224287
    32  N    0.488208
    33  O   -0.457933
    34  O   -0.458798
 Sum of Mulliken charges =  -0.00000

 Dipole moment (field-independent basis, Debye):
    X=             -1.5920    Y=             -4.4475    Z=              1.9560  Tot=              5.1128
 Quadrupole moment (field-independent basis, Debye-Ang):
   XX=           -103.4591   YY=            -91.7211   ZZ=            -91.3980
   XY=            -11.2774   XZ=              3.8889   YZ=              1.4275

 Normal termination of Gaussian 16 at Thu May  6 13:58:16 2021.
