 Gaussian 16, Revision A.03,
 Gaussian 16:  EM64L-G16RevA.03 25-Dec-2016

 -------------
 #p 6-31g* mp2
 -------------

 ------------------------------------------------------
 Input file generated by CHIRIPA (05-May-2021 14:55:25)
 ------------------------------------------------------
 Symbolic Z-matrix:
 Charge =  0 Multiplicity = 1

                         Standard orientation:
 ---------------------------------------------------------------------
 Center     Atomic      Atomic             Coordinates (Angstroms)
 Number     Number       Type             X           Y           Z
 ---------------------------------------------------------------------
      1          6           0        0.742312   -0.373962   -0.117201
      2          6           0        1.416741    0.646818   -0.795194
      3          6           0        2.812796    0.716016   -0.767105
      4          6           0        3.505948   -0.256438   -0.047965
      5          6           0        2.862727   -1.285722    0.637695
      6          6           0        1.466182   -1.335280    0.595823
      7          1           0       -0.342367   -0.420088   -0.144375
      8          1           0        0.857170    1.394747   -1.349746
      9          1           0        3.360266    1.495457   -1.283020
     10          1           0        3.447879   -2.016998    1.181985
     11          1           0        0.945069   -2.129165    1.123300
     12          7           0        4.984149   -0.193578   -0.010933
     13          8           0        5.571732   -1.062382    0.629819
     14          8           0        5.527190    0.723307   -0.623360
     15          6           0       -4.779730   -0.079398    0.272952
     16          6           0       -5.047257   -1.252593   -0.670462
     17          6           0       -6.258644   -2.085211   -0.249646
     18          1           0       -4.626887   -0.463219    1.290923
     19          1           0       -5.671166    0.561902    0.311266
     20          1           0       -4.155086   -1.890740   -0.708056
     21          1           0       -5.199291   -0.865950   -1.686339
     22          1           0       -7.162522   -1.467773   -0.230246
     23          1           0       -6.112383   -2.498387    0.753596
     24          1           0       -6.431695   -2.918479   -0.937815
     25          6           0       -3.571817    0.762402   -0.134536
     26          6           0       -3.304290    1.935597    0.808877
     27          6           0       -2.092903    2.768215    0.388062
     28          1           0       -2.680379    0.121102   -0.172851
     29          1           0       -3.724660    1.146224   -1.152507
     30          1           0       -3.152256    1.548954    1.824756
     31          1           0       -4.196461    2.573745    0.846472
     32          1           0       -2.239163    3.181391   -0.615180
     33          1           0       -1.189025    2.150777    0.368662
     34          1           0       -1.919852    3.601483    1.076231
 ---------------------------------------------------------------------

 SCF Done:  E(RHF) =  -669.535301601     A.U. after   15 cycles
 E2 =    -0.2092202614D+01 EUMP2 =    -0.67162750421495D+03

 The electronic state is 1-A.
 Alpha  occ. eigenvalues --  -20.60750 -20.60745 -15.85803 -11.31176 -11.27744
 Alpha  occ. eigenvalues --  -11.27733 -11.27460 -11.26758 -11.26734 -11.22605
 Alpha  occ. eigenvalues --  -11.22545 -11.22428 -11.22284 -11.22090 -11.21741
 Alpha  occ. eigenvalues --   -1.59825  -1.39378  -1.19346  -1.09416  -1.08740
 Alpha  occ. eigenvalues --   -1.04748  -1.04436  -0.96897  -0.95577  -0.87911
 Alpha  occ. eigenvalues --   -0.86144  -0.82408  -0.80507  -0.79242  -0.77450
 Alpha  occ. eigenvalues --   -0.72021  -0.71148  -0.70485  -0.66053  -0.64998
 Alpha  occ. eigenvalues --   -0.64749  -0.62110  -0.61812  -0.60258  -0.58506
 Alpha  occ. eigenvalues --   -0.56216  -0.55268  -0.53541  -0.53360  -0.53049
 Alpha  occ. eigenvalues --   -0.52821  -0.50840  -0.48818  -0.48779  -0.48770
 Alpha  occ. eigenvalues --   -0.47536  -0.46758  -0.46684  -0.44782  -0.44710
 Alpha  occ. eigenvalues --   -0.37312  -0.36346
 Alpha virt. eigenvalues --    0.05064   0.11191   0.16526   0.19078   0.22490
 Alpha virt. eigenvalues --    0.23752   0.24730   0.26000   0.26323   0.28103
 Alpha virt. eigenvalues --    0.29558   0.30403   0.30865   0.31180   0.31369

 Mulliken charges:
               1
     1  C   -0.178110
     2  C   -0.222882
     3  C   -0.171058
     4  C    0.158301
     5  C   -0.170591
     6  C   -0.221917
     7  H    0.238402
     8  H    0.226298
     9  H    0.275818
    10  H    0.275543
    11  H    0.223727
    12  N    0.487963
    13  O   -0.460461
    14  O   -0.460324
    15  C   -0.298265
    16  C   -0.299747
    17  C   -0.476237
    18  H    0.150573
    19  H    0.153554
    20  H    0.148414
    21  H    0.153710
    22  H    0.157189
    23  H    0.155825
    24  H    0.162428
    25  C   -0.304018
    26  C   -0.300175
    27  C   -0.481757
    28  H    0.140699
    29  H    0.152796
    30  H    0.154041
    31  H    0.156785
    32  H    0.155411
    33  H    0.151432
    34  H    0.166636
 Sum of Mulliken charges =  -0.00000

 Dipole moment (field-independent basis, Debye):
    X=             -5.4334    Y=             -0.1636    Z=             -0.1040  Tot=              5.4368
 Quadrupole moment (field-independent basis, Debye-Ang):
   XX=           -131.1034   YY=            -91.3824   ZZ=            -93.3232
   XY=             -0.6266   XZ=              0.2508   YZ=             -2.8532

 Normal termination of Gaussian 16 at Thu May  6 04:47:14 2021.
