 Gaussian 16, Revision A.03,
 Gaussian 16:  EM64L-G16RevA.03 25-Dec-2016

 -------------
 #p 6-31g* mp2
 -------------

 ------------------------------------------------------
 Input file generated by CHIRIPA (05-May-2021 14:57:27)
 ------------------------------------------------------
 Symbolic Z-matrix:
 Charge =  0 Multiplicity = 1

                         Standard orientation:
 ---------------------------------------------------------------------
 Center     Atomic      Atomic             Coordinates (Angstroms)
 Number     Number       Type             X           Y           Z
 ---------------------------------------------------------------------
      1          6           0       -2.328733   -2.284081    0.787745
      2          6           0       -2.831116   -1.411047    1.758283
      3          6           0       -3.326413   -0.155052    1.395368
      4          6           0       -3.304039    0.197041    0.046732
      5          6           0       -2.810049   -0.650627   -0.943583
      6          6           0       -2.319818   -1.901759   -0.557718
      7          1           0       -1.945943   -3.257879    1.078580
      8          1           0       -2.839288   -1.705297    2.803938
      9          1           0       -3.721119    0.540372    2.126128
     10          1           0       -2.815053   -0.329213   -1.978032
     11          1           0       -1.930267   -2.577719   -1.313609
     12          7           0       -3.825705    1.524132   -0.349618
     13          8           0       -3.794891    1.810612   -1.544447
     14          8           0       -4.255524    2.252698    0.542057
     15          6           0        4.979083    1.692545    0.575644
     16          6           0        5.317447    0.344815    0.415485
     17          6           0        4.349885   -0.589749    0.034745
     18          6           0        3.047813   -0.139854   -0.178539
     19          6           0        2.679618    1.196110   -0.027134
     20          6           0        3.663568    2.113151    0.354215
     21          1           0        5.737074    2.411731    0.871649
     22          1           0        6.338298    0.015315    0.586772
     23          1           0        4.584416   -1.639131   -0.096449
     24          1           0        1.653594    1.494519   -0.205027
     25          1           0        3.397916    3.159186    0.477841
     26          7           0        2.014824   -1.119960   -0.581933
     27          8           0        0.874777   -0.698229   -0.763804
     28          8           0        2.364772   -2.291338   -0.708605
 ---------------------------------------------------------------------

 SCF Done:  E(RHF) =  -868.339158120     A.U. after   16 cycles
 E2 =    -0.2599489472D+01 EUMP2 =    -0.87093864759176D+03

 The electronic state is 1-A.
 Alpha  occ. eigenvalues --  -20.61299 -20.61268 -20.60016 -20.60004 -15.86310
 Alpha  occ. eigenvalues --  -15.85051 -11.31482 -11.30095 -11.28047 -11.27998
 Alpha  occ. eigenvalues --  -11.27737 -11.27015 -11.26971 -11.26665 -11.26515
 Alpha  occ. eigenvalues --  -11.26245 -11.25668 -11.25435  -1.60363  -1.59096
 Alpha  occ. eigenvalues --   -1.39918  -1.38657  -1.19639  -1.18209  -1.09074
 Alpha  occ. eigenvalues --   -1.07670  -1.05008  -1.03560  -0.95941  -0.94567
 Alpha  occ. eigenvalues --   -0.86416  -0.84987  -0.82776  -0.81413  -0.77844
 Alpha  occ. eigenvalues --   -0.76505  -0.72552  -0.71670  -0.71282  -0.70743
 Alpha  occ. eigenvalues --   -0.70414  -0.69340  -0.65293  -0.65007  -0.63872
 Alpha  occ. eigenvalues --   -0.63581  -0.62353  -0.60939  -0.55521  -0.54090
 Alpha  occ. eigenvalues --   -0.53355  -0.53095  -0.51910  -0.51674  -0.49314
 Alpha  occ. eigenvalues --   -0.49280  -0.48051  -0.48007  -0.45360  -0.44135
 Alpha  occ. eigenvalues --   -0.37615  -0.36604  -0.36152  -0.35064
 Alpha virt. eigenvalues --    0.04668   0.06004   0.11052   0.12547   0.16208
 Alpha virt. eigenvalues --    0.17604   0.21232   0.22564   0.27160   0.28105
 Alpha virt. eigenvalues --    0.28489   0.29399   0.30808   0.32108   0.32331

 Mulliken charges:
               1
     1  C   -0.170819
     2  C   -0.219504
     3  C   -0.175005
     4  C    0.155964
     5  C   -0.167602
     6  C   -0.195980
     7  H    0.224447
     8  H    0.217806
     9  H    0.269690
    10  H    0.272827
    11  H    0.228091
    12  N    0.487620
    13  O   -0.462888
    14  O   -0.465633
    15  C   -0.170232
    16  C   -0.218730
    17  C   -0.171143
    18  C    0.157246
    19  C   -0.170816
    20  C   -0.218796
    21  H    0.227000
    22  H    0.223943
    23  H    0.274674
    24  H    0.278374
    25  H    0.226495
    26  N    0.489492
    27  O   -0.461945
    28  O   -0.464577
 Sum of Mulliken charges =  -0.00000

 Dipole moment (field-independent basis, Debye):
    X=              5.8196    Y=             -1.3387    Z=              2.6581  Tot=              6.5365
 Quadrupole moment (field-independent basis, Debye-Ang):
   XX=            -94.3046   YY=           -105.5211   ZZ=           -101.8240
   XY=             23.8099   XZ=             -1.2365   YZ=              0.4928

 Normal termination of Gaussian 16 at Thu May  6 05:14:55 2021.
