 Gaussian 16, Revision A.03,
 Gaussian 16:  EM64L-G16RevA.03 25-Dec-2016

 -------------
 #p 6-31g* mp2
 -------------

 ------------------------------------------------------
 Input file generated by CHIRIPA (05-May-2021 14:53:16)
 ------------------------------------------------------
 Symbolic Z-matrix:
 Charge =  0 Multiplicity = 1

                         Standard orientation:
 ---------------------------------------------------------------------
 Center     Atomic      Atomic             Coordinates (Angstroms)
 Number     Number       Type             X           Y           Z
 ---------------------------------------------------------------------
      1          6           0       -3.026271   -0.726010   -0.088776
      2          6           0       -3.211245   -1.321634    1.307291
      3          6           0       -3.250538   -2.850082    1.297443
      4          1           0       -3.843414   -1.069038   -0.738047
      5          1           0       -2.095902   -1.114834   -0.525382
      6          1           0       -4.140283   -0.930729    1.741685
      7          1           0       -2.393672   -0.976994    1.953366
      8          1           0       -2.319960   -3.256741    0.888474
      9          1           0       -4.076495   -3.210213    0.675590
     10          1           0       -3.383444   -3.254767    2.305622
     11          6           0       -2.985029    0.801073   -0.095308
     12          6           0       -2.800054    1.396697   -1.491375
     13          6           0       -2.760762    2.925145   -1.481526
     14          1           0       -3.915397    1.189897    0.341298
     15          1           0       -2.167885    1.144102    0.553963
     16          1           0       -3.617628    1.052057   -2.137450
     17          1           0       -1.871017    1.005792   -1.925768
     18          1           0       -1.934804    3.285276   -0.859674
     19          1           0       -3.691339    3.331804   -1.072558
     20          1           0       -2.627855    3.329831   -2.489706
     21          6           0        2.068736    1.733484    1.855264
     22          6           0        0.944694    1.100855    1.314127
     23          6           0        1.087614    0.122688    0.325536
     24          6           0        2.375178   -0.199743   -0.100500
     25          6           0        3.514560    0.412649    0.419185
     26          6           0        3.347826    1.387971    1.406857
     27          1           0        1.948463    2.492242    2.622869
     28          1           0       -0.049883    1.367167    1.660449
     29          1           0        0.234599   -0.382877   -0.110569
     30          1           0        4.493165    0.125920    0.053758
     31          1           0        4.222573    1.877623    1.825312
     32          7           0        2.539086   -1.233779   -1.146591
     33          8           0        3.684271   -1.499894   -1.504879
     34          8           0        1.519269   -1.758560   -1.588421
 ---------------------------------------------------------------------

 SCF Done:  E(RHF) =  -669.535182658     A.U. after   15 cycles
 E2 =    -0.2093130846D+01 EUMP2 =    -0.67162831350434D+03

 The electronic state is 1-A.
 Alpha  occ. eigenvalues --  -20.60804 -20.60797 -15.85854 -11.31206 -11.27779
 Alpha  occ. eigenvalues --  -11.27763 -11.27516 -11.26791 -11.26768 -11.22101
 Alpha  occ. eigenvalues --  -11.22067 -11.22010 -11.21867 -11.21483 -11.21258
 Alpha  occ. eigenvalues --   -1.59877  -1.39431  -1.19381  -1.08970  -1.08776
 Alpha  occ. eigenvalues --   -1.04784  -1.03942  -0.96400  -0.95614  -0.87404
 Alpha  occ. eigenvalues --   -0.86185  -0.82454  -0.80009  -0.78786  -0.77507
 Alpha  occ. eigenvalues --   -0.72075  -0.71199  -0.70508  -0.65706  -0.65013
 Alpha  occ. eigenvalues --   -0.64804  -0.62082  -0.61342  -0.59755  -0.58002
 Alpha  occ. eigenvalues --   -0.55722  -0.55244  -0.53111  -0.53056  -0.52916
 Alpha  occ. eigenvalues --   -0.52788  -0.50329  -0.48833  -0.48829  -0.48311
 Alpha  occ. eigenvalues --   -0.47055  -0.46306  -0.46216  -0.44839  -0.44239
 Alpha  occ. eigenvalues --   -0.37360  -0.36381
 Alpha virt. eigenvalues --    0.05017   0.11240   0.16461   0.18359   0.23049
 Alpha virt. eigenvalues --    0.23842   0.24585   0.25369   0.27403   0.28442
 Alpha virt. eigenvalues --    0.30726   0.31095   0.31400   0.31530   0.31713

 Mulliken charges:
               1
     1  C   -0.307444
     2  C   -0.299602
     3  C   -0.476961
     4  H    0.156387
     5  H    0.156099
     6  H    0.153117
     7  H    0.144601
     8  H    0.161219
     9  H    0.157457
    10  H    0.160729
    11  C   -0.303742
    12  C   -0.301311
    13  C   -0.475673
    14  H    0.153116
    15  H    0.138931
    16  H    0.156430
    17  H    0.156346
    18  H    0.151433
    19  H    0.155405
    20  H    0.164082
    21  C   -0.170548
    22  C   -0.227528
    23  C   -0.179186
    24  C    0.157617
    25  C   -0.169774
    26  C   -0.218957
    27  H    0.226184
    28  H    0.229618
    29  H    0.286995
    30  H    0.275724
    31  H    0.223591
    32  N    0.487238
    33  O   -0.459998
    34  O   -0.461596
 Sum of Mulliken charges =  -0.00000

 Dipole moment (field-independent basis, Debye):
    X=             -0.6996    Y=              3.5591    Z=              3.5672  Tot=              5.0874
 Quadrupole moment (field-independent basis, Debye-Ang):
   XX=            -90.8187   YY=            -97.8339   ZZ=            -96.1366
   XY=              9.7448   XZ=              9.6474   YZ=             -0.9199

 Normal termination of Gaussian 16 at Wed May  5 17:13:21 2021.
