 Gaussian 16, Revision A.03,
 Gaussian 16:  EM64L-G16RevA.03 25-Dec-2016

 -------------
 #p 6-31g* mp2
 -------------

 ------------------------------------------------------
 Input file generated by CHIRIPA (05-May-2021 14:57:25)
 ------------------------------------------------------
 Symbolic Z-matrix:
 Charge =  0 Multiplicity = 1

                         Standard orientation:
 ---------------------------------------------------------------------
 Center     Atomic      Atomic             Coordinates (Angstroms)
 Number     Number       Type             X           Y           Z
 ---------------------------------------------------------------------
      1          6           0       -4.519608    1.631758    0.878244
      2          6           0       -4.487174    1.381986   -0.497649
      3          6           0       -3.624178    0.416075   -1.023768
      4          6           0       -2.803639   -0.284636   -0.141153
      5          6           0       -2.812868   -0.058663    1.234398
      6          6           0       -3.683825    0.911905    1.738360
      7          1           0       -5.193097    2.383910    1.278340
      8          1           0       -5.135129    1.939508   -1.168000
      9          1           0       -3.578698    0.202520   -2.084779
     10          1           0       -2.155092   -0.630505    1.877629
     11          1           0       -3.706879    1.103766    2.807333
     12          7           0       -1.885810   -1.309668   -0.686404
     13          8           0       -1.172930   -1.913424    0.112295
     14          8           0       -1.896674   -1.489924   -1.902145
     15          6           0        3.556552    2.458618   -0.666119
     16          6           0        3.028253    1.556038   -1.594973
     17          6           0        2.691311    0.255358   -1.208644
     18          6           0        2.896744   -0.110806    0.120646
     19          6           0        3.421231    0.765491    1.069491
     20          6           0        3.751012    2.061166    0.660809
     21          1           0        3.815515    3.467074   -0.974910
     22          1           0        2.876152    1.861946   -2.626151
     23          1           0        2.280671   -0.463654   -1.907080
     24          1           0        3.561463    0.431475    2.090366
     25          1           0        4.161122    2.759997    1.384334
     26          7           0        2.543830   -1.485129    0.541466
     27          8           0        2.734433   -1.783177    1.718528
     28          8           0        2.083294   -2.238250   -0.313724
 ---------------------------------------------------------------------

 SCF Done:  E(RHF) =  -868.335811909     A.U. after   16 cycles
 E2 =    -0.2600658172D+01 EUMP2 =    -0.87093647008061D+03

 The electronic state is 1-A.
 Alpha  occ. eigenvalues --  -20.60318 -20.60241 -20.59788 -20.59618 -15.85339
 Alpha  occ. eigenvalues --  -15.84756 -11.30939 -11.30507 -11.27556 -11.27505
 Alpha  occ. eigenvalues --  -11.27327 -11.27161 -11.27060 -11.26964 -11.26616
 Alpha  occ. eigenvalues --  -11.26585 -11.26261 -11.26206  -1.59360  -1.58761
 Alpha  occ. eigenvalues --   -1.38907  -1.38306  -1.19136  -1.18723  -1.08489
 Alpha  occ. eigenvalues --   -1.08051  -1.04570  -1.04179  -0.95280  -0.94817
 Alpha  occ. eigenvalues --   -0.85958  -0.85559  -0.82106  -0.81646  -0.77120
 Alpha  occ. eigenvalues --   -0.76622  -0.71563  -0.70976  -0.70737  -0.70243
 Alpha  occ. eigenvalues --   -0.70032  -0.69829  -0.64779  -0.64572  -0.64364
 Alpha  occ. eigenvalues --   -0.64188  -0.61910  -0.61511  -0.55066  -0.54684
 Alpha  occ. eigenvalues --   -0.52895  -0.52662  -0.52499  -0.52272  -0.48328
 Alpha  occ. eigenvalues --   -0.48280  -0.47763  -0.47714  -0.44354  -0.43494
 Alpha  occ. eigenvalues --   -0.37137  -0.36737  -0.36188  -0.35807
 Alpha virt. eigenvalues --    0.05399   0.05934   0.11461   0.11840   0.16849
 Alpha virt. eigenvalues --    0.17345   0.21588   0.21936   0.27486   0.27827
 Alpha virt. eigenvalues --    0.28507   0.28887   0.31117   0.31460   0.32774

 Mulliken charges:
               1
     1  C   -0.171731
     2  C   -0.218746
     3  C   -0.172171
     4  C    0.158097
     5  C   -0.172309
     6  C   -0.218805
     7  H    0.224183
     8  H    0.221795
     9  H    0.274190
    10  H    0.279146
    11  H    0.223035
    12  N    0.485667
    13  O   -0.447804
    14  O   -0.464501
    15  C   -0.172531
    16  C   -0.219447
    17  C   -0.172343
    18  C    0.159057
    19  C   -0.172939
    20  C   -0.219122
    21  H    0.222264
    22  H    0.221985
    23  H    0.282566
    24  H    0.273403
    25  H    0.219991
    26  N    0.488498
    27  O   -0.468257
    28  O   -0.443171
 Sum of Mulliken charges =  -0.00000

 Dipole moment (field-independent basis, Debye):
    X=             -2.0487    Y=              8.1028    Z=              0.3866  Tot=              8.3667
 Quadrupole moment (field-independent basis, Debye-Ang):
   XX=            -81.1894   YY=           -108.8557   ZZ=            -97.5225
   XY=              4.2839   XZ=             -6.2740   YZ=             -0.1084

 Normal termination of Gaussian 16 at Fri May  7 12:39:09 2021.
