 Gaussian 16, Revision A.03,
 Gaussian 16:  EM64L-G16RevA.03 25-Dec-2016

 -------------
 #p 6-31g* mp2
 -------------

 ------------------------------------------------------
 Input file generated by CHIRIPA (05-May-2021 14:57:26)
 ------------------------------------------------------
 Symbolic Z-matrix:
 Charge =  0 Multiplicity = 1

                         Standard orientation:
 ---------------------------------------------------------------------
 Center     Atomic      Atomic             Coordinates (Angstroms)
 Number     Number       Type             X           Y           Z
 ---------------------------------------------------------------------
      1          6           0       -1.916793   -2.217244   -1.126168
      2          6           0       -1.345460   -1.208897   -1.909325
      3          6           0       -1.456659    0.132515   -1.531438
      4          6           0       -2.149243    0.431116   -0.359067
      5          6           0       -2.729424   -0.550913    0.442368
      6          6           0       -2.605737   -1.885619    0.045114
      7          1           0       -1.825561   -3.256680   -1.427242
      8          1           0       -0.809846   -1.463499   -2.819457
      9          1           0       -1.024012    0.933096   -2.119065
     10          1           0       -3.257335   -0.266117    1.344376
     11          1           0       -3.050454   -2.666623    0.655281
     12          7           0       -2.273574    1.847659    0.051237
     13          8           0       -2.888819    2.084558    1.088536
     14          8           0       -1.753425    2.694223   -0.672235
     15          6           0        0.462941   -1.597875    1.703552
     16          6           0        0.582569   -0.231003    1.975349
     17          6           0        1.502175    0.554534    1.274061
     18          6           0        2.289796   -0.062284    0.303247
     19          6           0        2.194029   -1.421647    0.009560
     20          6           0        1.267634   -2.187794    0.723254
     21          1           0       -0.254068   -2.200568    2.253148
     22          1           0       -0.041061    0.229824    2.736117
     23          1           0        1.615455    1.614912    1.464278
     24          1           0        2.829450   -1.852695   -0.754544
     25          1           0        1.176896   -3.249095    0.510056
     26          7           0        3.266935    0.759065   -0.445741
     27          8           0        3.949215    0.191731   -1.296190
     28          8           0        3.332034    1.954620   -0.168169
 ---------------------------------------------------------------------

 SCF Done:  E(RHF) =  -868.334912555     A.U. after   16 cycles
 E2 =    -0.2607190841D+01 EUMP2 =    -0.87094210339548D+03

 The electronic state is 1-A.
 Alpha  occ. eigenvalues --  -20.61286 -20.61234 -20.60797 -20.60756 -15.86300
 Alpha  occ. eigenvalues --  -15.85836 -11.31669 -11.31213 -11.28293 -11.28216
 Alpha  occ. eigenvalues --  -11.28030 -11.27876 -11.27742 -11.27633 -11.27331
 Alpha  occ. eigenvalues --  -11.27249 -11.26928 -11.26776  -1.60337  -1.59860
 Alpha  occ. eigenvalues --   -1.39889  -1.39410  -1.19895  -1.19410  -1.09279
 Alpha  occ. eigenvalues --   -1.08833  -1.05295  -1.04849  -0.96104  -0.95657
 Alpha  occ. eigenvalues --   -0.86704  -0.86250  -0.82946  -0.82484  -0.77978
 Alpha  occ. eigenvalues --   -0.77515  -0.72520  -0.72054  -0.71675  -0.71195
 Alpha  occ. eigenvalues --   -0.71016  -0.70583  -0.65538  -0.65314  -0.65094
 Alpha  occ. eigenvalues --   -0.64875  -0.62642  -0.62190  -0.55821  -0.55418
 Alpha  occ. eigenvalues --   -0.54641  -0.53393  -0.52949  -0.52120  -0.49293
 Alpha  occ. eigenvalues --   -0.49273  -0.48822  -0.48799  -0.45289  -0.44812
 Alpha  occ. eigenvalues --   -0.38482  -0.38001  -0.36290  -0.35756
 Alpha virt. eigenvalues --    0.04346   0.05139   0.10190   0.11650   0.15786
 Alpha virt. eigenvalues --    0.16809   0.20118   0.21865   0.26070   0.26750
 Alpha virt. eigenvalues --    0.28259   0.28607   0.29535   0.31403   0.32026

 Mulliken charges:
               1
     1  C   -0.169602
     2  C   -0.214644
     3  C   -0.169296
     4  C    0.165430
     5  C   -0.174468
     6  C   -0.223006
     7  H    0.223350
     8  H    0.226438
     9  H    0.280432
    10  H    0.272298
    11  H    0.219448
    12  N    0.485803
    13  O   -0.464534
    14  O   -0.454586
    15  C   -0.160293
    16  C   -0.223878
    17  C   -0.173296
    18  C    0.157266
    19  C   -0.173807
    20  C   -0.215799
    21  H    0.219049
    22  H    0.229084
    23  H    0.282382
    24  H    0.272446
    25  H    0.216190
    26  N    0.487293
    27  O   -0.464129
    28  O   -0.455573
 Sum of Mulliken charges =  -0.00000

 Dipole moment (field-independent basis, Debye):
    X=             -3.0099    Y=             -7.6485    Z=              1.0842  Tot=              8.2906
 Quadrupole moment (field-independent basis, Debye-Ang):
   XX=           -122.7893   YY=           -106.1320   ZZ=            -98.1701
   XY=              4.2022   XZ=              5.0779   YZ=              1.3122

 Normal termination of Gaussian 16 at Wed May  5 22:52:02 2021.
