 Gaussian 16, Revision A.03,
 Gaussian 16:  EM64L-G16RevA.03 25-Dec-2016

 -------------
 #p 6-31g* mp2
 -------------

 ------------------------------------------------------
 Input file generated by CHIRIPA (05-May-2021 14:57:23)
 ------------------------------------------------------
 Symbolic Z-matrix:
 Charge =  0 Multiplicity = 1

                         Standard orientation:
 ---------------------------------------------------------------------
 Center     Atomic      Atomic             Coordinates (Angstroms)
 Number     Number       Type             X           Y           Z
 ---------------------------------------------------------------------
      1          6           0        1.880449    0.959403    0.740889
      2          6           0        2.303751   -0.287305    1.213176
      3          6           0        3.553187   -0.797773    0.848649
      4          6           0        4.357390   -0.031408    0.006490
      5          6           0        3.963853    1.214070   -0.480546
      6          6           0        2.710388    1.704797   -0.102977
      7          1           0        0.908291    1.348280    1.029128
      8          1           0        1.661307   -0.868381    1.868662
      9          1           0        3.905784   -1.759976    1.199732
     10          1           0        4.626381    1.770208   -1.132608
     11          1           0        2.384255    2.673317   -0.471285
     12          7           0        5.682245   -0.561369   -0.386322
     13          8           0        6.372084    0.133308   -1.129412
     14          8           0        6.005741   -1.661394    0.056320
     15          6           0       -3.609707    2.403245    0.124121
     16          6           0       -2.606400    1.452177    0.337118
     17          6           0       -2.888297    0.086919    0.231524
     18          6           0       -4.190212   -0.293680   -0.090116
     19          6           0       -5.211420    0.629836   -0.308160
     20          6           0       -4.906728    1.989767   -0.197271
     21          1           0       -3.381868    3.461742    0.208205
     22          1           0       -1.598222    1.770389    0.586847
     23          1           0       -2.130619   -0.670592    0.391273
     24          1           0       -6.207006    0.282066   -0.555711
     25          1           0       -5.687905    2.726154   -0.363226
     26          7           0       -4.500711   -1.736199   -0.204706
     27          8           0       -5.655647   -2.045705   -0.489247
     28          8           0       -3.583262   -2.530024   -0.007812
 ---------------------------------------------------------------------

 SCF Done:  E(RHF) =  -868.336351918     A.U. after   16 cycles
 E2 =    -0.2599640401D+01 EUMP2 =    -0.87093599231898D+03

 The electronic state is 1-A.
 Alpha  occ. eigenvalues --  -20.61346 -20.61335 -20.61067 -20.61060 -15.86404
 Alpha  occ. eigenvalues --  -15.86123 -11.31895 -11.31630 -11.28560 -11.28449
 Alpha  occ. eigenvalues --  -11.28278 -11.28207 -11.28178 -11.28135 -11.27671
 Alpha  occ. eigenvalues --  -11.27471 -11.27326 -11.27284  -1.60415  -1.60137
 Alpha  occ. eigenvalues --   -1.39966  -1.39687  -1.20095  -1.19825  -1.09465
 Alpha  occ. eigenvalues --   -1.09229  -1.05536  -1.05237  -0.96274  -0.96037
 Alpha  occ. eigenvalues --   -0.86929  -0.86649  -0.83125  -0.82848  -0.78147
 Alpha  occ. eigenvalues --   -0.77843  -0.72619  -0.72341  -0.71741  -0.71460
 Alpha  occ. eigenvalues --   -0.71204  -0.71038  -0.65756  -0.65582  -0.65492
 Alpha  occ. eigenvalues --   -0.65251  -0.62898  -0.62572  -0.56071  -0.55833
 Alpha  occ. eigenvalues --   -0.53833  -0.53633  -0.53563  -0.53343  -0.49389
 Alpha  occ. eigenvalues --   -0.49366  -0.49112  -0.49085  -0.45344  -0.45060
 Alpha  occ. eigenvalues --   -0.38071  -0.37863  -0.37134  -0.36821
 Alpha virt. eigenvalues --    0.04423   0.04668   0.10520   0.10811   0.15874
 Alpha virt. eigenvalues --    0.16039   0.17608   0.22004   0.24505   0.26406
 Alpha virt. eigenvalues --    0.27713   0.28855   0.29757   0.31472   0.32362

 Mulliken charges:
               1
     1  C   -0.174816
     2  C   -0.219490
     3  C   -0.169400
     4  C    0.159577
     5  C   -0.170115
     6  C   -0.218647
     7  H    0.219448
     8  H    0.225812
     9  H    0.278684
    10  H    0.277102
    11  H    0.221884
    12  N    0.487867
    13  O   -0.459367
    14  O   -0.458118
    15  C   -0.171017
    16  C   -0.220306
    17  C   -0.170962
    18  C    0.159149
    19  C   -0.169511
    20  C   -0.218187
    21  H    0.226722
    22  H    0.216228
    23  H    0.273077
    24  H    0.278165
    25  H    0.226071
    26  N    0.488210
    27  O   -0.457906
    28  O   -0.460153
 Sum of Mulliken charges =  -0.00000

 Dipole moment (field-independent basis, Debye):
    X=             -3.6044    Y=              6.8407    Z=              1.7182  Tot=              7.9208
 Quadrupole moment (field-independent basis, Debye-Ang):
   XX=           -148.5882   YY=           -105.0146   ZZ=           -104.6112
   XY=            -14.1599   XZ=              5.0512   YZ=             -3.6677

 Normal termination of Gaussian 16 at Thu May  6 22:44:28 2021.
