 Gaussian 16, Revision A.03,
 Gaussian 16:  EM64L-G16RevA.03 25-Dec-2016

 -------------
 #p 6-31g* mp2
 -------------

 ------------------------------------------------------
 Input file generated by CHIRIPA (05-May-2021 14:55:18)
 ------------------------------------------------------
 Symbolic Z-matrix:
 Charge =  0 Multiplicity = 1

                         Standard orientation:
 ---------------------------------------------------------------------
 Center     Atomic      Atomic             Coordinates (Angstroms)
 Number     Number       Type             X           Y           Z
 ---------------------------------------------------------------------
      1          6           0       -3.527595   -1.445994   -1.427620
      2          6           0       -2.718540   -2.147593   -0.527782
      3          6           0       -1.977381   -1.465225    0.441551
      4          6           0       -2.069285   -0.074849    0.482768
      5          6           0       -2.866364    0.652501   -0.399795
      6          6           0       -3.598799   -0.050646   -1.360872
      7          1           0       -4.099957   -1.984145   -2.177414
      8          1           0       -2.661303   -3.231253   -0.577280
      9          1           0       -1.343094   -1.983383    1.150501
     10          1           0       -2.902992    1.732595   -0.325810
     11          1           0       -4.226290    0.496845   -2.058407
     12          7           0       -1.289271    0.658542    1.504588
     13          8           0       -1.387485    1.883593    1.520095
     14          8           0       -0.594452   -0.005564    2.270634
     15          6           0        3.250512   -0.336442   -0.620771
     16          6           0        3.368789   -1.431867    0.439436
     17          6           0        4.246742   -2.599349   -0.012204
     18          1           0        2.840238   -0.770296   -1.542938
     19          1           0        4.254859    0.033569   -0.869313
     20          1           0        2.364409   -1.798738    0.686911
     21          1           0        3.778651   -0.995315    1.359247
     22          1           0        5.260127   -2.253532   -0.240375
     23          1           0        3.837850   -3.061520   -0.916532
     24          1           0        4.317566   -3.370905    0.760806
     25          6           0        2.375961    0.837489   -0.183991
     26          6           0        2.257683    1.932913   -1.244198
     27          6           0        1.379731    3.100395   -0.792558
     28          1           0        1.371614    0.467477    0.064551
     29          1           0        2.786235    1.271342    0.738176
     30          1           0        1.847822    1.496362   -2.164009
     31          1           0        3.262062    2.299784   -1.491673
     32          1           0        1.788622    3.562566    0.111770
     33          1           0        0.366346    2.754578   -0.564387
     34          1           0        1.308907    3.871951   -1.565568
 ---------------------------------------------------------------------

 SCF Done:  E(RHF) =  -669.535918461     A.U. after   15 cycles
 E2 =    -0.2093211634D+01 EUMP2 =    -0.67162913009460D+03

 The electronic state is 1-A.
 Alpha  occ. eigenvalues --  -20.61002 -20.60997 -15.85985 -11.31327 -11.27887
 Alpha  occ. eigenvalues --  -11.27881 -11.27617 -11.26892 -11.26882 -11.21083
 Alpha  occ. eigenvalues --  -11.20931 -11.20859 -11.20741 -11.20629 -11.20139
 Alpha  occ. eigenvalues --   -1.60042  -1.39600  -1.19493  -1.08897  -1.07819
 Alpha  occ. eigenvalues --   -1.04886  -1.02927  -0.95739  -0.95365  -0.86377
 Alpha  occ. eigenvalues --   -0.86287  -0.82570  -0.78984  -0.77669  -0.77567
 Alpha  occ. eigenvalues --   -0.72225  -0.71364  -0.70597  -0.65146  -0.64887
 Alpha  occ. eigenvalues --   -0.64458  -0.62234  -0.60335  -0.58753  -0.56969
 Alpha  occ. eigenvalues --   -0.55388  -0.54672  -0.53217  -0.52976  -0.52080
 Alpha  occ. eigenvalues --   -0.51778  -0.49347  -0.48990  -0.48976  -0.47294
 Alpha  occ. eigenvalues --   -0.46058  -0.45149  -0.45102  -0.44822  -0.43183
 Alpha  occ. eigenvalues --   -0.37469  -0.36485
 Alpha virt. eigenvalues --    0.04867   0.11114   0.16307   0.21156   0.23259
 Alpha virt. eigenvalues --    0.24687   0.26418   0.27116   0.27707   0.28458
 Alpha virt. eigenvalues --    0.28786   0.30819   0.31219   0.32252   0.32371

 Mulliken charges:
               1
     1  C   -0.170551
     2  C   -0.218411
     3  C   -0.172024
     4  C    0.156092
     5  C   -0.171712
     6  C   -0.218421
     7  H    0.226198
     8  H    0.224075
     9  H    0.276167
    10  H    0.276448
    11  H    0.224166
    12  N    0.488277
    13  O   -0.456252
    14  O   -0.456458
    15  C   -0.298468
    16  C   -0.297947
    17  C   -0.475574
    18  H    0.144668
    19  H    0.148063
    20  H    0.151510
    21  H    0.155964
    22  H    0.154748
    23  H    0.151380
    24  H    0.158950
    25  C   -0.295654
    26  C   -0.300667
    27  C   -0.477947
    28  H    0.147012
    29  H    0.156516
    30  H    0.145569
    31  H    0.149289
    32  H    0.160116
    33  H    0.161867
    34  H    0.153012
 Sum of Mulliken charges =  -0.00000

 Dipole moment (field-independent basis, Debye):
    X=             -2.9111    Y=             -2.5459    Z=             -3.3875  Tot=              5.1412
 Quadrupole moment (field-independent basis, Debye-Ang):
   XX=            -83.1633   YY=            -91.6138   ZZ=            -98.3131
   XY=              4.9772   XZ=              8.0031   YZ=             -2.3291

 Normal termination of Gaussian 16 at Thu May  6 14:01:30 2021.
