 Gaussian 16, Revision A.03,
 Gaussian 16:  EM64L-G16RevA.03 25-Dec-2016

 -------------
 #p 6-31g* mp2
 -------------

 ------------------------------------------------------
 Input file generated by CHIRIPA (05-May-2021 14:55:24)
 ------------------------------------------------------
 Symbolic Z-matrix:
 Charge =  0 Multiplicity = 1

                         Standard orientation:
 ---------------------------------------------------------------------
 Center     Atomic      Atomic             Coordinates (Angstroms)
 Number     Number       Type             X           Y           Z
 ---------------------------------------------------------------------
      1          6           0        0.986884   -2.213871   -0.510229
      2          6           0        2.210010   -2.369634    0.150242
      3          6           0        3.042232   -1.268457    0.372421
      4          6           0        2.618170   -0.020421   -0.081306
      5          6           0        1.405289    0.166959   -0.742441
      6          6           0        0.589128   -0.948303   -0.953681
      7          1           0        0.346632   -3.074762   -0.678574
      8          1           0        2.521480   -3.351299    0.495733
      9          1           0        3.994209   -1.360641    0.881007
     10          1           0        1.121862    1.158085   -1.075242
     11          1           0       -0.360235   -0.824358   -1.466897
     12          7           0        3.490704    1.152801    0.148115
     13          8           0        3.094257    2.241724   -0.261414
     14          8           0        4.554522    0.961234    0.733119
     15          6           0       -3.218819    0.926164   -0.241206
     16          6           0       -3.001506    2.171825    0.618496
     17          6           0       -3.107889    3.469374   -0.183280
     18          1           0       -2.481396    0.917203   -1.055499
     19          1           0       -4.208032    0.984846   -0.715977
     20          1           0       -2.013559    2.110151    1.092601
     21          1           0       -3.739409    2.177723    1.430950
     22          1           0       -4.097218    3.557677   -0.643749
     23          1           0       -2.361563    3.489722   -0.984020
     24          1           0       -2.949214    4.347247    0.450772
     25          6           0       -3.115556   -0.378882    0.546145
     26          6           0       -3.332870   -1.624543   -0.313556
     27          6           0       -3.226486   -2.922091    0.488220
     28          1           0       -2.126343   -0.437564    1.020917
     29          1           0       -3.852979   -0.369920    1.360439
     30          1           0       -2.594967   -1.630440   -1.126009
     31          1           0       -4.320816   -1.562869   -0.787661
     32          1           0       -3.972813   -2.942439    1.288960
     33          1           0       -2.237157   -3.010395    0.948689
     34          1           0       -3.385162   -3.799963   -0.145833
 ---------------------------------------------------------------------

 SCF Done:  E(RHF) =  -669.535419880     A.U. after   15 cycles
 E2 =    -0.2092885679D+01 EUMP2 =    -0.67162830555907D+03

 The electronic state is 1-A.
 Alpha  occ. eigenvalues --  -20.60798 -20.60793 -15.85852 -11.31233 -11.27801
 Alpha  occ. eigenvalues --  -11.27797 -11.27533 -11.26814 -11.26792 -11.22614
 Alpha  occ. eigenvalues --  -11.22134 -11.22075 -11.22029 -11.22019 -11.21375
 Alpha  occ. eigenvalues --   -1.59873  -1.39426  -1.19405  -1.09170  -1.08790
 Alpha  occ. eigenvalues --   -1.04810  -1.04220  -0.96653  -0.95626  -0.87673
 Alpha  occ. eigenvalues --   -0.86207  -0.82459  -0.80302  -0.78947  -0.77509
 Alpha  occ. eigenvalues --   -0.72070  -0.71197  -0.70508  -0.65978  -0.65056
 Alpha  occ. eigenvalues --   -0.64705  -0.62167  -0.61579  -0.60039  -0.58250
 Alpha  occ. eigenvalues --   -0.55981  -0.55268  -0.53350  -0.53131  -0.53067
 Alpha  occ. eigenvalues --   -0.52898  -0.50607  -0.48838  -0.48824  -0.48591
 Alpha  occ. eigenvalues --   -0.47347  -0.46485  -0.46378  -0.44829  -0.44469
 Alpha  occ. eigenvalues --   -0.37374  -0.36400
 Alpha virt. eigenvalues --    0.05003   0.11149   0.16403   0.18643   0.22636
 Alpha virt. eigenvalues --    0.23585   0.24607   0.26183   0.26941   0.28231
 Alpha virt. eigenvalues --    0.29745   0.30672   0.31134   0.31343   0.32029

 Mulliken charges:
               1
     1  C   -0.174336
     2  C   -0.218596
     3  C   -0.170918
     4  C    0.158940
     5  C   -0.173181
     6  C   -0.222392
     7  H    0.228100
     8  H    0.223818
     9  H    0.275824
    10  H    0.275632
    11  H    0.231301
    12  N    0.487986
    13  O   -0.460304
    14  O   -0.460248
    15  C   -0.298127
    16  C   -0.301405
    17  C   -0.475653
    18  H    0.140182
    19  H    0.152253
    20  H    0.155173
    21  H    0.154089
    22  H    0.155347
    23  H    0.154514
    24  H    0.164608
    25  C   -0.302670
    26  C   -0.300686
    27  C   -0.478687
    28  H    0.154347
    29  H    0.153871
    30  H    0.140137
    31  H    0.156932
    32  H    0.160975
    33  H    0.153147
    34  H    0.160026
 Sum of Mulliken charges =  -0.00000

 Dipole moment (field-independent basis, Debye):
    X=             -3.1901    Y=             -4.0634    Z=             -0.6806  Tot=              5.2107
 Quadrupole moment (field-independent basis, Debye-Ang):
   XX=           -107.3697   YY=            -94.0111   ZZ=            -94.4466
   XY=            -13.2691   XZ=             -0.6781   YZ=             -0.7442

 Normal termination of Gaussian 16 at Wed May  5 22:23:17 2021.
