 Gaussian 16, Revision A.03,
 Gaussian 16:  EM64L-G16RevA.03 25-Dec-2016

 -------------
 #p 6-31g* mp2
 -------------

 ------------------------------------------------------
 Input file generated by CHIRIPA (05-May-2021 14:57:25)
 ------------------------------------------------------
 Symbolic Z-matrix:
 Charge =  0 Multiplicity = 1

                         Standard orientation:
 ---------------------------------------------------------------------
 Center     Atomic      Atomic             Coordinates (Angstroms)
 Number     Number       Type             X           Y           Z
 ---------------------------------------------------------------------
      1          6           0        6.662470   -0.401078   -0.112835
      2          6           0        6.063585    0.718600   -0.699502
      3          6           0        4.680360    0.906317   -0.622041
      4          6           0        3.922867   -0.049755    0.052808
      5          6           0        4.490126   -1.175711    0.647560
      6          6           0        5.875217   -1.342999    0.557642
      7          1           0        7.737717   -0.538966   -0.177846
      8          1           0        6.672490    1.451738   -1.220835
      9          1           0        4.190759    1.763964   -1.067183
     10          1           0        3.856956   -1.889375    1.160587
     11          1           0        6.337598   -2.213517    1.014202
     12          7           0        2.457521    0.138159    0.141406
     13          8           0        1.812275   -0.718632    0.741574
     14          8           0        1.981976    1.138680   -0.390997
     15          6           0       -1.984880    1.343400    0.108021
     16          6           0       -3.158571    1.912003    0.613650
     17          6           0       -4.371834    1.221479    0.538040
     18          6           0       -4.375079   -0.041346   -0.052343
     19          6           0       -3.222528   -0.634569   -0.565181
     20          6           0       -2.020541    0.074166   -0.478745
     21          1           0       -1.046768    1.886888    0.170962
     22          1           0       -3.133861    2.897545    1.069875
     23          1           0       -5.295314    1.638106    0.921481
     24          1           0       -3.278625   -1.618704   -1.014343
     25          1           0       -1.110594   -0.369889   -0.872262
     26          7           0       -5.653538   -0.782012   -0.138118
     27          8           0       -5.629832   -1.893127   -0.662995
     28          8           0       -6.655092   -0.237405    0.321154
 ---------------------------------------------------------------------

 SCF Done:  E(RHF) =  -868.341715994     A.U. after   16 cycles
 E2 =    -0.2598520839D+01 EUMP2 =    -0.87094023683306D+03

 The electronic state is 1-A.
 Alpha  occ. eigenvalues --  -20.62141 -20.62133 -20.59763 -20.59756 -15.87116
 Alpha  occ. eigenvalues --  -15.84805 -11.32082 -11.29875 -11.28605 -11.28585
 Alpha  occ. eigenvalues --  -11.28262 -11.27520 -11.27504 -11.26460 -11.26360
 Alpha  occ. eigenvalues --  -11.25847 -11.25366 -11.25123  -1.61184  -1.58845
 Alpha  occ. eigenvalues --   -1.40742  -1.38407  -1.20214  -1.17989  -1.09686
 Alpha  occ. eigenvalues --   -1.07387  -1.05552  -1.03352  -0.96586  -0.94285
 Alpha  occ. eigenvalues --   -0.86969  -0.84725  -0.83431  -0.81146  -0.78521
 Alpha  occ. eigenvalues --   -0.76272  -0.73348  -0.72465  -0.71312  -0.71029
 Alpha  occ. eigenvalues --   -0.70166  -0.68974  -0.65867  -0.65549  -0.63610
 Alpha  occ. eigenvalues --   -0.63305  -0.62901  -0.60712  -0.56067  -0.53906
 Alpha  occ. eigenvalues --   -0.53698  -0.53624  -0.51700  -0.51418  -0.50121
 Alpha  occ. eigenvalues --   -0.50065  -0.47802  -0.47752  -0.46229  -0.43881
 Alpha  occ. eigenvalues --   -0.38168  -0.37135  -0.35883  -0.34973
 Alpha virt. eigenvalues --    0.03964   0.06250   0.10527   0.12704   0.15551
 Alpha virt. eigenvalues --    0.17856   0.20708   0.23047   0.26658   0.27568
 Alpha virt. eigenvalues --    0.28769   0.29900   0.30418   0.31758   0.32699

 Mulliken charges:
               1
     1  C   -0.169227
     2  C   -0.218580
     3  C   -0.170334
     4  C    0.157385
     5  C   -0.170095
     6  C   -0.218605
     7  H    0.228797
     8  H    0.226002
     9  H    0.275464
    10  H    0.277157
    11  H    0.226561
    12  N    0.489437
    13  O   -0.459135
    14  O   -0.469304
    15  C   -0.174390
    16  C   -0.220423
    17  C   -0.173120
    18  C    0.156997
    19  C   -0.174124
    20  C   -0.217625
    21  H    0.242763
    22  H    0.218385
    23  H    0.270440
    24  H    0.271041
    25  H    0.234618
    26  N    0.488345
    27  O   -0.463862
    28  O   -0.464568
 Sum of Mulliken charges =  -0.00000

 Dipole moment (field-independent basis, Debye):
    X=             10.5447    Y=              1.9043    Z=             -0.0014  Tot=             10.7152
 Quadrupole moment (field-independent basis, Debye-Ang):
   XX=           -104.2080   YY=            -99.0946   ZZ=           -103.8936
   XY=            -16.4396   XZ=             -3.9061   YZ=             -0.9357

 Normal termination of Gaussian 16 at Fri May  7 09:36:35 2021.
