 Gaussian 16, Revision A.03,
 Gaussian 16:  EM64L-G16RevA.03 25-Dec-2016

 -------------
 #p 6-31g* mp2
 -------------

 ------------------------------------------------------
 Input file generated by CHIRIPA (05-May-2021 14:51:12)
 ------------------------------------------------------
 Symbolic Z-matrix:
 Charge =  0 Multiplicity = 1

                         Standard orientation:
 ---------------------------------------------------------------------
 Center     Atomic      Atomic             Coordinates (Angstroms)
 Number     Number       Type             X           Y           Z
 ---------------------------------------------------------------------
      1          6           0       -4.230854    0.566838   -0.196021
      2          6           0       -2.864466    0.614731    0.488577
      3          6           0       -2.003809    1.784080    0.009324
      4          1           0       -4.087055    0.496831   -1.282927
      5          1           0       -4.759291    1.512290   -0.010896
      6          1           0       -2.339327   -0.331073    0.303374
      7          1           0       -3.011535    0.684439    1.573993
      8          1           0       -2.503704    2.737461    0.208752
      9          1           0       -1.827677    1.716179   -1.069086
     10          1           0       -1.031512    1.799244    0.511588
     11          6           0       -5.102801   -0.596699    0.272614
     12          6           0       -6.469190   -0.644591   -0.411984
     13          6           0       -7.329847   -1.813941    0.067269
     14          1           0       -4.574365   -1.542150    0.087489
     15          1           0       -5.246601   -0.526691    1.359520
     16          1           0       -6.322120   -0.714299   -1.497400
     17          1           0       -6.994329    0.301213   -0.226781
     18          1           0       -7.505979   -1.746039    1.145679
     19          1           0       -6.829951   -2.767321   -0.132158
     20          1           0       -8.302143   -1.829105   -0.434995
     21          6           0        4.320424    0.676008    0.124221
     22          6           0        2.868239    0.732531   -0.351120
     23          6           0        2.188710    2.061268   -0.018714
     24          1           0        4.351106    0.843757    1.209515
     25          1           0        4.881810    1.501124   -0.335587
     26          1           0        2.310081   -0.093270    0.108366
     27          1           0        2.840993    0.564439   -1.435380
     28          1           0        2.720291    2.894306   -0.489958
     29          1           0        2.186362    2.232861    1.062559
     30          1           0        1.151458    2.080018   -0.367449
     31          6           0        5.013232   -0.646148   -0.200814
     32          6           0        6.465417   -0.702671    0.274527
     33          6           0        7.144945   -2.031407   -0.057879
     34          1           0        4.451846   -1.471264    0.258994
     35          1           0        4.982550   -0.813896   -1.286109
     36          1           0        6.492662   -0.534578    1.358786
     37          1           0        7.023574    0.123130   -0.184960
     38          1           0        7.147294   -2.203001   -1.139153
     39          1           0        6.613366   -2.864446    0.413365
     40          1           0        8.182197   -2.050158    0.290855
 ---------------------------------------------------------------------

 SCF Done:  E(RHF) =  -470.733179395     A.U. after   11 cycles
 E2 =    -0.1582178757D+01 EUMP2 =    -0.47231535815209D+03

 The electronic state is 1-A.
 Alpha  occ. eigenvalues --  -11.21605 -11.21602 -11.21592 -11.21577 -11.21405
 Alpha  occ. eigenvalues --  -11.21389 -11.21346 -11.21329 -11.21072 -11.21065
 Alpha  occ. eigenvalues --  -11.21053 -11.20994  -1.08432  -1.08411  -1.03543
 Alpha  occ. eigenvalues --   -1.03498  -0.96020  -0.95923  -0.87065  -0.86915
 Alpha  occ. eigenvalues --   -0.79630  -0.79539  -0.78244  -0.78225  -0.65061
 Alpha  occ. eigenvalues --   -0.65043  -0.60933  -0.60908  -0.59624  -0.59124
 Alpha  occ. eigenvalues --   -0.57695  -0.57455  -0.55269  -0.55244  -0.53014
 Alpha  occ. eigenvalues --   -0.52475  -0.52417  -0.52186  -0.49920  -0.49898
 Alpha  occ. eigenvalues --   -0.47943  -0.47851  -0.46627  -0.46607  -0.45786
 Alpha  occ. eigenvalues --   -0.45767  -0.45710  -0.45694  -0.43967  -0.43547
 Alpha virt. eigenvalues --    0.22216   0.23011   0.23554   0.24983   0.26611
 Alpha virt. eigenvalues --    0.26670   0.27081   0.27482   0.27533   0.28811
 Alpha virt. eigenvalues --    0.30924   0.31387   0.31413   0.31819   0.31942

 Mulliken charges:
               1
     1  C   -0.298523
     2  C   -0.299377
     3  C   -0.481591
     4  H    0.149658
     5  H    0.149573
     6  H    0.151925
     7  H    0.151911
     8  H    0.155480
     9  H    0.154678
    10  H    0.166733
    11  C   -0.298272
    12  C   -0.299636
    13  C   -0.475702
    14  H    0.149508
    15  H    0.149627
    16  H    0.151950
    17  H    0.151943
    18  H    0.155169
    19  H    0.155176
    20  H    0.160260
    21  C   -0.298267
    22  C   -0.299355
    23  C   -0.482796
    24  H    0.149560
    25  H    0.149558
    26  H    0.151635
    27  H    0.151768
    28  H    0.155046
    29  H    0.154167
    30  H    0.168387
    31  C   -0.298238
    32  C   -0.299630
    33  C   -0.475691
    34  H    0.149429
    35  H    0.149572
    36  H    0.151924
    37  H    0.151928
    38  H    0.155145
    39  H    0.155144
    40  H    0.160225
 Sum of Mulliken charges =  -0.00000

 Dipole moment (field-independent basis, Debye):
    X=             -0.0174    Y=              0.0090    Z=             -0.0005  Tot=              0.0196
 Quadrupole moment (field-independent basis, Debye-Ang):
   XX=            -85.6033   YY=            -85.7465   ZZ=            -83.4986
   XY=             -0.1550   XZ=             -0.3192   YZ=              0.1351

 Normal termination of Gaussian 16 at Wed May  5 18:19:13 2021.
