 Gaussian 16, Revision A.03,
 Gaussian 16:  EM64L-G16RevA.03 25-Dec-2016

 -------------
 #p 6-31g* mp2
 -------------

 ------------------------------------------------------
 Input file generated by CHIRIPA (05-May-2021 14:53:14)
 ------------------------------------------------------
 Symbolic Z-matrix:
 Charge =  0 Multiplicity = 1

                         Standard orientation:
 ---------------------------------------------------------------------
 Center     Atomic      Atomic             Coordinates (Angstroms)
 Number     Number       Type             X           Y           Z
 ---------------------------------------------------------------------
      1          6           0        3.607827    0.402915   -0.012970
      2          6           0        4.933581    0.341139   -0.772275
      3          6           0        5.475233    1.725594   -1.129613
      4          1           0        2.868693    0.941488   -0.621710
      5          1           0        3.745830    0.991686    0.904472
      6          1           0        4.793460   -0.248504   -1.687318
      7          1           0        5.669590   -0.197517   -0.161737
      8          1           0        5.643225    2.318827   -0.224928
      9          1           0        4.762117    2.267550   -1.759177
     10          1           0        6.423486    1.658002   -1.671928
     11          6           0        3.053622   -0.973272    0.351301
     12          6           0        1.727868   -0.911496    1.110606
     13          6           0        1.186216   -2.295951    1.467944
     14          1           0        2.915619   -1.562043   -0.566141
     15          1           0        3.792755   -1.511845    0.960041
     16          1           0        0.991859   -0.372840    0.500068
     17          1           0        1.867988   -0.321853    2.025649
     18          1           0        1.899331   -2.837907    2.097508
     19          1           0        1.018224   -2.889184    0.563259
     20          1           0        0.237962   -2.228359    2.010259
     21          6           0       -2.590339    2.438617    1.074455
     22          6           0       -2.045836    1.305105    1.686982
     23          6           0       -2.046941    0.072212    1.027801
     24          6           0       -2.603268    0.008578   -0.248812
     25          6           0       -3.153344    1.120005   -0.885551
     26          6           0       -3.141383    2.342618   -0.207596
     27          1           0       -2.585264    3.392366    1.593814
     28          1           0       -1.617212    1.376698    2.682573
     29          1           0       -1.632088   -0.821126    1.478649
     30          1           0       -3.573495    1.017439   -1.878713
     31          1           0       -3.564951    3.221261   -0.685740
     32          7           0       -2.610183   -1.291189   -0.956595
     33          8           0       -3.106322   -1.320911   -2.080694
     34          8           0       -2.119334   -2.255615   -0.373852
 ---------------------------------------------------------------------

 SCF Done:  E(RHF) =  -669.535293433     A.U. after   15 cycles
 E2 =    -0.2092630195D+01 EUMP2 =    -0.67162792362842D+03

 The electronic state is 1-A.
 Alpha  occ. eigenvalues --  -20.60811 -20.60805 -15.85854 -11.31204 -11.27777
 Alpha  occ. eigenvalues --  -11.27746 -11.27514 -11.26787 -11.26771 -11.21582
 Alpha  occ. eigenvalues --  -11.21575 -11.21386 -11.21296 -11.21094 -11.20848
 Alpha  occ. eigenvalues --   -1.59881  -1.39434  -1.19381  -1.08776  -1.08395
 Alpha  occ. eigenvalues --   -1.04782  -1.03485  -0.95929  -0.95603  -0.86926
 Alpha  occ. eigenvalues --   -0.86177  -0.82444  -0.79550  -0.78221  -0.77494
 Alpha  occ. eigenvalues --   -0.72074  -0.71204  -0.70497  -0.65052  -0.65013
 Alpha  occ. eigenvalues --   -0.64779  -0.62190  -0.60852  -0.59288  -0.57556
 Alpha  occ. eigenvalues --   -0.55285  -0.55156  -0.53113  -0.52965  -0.52546
 Alpha  occ. eigenvalues --   -0.52287  -0.49824  -0.48833  -0.48820  -0.47874
 Alpha  occ. eigenvalues --   -0.46572  -0.45759  -0.45673  -0.44828  -0.43748
 Alpha  occ. eigenvalues --   -0.37358  -0.36348
 Alpha virt. eigenvalues --    0.05012   0.11217   0.16502   0.20694   0.22966
 Alpha virt. eigenvalues --    0.24003   0.26369   0.26690   0.27421   0.27872
 Alpha virt. eigenvalues --    0.29301   0.30492   0.31460   0.31577   0.31917

 Mulliken charges:
               1
     1  C   -0.298035
     2  C   -0.299831
     3  C   -0.475612
     4  H    0.149480
     5  H    0.146899
     6  H    0.153737
     7  H    0.152017
     8  H    0.153893
     9  H    0.154778
    10  H    0.160648
    11  C   -0.298383
    12  C   -0.304984
    13  C   -0.475046
    14  H    0.154019
    15  H    0.149572
    16  H    0.152792
    17  H    0.144674
    18  H    0.153376
    19  H    0.171564
    20  H    0.151829
    21  C   -0.170493
    22  C   -0.221336
    23  C   -0.172555
    24  C    0.155193
    25  C   -0.170427
    26  C   -0.218866
    27  H    0.225775
    28  H    0.224241
    29  H    0.285767
    30  H    0.275561
    31  H    0.223483
    32  N    0.487482
    33  O   -0.460228
    34  O   -0.460982
 Sum of Mulliken charges =  -0.00000

 Dipole moment (field-independent basis, Debye):
    X=              0.0022    Y=              4.4865    Z=              2.3991  Tot=              5.0877
 Quadrupole moment (field-independent basis, Debye-Ang):
   XX=            -94.6486   YY=            -94.8203   ZZ=            -92.7804
   XY=            -13.9093   XZ=             -4.0973   YZ=             -2.5406

 Normal termination of Gaussian 16 at Thu May  6 12:06:39 2021.
