 Gaussian 16, Revision A.03,
 Gaussian 16:  EM64L-G16RevA.03 25-Dec-2016

 -------------
 #p 6-31g* mp2
 -------------

 ------------------------------------------------------
 Input file generated by CHIRIPA (05-May-2021 14:57:26)
 ------------------------------------------------------
 Symbolic Z-matrix:
 Charge =  0 Multiplicity = 1

                         Standard orientation:
 ---------------------------------------------------------------------
 Center     Atomic      Atomic             Coordinates (Angstroms)
 Number     Number       Type             X           Y           Z
 ---------------------------------------------------------------------
      1          6           0        1.172500    1.247617   -0.503756
      2          6           0        2.205044    1.979437    0.091904
      3          6           0        3.478238    1.420829    0.238469
      4          6           0        3.684690    0.122050   -0.223961
      5          6           0        2.676357   -0.632454   -0.821688
      6          6           0        1.411031   -0.053698   -0.957851
      7          1           0        0.186508    1.689383   -0.613571
      8          1           0        2.022684    2.990264    0.445485
      9          1           0        4.295615    1.964991    0.695855
     10          1           0        2.888552   -1.637907   -1.164405
     11          1           0        0.611031   -0.624386   -1.420842
     12          7           0        5.028399   -0.479988   -0.074305
     13          8           0        5.184610   -1.626062   -0.489938
     14          8           0        5.899944    0.205607    0.455795
     15          6           0       -1.332041   -1.019139    1.338290
     16          6           0       -1.656151    0.341518    1.347654
     17          6           0       -2.834363    0.794893    0.746976
     18          6           0       -3.669267   -0.144138    0.143282
     19          6           0       -3.373990   -1.506282    0.117440
     20          6           0       -2.190482   -1.937078    0.724295
     21          1           0       -0.414722   -1.362562    1.807310
     22          1           0       -0.991359    1.056663    1.823746
     23          1           0       -3.109667    1.842543    0.739656
     24          1           0       -4.056552   -2.195331   -0.364991
     25          1           0       -1.941332   -2.994382    0.715495
     26          7           0       -4.919390    0.323878   -0.495900
     27          8           0       -5.638170   -0.523540   -1.021137
     28          8           0       -5.156786    1.529266   -0.459548
 ---------------------------------------------------------------------

 SCF Done:  E(RHF) =  -868.336958062     A.U. after   16 cycles
 E2 =    -0.2602279476D+01 EUMP2 =    -0.87093923753807D+03

 The electronic state is 1-A.
 Alpha  occ. eigenvalues --  -20.61507 -20.61500 -20.61310 -20.61305 -15.86567
 Alpha  occ. eigenvalues --  -15.86368 -11.32069 -11.31813 -11.28678 -11.28628
 Alpha  occ. eigenvalues --  -11.28396 -11.28381 -11.28335 -11.28078 -11.27666
 Alpha  occ. eigenvalues --  -11.27632 -11.27419 -11.27349  -1.60581  -1.60386
 Alpha  occ. eigenvalues --   -1.40131  -1.39937  -1.20269  -1.19997  -1.09629
 Alpha  occ. eigenvalues --   -1.09351  -1.05689  -1.05405  -0.96417  -0.96187
 Alpha  occ. eigenvalues --   -0.87052  -0.86784  -0.83269  -0.82993  -0.78291
 Alpha  occ. eigenvalues --   -0.78052  -0.72775  -0.72579  -0.71915  -0.71716
 Alpha  occ. eigenvalues --   -0.71291  -0.71091  -0.65889  -0.65662  -0.65627
 Alpha  occ. eigenvalues --   -0.65376  -0.63011  -0.62736  -0.56117  -0.55885
 Alpha  occ. eigenvalues --   -0.54197  -0.53776  -0.53544  -0.53421  -0.49546
 Alpha  occ. eigenvalues --   -0.49526  -0.49345  -0.49332  -0.45507  -0.45325
 Alpha  occ. eigenvalues --   -0.38710  -0.37794  -0.37166  -0.36840
 Alpha virt. eigenvalues --    0.04177   0.04446   0.10216   0.10688   0.15388
 Alpha virt. eigenvalues --    0.16250   0.20201   0.21269   0.25953   0.26825
 Alpha virt. eigenvalues --    0.27419   0.28288   0.30255   0.30546   0.31610

 Mulliken charges:
               1
     1  C   -0.173785
     2  C   -0.223290
     3  C   -0.170533
     4  C    0.158262
     5  C   -0.174959
     6  C   -0.221007
     7  H    0.228341
     8  H    0.223958
     9  H    0.277209
    10  H    0.275943
    11  H    0.227875
    12  N    0.487989
    13  O   -0.459791
    14  O   -0.458909
    15  C   -0.170296
    16  C   -0.223576
    17  C   -0.177549
    18  C    0.158873
    19  C   -0.170806
    20  C   -0.223385
    21  H    0.232477
    22  H    0.224924
    23  H    0.275675
    24  H    0.278510
    25  H    0.227181
    26  N    0.488033
    27  O   -0.457701
    28  O   -0.459664
 Sum of Mulliken charges =  -0.00000

 Dipole moment (field-independent basis, Debye):
    X=             -0.3980    Y=              0.3594    Z=              1.7383  Tot=              1.8192
 Quadrupole moment (field-independent basis, Debye-Ang):
   XX=           -172.0940   YY=            -95.9659   ZZ=           -103.9325
   XY=             15.7535   XZ=             -7.4330   YZ=              2.2863

 Normal termination of Gaussian 16 at Wed May  5 18:02:35 2021.
