 Gaussian 16, Revision A.03,
 Gaussian 16:  EM64L-G16RevA.03 25-Dec-2016

 -------------
 #p 6-31g* mp2
 -------------

 ------------------------------------------------------
 Input file generated by CHIRIPA (05-May-2021 14:57:22)
 ------------------------------------------------------
 Symbolic Z-matrix:
 Charge =  0 Multiplicity = 1

                         Standard orientation:
 ---------------------------------------------------------------------
 Center     Atomic      Atomic             Coordinates (Angstroms)
 Number     Number       Type             X           Y           Z
 ---------------------------------------------------------------------
      1          6           0       -4.942534    1.770327   -0.842480
      2          6           0       -3.592704    1.977973   -0.540213
      3          6           0       -2.809980    0.935949   -0.034173
      4          6           0       -3.412203   -0.306482    0.158139
      5          6           0       -4.754426   -0.544659   -0.133406
      6          6           0       -5.518072    0.511893   -0.638472
      7          1           0       -5.543162    2.585440   -1.235206
      8          1           0       -3.143070    2.954237   -0.697636
      9          1           0       -1.762654    1.069087    0.208315
     10          1           0       -5.174577   -1.528937    0.034191
     11          1           0       -6.566122    0.347738   -0.872328
     12          7           0       -2.593667   -1.417316    0.693345
     13          8           0       -3.147921   -2.502537    0.853764
     14          8           0       -1.413342   -1.181734    0.942287
     15          6           0        3.686112   -2.291351   -0.787955
     16          6           0        2.452012   -1.736306   -0.433777
     17          6           0        2.363145   -0.399464   -0.034395
     18          6           0        3.533669    0.356853   -0.000514
     19          6           0        4.777908   -0.167386   -0.347405
     20          6           0        4.843082   -1.506504   -0.743717
     21          1           0        3.745943   -3.330726   -1.097012
     22          1           0        1.551847   -2.343456   -0.467191
     23          1           0        1.420694    0.055618    0.245078
     24          1           0        5.657883    0.462846   -0.304162
     25          1           0        5.802856   -1.934900   -1.018222
     26          7           0        3.452131    1.773313    0.420669
     27          8           0        4.498015    2.418527    0.442129
     28          8           0        2.343881    2.211497    0.721356
 ---------------------------------------------------------------------

 SCF Done:  E(RHF) =  -868.340796369     A.U. after   16 cycles
 E2 =    -0.2598438600D+01 EUMP2 =    -0.87093923496931D+03

 The electronic state is 1-A.
 Alpha  occ. eigenvalues --  -20.61399 -20.61352 -20.60402 -20.60384 -15.86405
 Alpha  occ. eigenvalues --  -15.85437 -11.31442 -11.30539 -11.27988 -11.27941
 Alpha  occ. eigenvalues --  -11.27658 -11.27133 -11.26958 -11.26940 -11.26871
 Alpha  occ. eigenvalues --  -11.26784 -11.26124 -11.25889  -1.60435  -1.59471
 Alpha  occ. eigenvalues --   -1.40001  -1.39033  -1.19586  -1.18687  -1.09042
 Alpha  occ. eigenvalues --   -1.08141  -1.04933  -1.04022  -0.95930  -0.95016
 Alpha  occ. eigenvalues --   -0.86350  -0.85448  -0.82776  -0.81838  -0.77858
 Alpha  occ. eigenvalues --   -0.76908  -0.72643  -0.71736  -0.71668  -0.70786
 Alpha  occ. eigenvalues --   -0.70691  -0.69800  -0.65242  -0.64927  -0.64330
 Alpha  occ. eigenvalues --   -0.64006  -0.62279  -0.61346  -0.55453  -0.54572
 Alpha  occ. eigenvalues --   -0.53289  -0.53015  -0.52407  -0.52091  -0.49396
 Alpha  occ. eigenvalues --   -0.49352  -0.48430  -0.48395  -0.45474  -0.44495
 Alpha  occ. eigenvalues --   -0.37555  -0.36689  -0.36522  -0.35622
 Alpha virt. eigenvalues --    0.04633   0.05574   0.11130   0.12016   0.16182
 Alpha virt. eigenvalues --    0.17125   0.20673   0.22259   0.25585   0.27543
 Alpha virt. eigenvalues --    0.28510   0.29345   0.30843   0.31471   0.32052

 Mulliken charges:
               1
     1  C   -0.169902
     2  C   -0.219495
     3  C   -0.172054
     4  C    0.157094
     5  C   -0.170882
     6  C   -0.218795
     7  H    0.227378
     8  H    0.229161
     9  H    0.279963
    10  H    0.275043
    11  H    0.224116
    12  N    0.491532
    13  O   -0.457698
    14  O   -0.472859
    15  C   -0.171345
    16  C   -0.221981
    17  C   -0.174738
    18  C    0.157926
    19  C   -0.172159
    20  C   -0.219165
    21  H    0.224582
    22  H    0.236799
    23  H    0.283382
    24  H    0.272623
    25  H    0.220716
    26  N    0.488431
    27  O   -0.462165
    28  O   -0.465509
 Sum of Mulliken charges =  -0.00000

 Dipole moment (field-independent basis, Debye):
    X=             -2.9762    Y=             -1.1086    Z=             -3.3882  Tot=              4.6440
 Quadrupole moment (field-independent basis, Debye-Ang):
   XX=            -75.5862   YY=           -109.6939   ZZ=           -107.0834
   XY=            -27.5909   XZ=              0.4518   YZ=              0.6197

 Normal termination of Gaussian 16 at Thu May  6 12:54:08 2021.
