 Gaussian 16, Revision A.03,
 Gaussian 16:  EM64L-G16RevA.03 25-Dec-2016

 -------------
 #p 6-31g* mp2
 -------------

 ------------------------------------------------------
 Input file generated by CHIRIPA (05-May-2021 14:57:27)
 ------------------------------------------------------
 Symbolic Z-matrix:
 Charge =  0 Multiplicity = 1

                         Standard orientation:
 ---------------------------------------------------------------------
 Center     Atomic      Atomic             Coordinates (Angstroms)
 Number     Number       Type             X           Y           Z
 ---------------------------------------------------------------------
      1          6           0       -1.919374   -0.478401    0.645540
      2          6           0       -2.847648   -0.046434    1.598552
      3          6           0       -4.193166    0.117097    1.255935
      4          6           0       -4.577481   -0.161631   -0.054753
      5          6           0       -3.676452   -0.593536   -1.026809
      6          6           0       -2.336004   -0.750095   -0.661794
      7          1           0       -0.876112   -0.602728    0.920393
      8          1           0       -2.526935    0.165310    2.614600
      9          1           0       -4.932835    0.450166    1.973830
     10          1           0       -4.026156   -0.796783   -2.031705
     11          1           0       -1.617298   -1.085707   -1.404001
     12          7           0       -5.999238    0.007801   -0.429322
     13          8           0       -6.312491   -0.244369   -1.590752
     14          8           0       -6.773435    0.389565    0.445613
     15          6           0        2.549041    1.953991    0.176957
     16          6           0        3.736249    2.231662   -0.508576
     17          6           0        4.737176    1.261617   -0.616781
     18          6           0        4.516607    0.018976   -0.024763
     19          6           0        3.344610   -0.287976    0.664797
     20          6           0        2.357349    0.697274    0.760427
     21          1           0        1.776805    2.713450    0.256129
     22          1           0        3.887856    3.206770   -0.962695
     23          1           0        5.665845    1.449844   -1.141720
     24          1           0        3.222309   -1.269230    1.107066
     25          1           0        1.436351    0.478828    1.293426
     26          7           0        5.569010   -1.016015   -0.132659
     27          8           0        5.350352   -2.103001    0.397706
     28          8           0        6.592615   -0.720657   -0.745549
 ---------------------------------------------------------------------

 SCF Done:  E(RHF) =  -868.336749158     A.U. after   16 cycles
 E2 =    -0.2599450934D+01 EUMP2 =    -0.87093620009269D+03

 The electronic state is 1-A.
 Alpha  occ. eigenvalues --  -20.61383 -20.61373 -20.61217 -20.61211 -15.86443
 Alpha  occ. eigenvalues --  -15.86273 -11.31931 -11.31763 -11.28594 -11.28495
 Alpha  occ. eigenvalues --  -11.28334 -11.28311 -11.28306 -11.28207 -11.27694
 Alpha  occ. eigenvalues --  -11.27499 -11.27435 -11.27385  -1.60455  -1.60289
 Alpha  occ. eigenvalues --   -1.40005  -1.39839  -1.20135  -1.19952  -1.09501
 Alpha  occ. eigenvalues --   -1.09348  -1.05573  -1.05361  -0.96308  -0.96160
 Alpha  occ. eigenvalues --   -0.86963  -0.86765  -0.83157  -0.82973  -0.78182
 Alpha  occ. eigenvalues --   -0.77981  -0.72656  -0.72489  -0.71782  -0.71613
 Alpha  occ. eigenvalues --   -0.71227  -0.71136  -0.65790  -0.65617  -0.65610
 Alpha  occ. eigenvalues --   -0.65353  -0.62927  -0.62694  -0.56113  -0.55901
 Alpha  occ. eigenvalues --   -0.53875  -0.53713  -0.53636  -0.53456  -0.49426
 Alpha  occ. eigenvalues --   -0.49404  -0.49258  -0.49236  -0.45383  -0.45216
 Alpha  occ. eigenvalues --   -0.38115  -0.37975  -0.37181  -0.36955
 Alpha virt. eigenvalues --    0.04382   0.04526   0.10425   0.10690   0.15762
 Alpha virt. eigenvalues --    0.15942   0.18315   0.21777   0.24703   0.26759
 Alpha virt. eigenvalues --    0.27592   0.28649   0.29837   0.31548   0.31965

 Mulliken charges:
               1
     1  C   -0.175313
     2  C   -0.219409
     3  C   -0.170501
     4  C    0.159333
     5  C   -0.170515
     6  C   -0.219102
     7  H    0.220690
     8  H    0.222620
     9  H    0.277224
    10  H    0.277760
    11  H    0.226627
    12  N    0.487864
    13  O   -0.458648
    14  O   -0.459127
    15  C   -0.170669
    16  C   -0.218579
    17  C   -0.169396
    18  C    0.158858
    19  C   -0.171452
    20  C   -0.223147
    21  H    0.228196
    22  H    0.226606
    23  H    0.278286
    24  H    0.275138
    25  H    0.216482
    26  N    0.488072
    27  O   -0.459890
    28  O   -0.458008
 Sum of Mulliken charges =  -0.00000

 Dipole moment (field-independent basis, Debye):
    X=              1.3405    Y=              3.1188    Z=              1.5596  Tot=              3.7358
 Quadrupole moment (field-independent basis, Debye-Ang):
   XX=           -181.7114   YY=           -102.9708   ZZ=            -99.9221
   XY=             20.4295   XZ=             -7.5115   YZ=             -0.6350

 Normal termination of Gaussian 16 at Thu May  6 22:57:21 2021.
