 Gaussian 16, Revision A.03,
 Gaussian 16:  EM64L-G16RevA.03 25-Dec-2016

 -------------
 #p 6-31g* mp2
 -------------

 ------------------------------------------------------
 Input file generated by CHIRIPA (05-May-2021 14:53:13)
 ------------------------------------------------------
 Symbolic Z-matrix:
 Charge =  0 Multiplicity = 1

                         Standard orientation:
 ---------------------------------------------------------------------
 Center     Atomic      Atomic             Coordinates (Angstroms)
 Number     Number       Type             X           Y           Z
 ---------------------------------------------------------------------
      1          6           0       -5.365794   -0.485463   -0.125313
      2          6           0       -6.878285   -0.350507   -0.304603
      3          6           0       -7.575471   -1.699886   -0.480391
      4          1           0       -4.944811   -1.006629   -0.996005
      5          1           0       -5.162323   -1.120848    0.747774
      6          1           0       -7.078838    0.285565   -1.176271
      7          1           0       -7.295690    0.170567    0.566528
      8          1           0       -7.404752   -2.338313    0.392460
      9          1           0       -7.186668   -2.222661   -1.360242
     10          1           0       -8.655973   -1.580038   -0.606927
     11          6           0       -4.654719    0.854983    0.051614
     12          6           0       -3.142228    0.720028    0.230904
     13          6           0       -2.445042    2.069407    0.406692
     14          1           0       -4.858190    1.490368   -0.821473
     15          1           0       -5.075702    1.376149    0.922306
     16          1           0       -2.724823    0.198953   -0.640227
     17          1           0       -2.941675    0.083955    1.102573
     18          1           0       -2.833845    2.592182    1.286544
     19          1           0       -2.615761    2.707833   -0.466158
     20          1           0       -1.364539    1.949558    0.533228
     21          6           0        1.480833    0.226475    0.582716
     22          6           0        2.085365   -1.001291    0.871941
     23          6           0        3.432992   -1.217904    0.569407
     24          6           0        4.149517   -0.180193   -0.024763
     25          6           0        3.575585    1.054164   -0.325183
     26          6           0        2.226558    1.248482   -0.013871
     27          1           0        0.433420    0.386085    0.821141
     28          1           0        1.508672   -1.796796    1.335237
     29          1           0        3.926039   -2.158603    0.782500
     30          1           0        4.176245    1.828198   -0.787238
     31          1           0        1.759695    2.203009   -0.239620
     32          7           0        5.576932   -0.397710   -0.349689
     33          8           0        6.186421    0.532525   -0.872968
     34          8           0        6.059220   -1.494316   -0.074933
 ---------------------------------------------------------------------

 SCF Done:  E(RHF) =  -669.535478446     A.U. after   15 cycles
 E2 =    -0.2090876828D+01 EUMP2 =    -0.67162635527452D+03

 The electronic state is 1-A.
 Alpha  occ. eigenvalues --  -20.60729 -20.60724 -15.85783 -11.31141 -11.27713
 Alpha  occ. eigenvalues --  -11.27709 -11.27428 -11.26723 -11.26713 -11.22695
 Alpha  occ. eigenvalues --  -11.22346 -11.22217 -11.22153 -11.22046 -11.21534
 Alpha  occ. eigenvalues --   -1.59805  -1.39358  -1.19314  -1.09230  -1.08709
 Alpha  occ. eigenvalues --   -1.04717  -1.04362  -0.96813  -0.95545  -0.87827
 Alpha  occ. eigenvalues --   -0.86114  -0.82380  -0.80437  -0.78997  -0.77427
 Alpha  occ. eigenvalues --   -0.72001  -0.71128  -0.70449  -0.65848  -0.64967
 Alpha  occ. eigenvalues --   -0.64729  -0.62068  -0.61739  -0.60266  -0.58436
 Alpha  occ. eigenvalues --   -0.56067  -0.55229  -0.53509  -0.53204  -0.53046
 Alpha  occ. eigenvalues --   -0.52807  -0.50727  -0.48767  -0.48757  -0.48741
 Alpha  occ. eigenvalues --   -0.47453  -0.46547  -0.46439  -0.44765  -0.44608
 Alpha  occ. eigenvalues --   -0.37291  -0.36324
 Alpha virt. eigenvalues --    0.05108   0.11331   0.16597   0.19147   0.22375
 Alpha virt. eigenvalues --    0.23791   0.25848   0.25887   0.26510   0.27323
 Alpha virt. eigenvalues --    0.28812   0.30439   0.30641   0.31217   0.32042

 Mulliken charges:
               1
     1  C   -0.298999
     2  C   -0.300300
     3  C   -0.476146
     4  H    0.150619
     5  H    0.149548
     6  H    0.153058
     7  H    0.152803
     8  H    0.155507
     9  H    0.155909
    10  H    0.162030
    11  C   -0.298804
    12  C   -0.302133
    13  C   -0.478439
    14  H    0.152009
    15  H    0.151696
    16  H    0.153338
    17  H    0.149627
    18  H    0.160779
    19  H    0.160636
    20  H    0.148141
    21  C   -0.176826
    22  C   -0.219316
    23  C   -0.170767
    24  C    0.158201
    25  C   -0.170910
    26  C   -0.220746
    27  H    0.234430
    28  H    0.223774
    29  H    0.275382
    30  H    0.275492
    31  H    0.223472
    32  N    0.488042
    33  O   -0.460560
    34  O   -0.460548
 Sum of Mulliken charges =  -0.00000

 Dipole moment (field-independent basis, Debye):
    X=             -5.3053    Y=              0.7801    Z=              1.1152  Tot=              5.4771
 Quadrupole moment (field-independent basis, Debye-Ang):
   XX=           -136.4968   YY=            -91.4931   ZZ=            -93.8914
   XY=              3.7260   XZ=              4.6187   YZ=             -2.4413

 Normal termination of Gaussian 16 at Wed May  5 23:25:51 2021.
