 Gaussian 16, Revision A.03,
 Gaussian 16:  EM64L-G16RevA.03 25-Dec-2016

 -------------
 #p 6-31g* mp2
 -------------

 ------------------------------------------------------
 Input file generated by CHIRIPA (05-May-2021 14:53:11)
 ------------------------------------------------------
 Symbolic Z-matrix:
 Charge =  0 Multiplicity = 1

                         Standard orientation:
 ---------------------------------------------------------------------
 Center     Atomic      Atomic             Coordinates (Angstroms)
 Number     Number       Type             X           Y           Z
 ---------------------------------------------------------------------
      1          6           0       -3.492522   -0.099820    0.538339
      2          6           0       -4.649629   -1.024112    0.157851
      3          6           0       -4.790549   -2.215726    1.105476
      4          1           0       -2.557737   -0.676940    0.545544
      5          1           0       -3.644068    0.262536    1.564559
      6          1           0       -4.496659   -1.383520   -0.867840
      7          1           0       -5.581742   -0.444681    0.151364
      8          1           0       -4.967667   -1.874020    2.130399
      9          1           0       -3.876419   -2.818193    1.105404
     10          1           0       -5.623687   -2.863316    0.815013
     11          6           0       -3.338838    1.096109   -0.399671
     12          6           0       -2.181731    2.020402   -0.019183
     13          6           0       -2.040811    3.212016   -0.966807
     14          1           0       -3.187293    0.733754   -1.425891
     15          1           0       -4.273624    1.673230   -0.406876
     16          1           0       -1.249619    1.440971   -0.012696
     17          1           0       -2.334702    2.379810    1.006508
     18          1           0       -2.954942    3.814482   -0.966736
     19          1           0       -1.863694    2.870309   -1.991730
     20          1           0       -1.207674    3.859606   -0.676345
     21          6           0        1.157193   -2.163939   -1.019615
     22          6           0        0.658932   -0.881391   -0.767958
     23          6           0        1.487233    0.109808   -0.233178
     24          6           0        2.814608   -0.217598    0.039169
     25          6           0        3.340528   -1.486170   -0.200465
     26          6           0        2.494043   -2.461709   -0.735566
     27          1           0        0.506686   -2.927844   -1.435169
     28          1           0       -0.378861   -0.647296   -0.987568
     29          1           0        1.127521    1.110885   -0.028562
     30          1           0        4.379500   -1.689578    0.028840
     31          1           0        2.883726   -3.456896   -0.929979
     32          7           0        3.701118    0.823451    0.605486
     33          8           0        4.866782    0.509721    0.836655
     34          8           0        3.213516    1.933443    0.807472
 ---------------------------------------------------------------------

 SCF Done:  E(RHF) =  -669.534792304     A.U. after   15 cycles
 E2 =    -0.2092781081D+01 EUMP2 =    -0.67162757338447D+03

 The electronic state is 1-A.
 Alpha  occ. eigenvalues --  -20.60753 -20.60748 -15.85806 -11.31172 -11.27752
 Alpha  occ. eigenvalues --  -11.27726 -11.27500 -11.26765 -11.26737 -11.22441
 Alpha  occ. eigenvalues --  -11.22307 -11.22217 -11.22154 -11.21684 -11.21630
 Alpha  occ. eigenvalues --   -1.59828  -1.39381  -1.19351  -1.09227  -1.08745
 Alpha  occ. eigenvalues --   -1.04768  -1.04241  -0.96667  -0.95581  -0.87676
 Alpha  occ. eigenvalues --   -0.86156  -0.82430  -0.80319  -0.79048  -0.77455
 Alpha  occ. eigenvalues --   -0.72026  -0.71150  -0.70474  -0.65983  -0.65006
 Alpha  occ. eigenvalues --   -0.64723  -0.62259  -0.61497  -0.60014  -0.58274
 Alpha  occ. eigenvalues --   -0.55970  -0.55262  -0.53329  -0.53084  -0.53073
 Alpha  occ. eigenvalues --   -0.52840  -0.50617  -0.48788  -0.48784  -0.48601
 Alpha  occ. eigenvalues --   -0.47373  -0.46547  -0.46497  -0.44786  -0.44504
 Alpha  occ. eigenvalues --   -0.37333  -0.36350
 Alpha virt. eigenvalues --    0.05069   0.11237   0.16494   0.18914   0.22641
 Alpha virt. eigenvalues --    0.23532   0.25404   0.25784   0.26742   0.28239
 Alpha virt. eigenvalues --    0.29371   0.30598   0.31233   0.31315   0.32356

 Mulliken charges:
               1
     1  C   -0.301379
     2  C   -0.299844
     3  C   -0.475720
     4  H    0.144238
     5  H    0.154813
     6  H    0.149361
     7  H    0.155164
     8  H    0.158032
     9  H    0.153124
    10  H    0.162098
    11  C   -0.300107
    12  C   -0.306361
    13  C   -0.477591
    14  H    0.145603
    15  H    0.155140
    16  H    0.143290
    17  H    0.159522
    18  H    0.158893
    19  H    0.154138
    20  H    0.167327
    21  C   -0.171549
    22  C   -0.223829
    23  C   -0.176965
    24  C    0.159974
    25  C   -0.170660
    26  C   -0.218699
    27  H    0.225525
    28  H    0.229601
    29  H    0.280221
    30  H    0.275605
    31  H    0.223469
    32  N    0.488739
    33  O   -0.460489
    34  O   -0.460684
 Sum of Mulliken charges =  -0.00000

 Dipole moment (field-independent basis, Debye):
    X=             -3.2888    Y=             -3.5505    Z=             -1.9279  Tot=              5.2095
 Quadrupole moment (field-independent basis, Debye-Ang):
   XX=           -108.6133   YY=            -91.3686   ZZ=            -95.7390
   XY=            -13.4421   XZ=             -6.2142   YZ=              1.1662

 Normal termination of Gaussian 16 at Wed May  5 15:25:59 2021.
