 Gaussian 16, Revision A.03,
 Gaussian 16:  EM64L-G16RevA.03 25-Dec-2016

 -------------
 #p 6-31g* mp2
 -------------

 ------------------------------------------------------
 Input file generated by CHIRIPA (05-May-2021 14:51:09)
 ------------------------------------------------------
 Symbolic Z-matrix:
 Charge =  0 Multiplicity = 1

                         Standard orientation:
 ---------------------------------------------------------------------
 Center     Atomic      Atomic             Coordinates (Angstroms)
 Number     Number       Type             X           Y           Z
 ---------------------------------------------------------------------
      1          6           0       -2.953697   -0.554449   -0.603464
      2          6           0       -4.181793    0.339366   -0.427789
      3          6           0       -4.884703    0.644887   -1.750804
      4          1           0       -2.248741   -0.067152   -1.290868
      5          1           0       -3.258779   -1.494692   -1.083322
      6          1           0       -3.874716    1.277078    0.052852
      7          1           0       -4.883822   -0.150028    0.259426
      8          1           0       -5.218820   -0.279963   -2.232073
      9          1           0       -4.203980    1.155252   -2.439821
     10          1           0       -5.759766    1.285184   -1.601991
     11          6           0       -2.240255   -0.868758    0.710285
     12          6           0       -1.012159   -1.762573    0.534610
     13          6           0       -0.309249   -2.068093    1.857625
     14          1           0       -1.935173    0.071485    1.190143
     15          1           0       -2.945211   -1.356055    1.397689
     16          1           0       -0.310130   -1.273179   -0.152605
     17          1           0       -1.319237   -2.700285    0.053969
     18          1           0       -0.989972   -2.578458    2.546642
     19          1           0        0.024868   -1.143244    2.338894
     20          1           0        0.565814   -2.708390    1.708813
     21          6           0        3.009216    0.525623   -0.668961
     22          6           0        4.006274   -0.604812   -0.412105
     23          6           0        4.823547   -0.965518   -1.652972
     24          1           0        2.332401    0.231157   -1.482690
     25          1           0        3.553908    1.412628   -1.020993
     26          1           0        3.460010   -1.488990   -0.059341
     27          1           0        4.680672   -0.307699    0.401237
     28          1           0        5.393714   -0.099296   -2.003927
     29          1           0        4.166116   -1.287299   -2.467122
     30          1           0        5.529893   -1.775749   -1.446908
     31          6           0        2.184736    0.897583    0.562139
     32          6           0        1.187678    2.028019    0.305284
     33          6           0        0.370405    2.388725    1.546151
     34          1           0        1.640043    0.010578    0.914172
     35          1           0        2.861551    1.192050    1.375869
     36          1           0        0.513279    1.730905   -0.508059
     37          1           0        1.733942    2.912196   -0.047480
     38          1           0        1.027837    2.710506    2.360302
     39          1           0       -0.199762    1.522502    1.897106
     40          1           0       -0.335940    3.198955    1.340087
 ---------------------------------------------------------------------

 SCF Done:  E(RHF) =  -470.732211238     A.U. after   11 cycles
 E2 =    -0.1585381944D+01 EUMP2 =    -0.47231759318238D+03

 The electronic state is 1-A.
 Alpha  occ. eigenvalues --  -11.21680 -11.21656 -11.21622 -11.21608 -11.21443
 Alpha  occ. eigenvalues --  -11.21402 -11.21382 -11.21320 -11.21148 -11.21136
 Alpha  occ. eigenvalues --  -11.21087 -11.21074  -1.08532  -1.08407  -1.03631
 Alpha  occ. eigenvalues --   -1.03525  -0.96075  -0.95976  -0.87078  -0.87006
 Alpha  occ. eigenvalues --   -0.79681  -0.79599  -0.78318  -0.78246  -0.65569
 Alpha  occ. eigenvalues --   -0.64736  -0.61261  -0.60656  -0.59437  -0.59342
 Alpha  occ. eigenvalues --   -0.57656  -0.57611  -0.55625  -0.55062  -0.52735
 Alpha  occ. eigenvalues --   -0.52700  -0.52491  -0.52405  -0.50126  -0.49860
 Alpha  occ. eigenvalues --   -0.48091  -0.47861  -0.46816  -0.46571  -0.45963
 Alpha  occ. eigenvalues --   -0.45787  -0.45687  -0.45416  -0.43834  -0.43805
 Alpha virt. eigenvalues --    0.18947   0.22703   0.23319   0.24663   0.25433
 Alpha virt. eigenvalues --    0.26087   0.26776   0.28625   0.28902   0.29654
 Alpha virt. eigenvalues --    0.30303   0.31128   0.31320   0.32058   0.32140

 Mulliken charges:
               1
     1  C   -0.298342
     2  C   -0.299869
     3  C   -0.475767
     4  H    0.149475
     5  H    0.149646
     6  H    0.152500
     7  H    0.152056
     8  H    0.155169
     9  H    0.155195
    10  H    0.160402
    11  C   -0.304902
    12  C   -0.303791
    13  C   -0.481337
    14  H    0.156373
    15  H    0.150104
    16  H    0.154063
    17  H    0.152941
    18  H    0.156832
    19  H    0.158188
    20  H    0.160504
    21  C   -0.298440
    22  C   -0.299816
    23  C   -0.475743
    24  H    0.149186
    25  H    0.149578
    26  H    0.152028
    27  H    0.152096
    28  H    0.155196
    29  H    0.155228
    30  H    0.160291
    31  C   -0.308842
    32  C   -0.300306
    33  C   -0.482897
    34  H    0.162386
    35  H    0.149630
    36  H    0.151470
    37  H    0.152508
    38  H    0.155969
    39  H    0.160832
    40  H    0.160206
 Sum of Mulliken charges =  -0.00000

 Dipole moment (field-independent basis, Debye):
    X=             -0.0121    Y=             -0.0126    Z=              0.0258  Tot=              0.0311
 Quadrupole moment (field-independent basis, Debye-Ang):
   XX=            -84.7195   YY=            -83.8792   ZZ=            -86.0999
   XY=              1.4034   XZ=              0.1274   YZ=              0.0413

 Normal termination of Gaussian 16 at Wed May  5 23:00:58 2021.
