 Gaussian 16, Revision A.03,
 Gaussian 16:  EM64L-G16RevA.03 25-Dec-2016

 -------------
 #p 6-31g* mp2
 -------------

 ------------------------------------------------------
 Input file generated by CHIRIPA (05-May-2021 14:53:13)
 ------------------------------------------------------
 Symbolic Z-matrix:
 Charge =  0 Multiplicity = 1

                         Standard orientation:
 ---------------------------------------------------------------------
 Center     Atomic      Atomic             Coordinates (Angstroms)
 Number     Number       Type             X           Y           Z
 ---------------------------------------------------------------------
      1          6           0        2.374636    1.006989   -0.421695
      2          6           0        2.796454    2.440589   -0.097900
      3          6           0        1.825387    3.482446   -0.654099
      4          1           0        2.295840    0.891982   -1.511424
      5          1           0        1.369857    0.827088   -0.014939
      6          1           0        3.800704    2.617293   -0.503945
      7          1           0        2.874441    2.552143    0.991178
      8          1           0        0.822828    3.334502   -0.239867
      9          1           0        1.754353    3.400022   -1.743485
     10          1           0        2.146080    4.500264   -0.411071
     11          6           0        3.335478   -0.045956    0.127686
     12          6           0        2.913660   -1.479557   -0.196110
     13          6           0        3.884727   -2.521414    0.360089
     14          1           0        4.340256    0.133944   -0.279070
     15          1           0        3.414274    0.069050    1.217415
     16          1           0        2.835673   -1.591111   -1.285187
     17          1           0        1.909410   -1.656261    0.209936
     18          1           0        3.955760   -2.438990    1.449475
     19          1           0        4.887286   -2.373470   -0.054143
     20          1           0        3.564034   -3.539232    0.117061
     21          6           0       -3.048281    1.979667    0.503211
     22          6           0       -3.567231    1.223719   -0.553082
     23          6           0       -3.121508   -0.082206   -0.777668
     24          6           0       -2.151454   -0.603083    0.077302
     25          6           0       -1.615067    0.124946    1.138223
     26          6           0       -2.075570    1.428838    1.344010
     27          1           0       -3.400270    2.993351    0.670374
     28          1           0       -4.322736    1.648916   -1.207653
     29          1           0       -3.506192   -0.689619   -1.587906
     30          1           0       -0.862836   -0.326129    1.773911
     31          1           0       -1.670757    2.013591    2.165128
     32          7           0       -1.671764   -1.984532   -0.150507
     33          8           0       -0.816390   -2.420445    0.616925
     34          8           0       -2.160240   -2.605239   -1.092181
 ---------------------------------------------------------------------

 SCF Done:  E(RHF) =  -669.536509796     A.U. after   15 cycles
 E2 =    -0.2092718136D+01 EUMP2 =    -0.67162922793212D+03

 The electronic state is 1-A.
 Alpha  occ. eigenvalues --  -20.60984 -20.60977 -15.86002 -11.31338 -11.27918
 Alpha  occ. eigenvalues --  -11.27889 -11.27634 -11.26926 -11.26893 -11.21635
 Alpha  occ. eigenvalues --  -11.21243 -11.21220 -11.20986 -11.20734 -11.20324
 Alpha  occ. eigenvalues --   -1.60032  -1.39591  -1.19507  -1.08903  -1.08138
 Alpha  occ. eigenvalues --   -1.04906  -1.03182  -0.95746  -0.95676  -0.86699
 Alpha  occ. eigenvalues --   -0.86302  -0.82582  -0.79289  -0.77904  -0.77611
 Alpha  occ. eigenvalues --   -0.72229  -0.71337  -0.70609  -0.65165  -0.64913
 Alpha  occ. eigenvalues --   -0.64776  -0.62251  -0.60583  -0.59076  -0.57243
 Alpha  occ. eigenvalues --   -0.55402  -0.54991  -0.53229  -0.52993  -0.52364
 Alpha  occ. eigenvalues --   -0.52092  -0.49655  -0.48997  -0.48984  -0.47593
 Alpha  occ. eigenvalues --   -0.46354  -0.45599  -0.45408  -0.44667  -0.43447
 Alpha  occ. eigenvalues --   -0.37468  -0.36478
 Alpha virt. eigenvalues --    0.04841   0.11052   0.16299   0.20906   0.23034
 Alpha virt. eigenvalues --    0.24547   0.26130   0.27374   0.27566   0.28158
 Alpha virt. eigenvalues --    0.28868   0.30562   0.31615   0.31863   0.32520

 Mulliken charges:
               1
     1  C   -0.300011
     2  C   -0.298788
     3  C   -0.475698
     4  H    0.150665
     5  H    0.146188
     6  H    0.153217
     7  H    0.148519
     8  H    0.150620
     9  H    0.156360
    10  H    0.158517
    11  C   -0.297769
    12  C   -0.310161
    13  C   -0.474778
    14  H    0.147820
    15  H    0.145591
    16  H    0.150487
    17  H    0.171963
    18  H    0.152326
    19  H    0.150494
    20  H    0.165457
    21  C   -0.170452
    22  C   -0.218018
    23  C   -0.170434
    24  C    0.159019
    25  C   -0.170325
    26  C   -0.219299
    27  H    0.226645
    28  H    0.224234
    29  H    0.276101
    30  H    0.275950
    31  H    0.224595
    32  N    0.488961
    33  O   -0.459850
    34  O   -0.458145
 Sum of Mulliken charges =  -0.00000

 Dipole moment (field-independent basis, Debye):
    X=             -1.9251    Y=              4.7094    Z=              0.7651  Tot=              5.1449
 Quadrupole moment (field-independent basis, Debye-Ang):
   XX=            -86.4555   YY=           -102.0497   ZZ=            -91.2280
   XY=             -8.9807   XZ=              0.2042   YZ=              0.5791

 Normal termination of Gaussian 16 at Thu May  6 17:04:52 2021.
