 Gaussian 16, Revision A.03,
 Gaussian 16:  EM64L-G16RevA.03 25-Dec-2016

 -------------
 #p 6-31g* mp2
 -------------

 ------------------------------------------------------
 Input file generated by CHIRIPA (05-May-2021 14:57:22)
 ------------------------------------------------------
 Symbolic Z-matrix:
 Charge =  0 Multiplicity = 1

                         Standard orientation:
 ---------------------------------------------------------------------
 Center     Atomic      Atomic             Coordinates (Angstroms)
 Number     Number       Type             X           Y           Z
 ---------------------------------------------------------------------
      1          6           0        5.418858    0.834439    0.248175
      2          6           0        5.117830   -0.513576    0.468990
      3          6           0        3.830135   -1.002111    0.228732
      4          6           0        2.863405   -0.110748   -0.234081
      5          6           0        3.132380    1.237665   -0.463697
      6          6           0        4.426921    1.704224   -0.216644
      7          1           0        6.421829    1.205409    0.437452
      8          1           0        5.886187   -1.191353    0.829947
      9          1           0        3.569783   -2.040975    0.391199
     10          1           0        2.345431    1.889163   -0.823807
     11          1           0        4.657841    2.751605   -0.389021
     12          7           0        1.496556   -0.616306   -0.492028
     13          8           0        0.662607    0.189370   -0.899523
     14          8           0        1.285052   -1.808664   -0.281829
     15          6           0       -2.546733   -2.436568    0.222407
     16          6           0       -1.879056   -1.562119    1.086160
     17          6           0       -2.171235   -0.194966    1.077717
     18          6           0       -3.141072    0.265636    0.188588
     19          6           0       -3.823512   -0.580429   -0.684188
     20          6           0       -3.515122   -1.943800   -0.658458
     21          1           0       -2.313465   -3.497136    0.235681
     22          1           0       -1.126529   -1.942002    1.771315
     23          1           0       -1.669535    0.504211    1.735643
     24          1           0       -4.568790   -0.172162   -1.355975
     25          1           0       -4.035241   -2.620580   -1.330388
     26          7           0       -3.458969    1.710979    0.170498
     27          8           0       -4.317516    2.091794   -0.622290
     28          8           0       -2.843570    2.435654    0.949450
 ---------------------------------------------------------------------

 SCF Done:  E(RHF) =  -868.338722264     A.U. after   16 cycles
 E2 =    -0.2600779859D+01 EUMP2 =    -0.87093950212355D+03

 The electronic state is 1-A.
 Alpha  occ. eigenvalues --  -20.61356 -20.61288 -20.59594 -20.59589 -15.86331
 Alpha  occ. eigenvalues --  -15.84637 -11.31540 -11.29655 -11.28122 -11.28041
 Alpha  occ. eigenvalues --  -11.27795 -11.27083 -11.27026 -11.26258 -11.26200
 Alpha  occ. eigenvalues --  -11.25901 -11.25239 -11.25110  -1.60380  -1.58670
 Alpha  occ. eigenvalues --   -1.39941  -1.38237  -1.19697  -1.17796  -1.09123
 Alpha  occ. eigenvalues --   -1.07262  -1.05069  -1.03193  -0.95984  -0.94167
 Alpha  occ. eigenvalues --   -0.86476  -0.84616  -0.82823  -0.81043  -0.77889
 Alpha  occ. eigenvalues --   -0.76127  -0.72571  -0.71712  -0.70884  -0.70797
 Alpha  occ. eigenvalues --   -0.69967  -0.68978  -0.65350  -0.65066  -0.63495
 Alpha  occ. eigenvalues --   -0.63247  -0.62413  -0.60599  -0.55579  -0.53735
 Alpha  occ. eigenvalues --   -0.53418  -0.53154  -0.51579  -0.51346  -0.49329
 Alpha  occ. eigenvalues --   -0.49180  -0.47644  -0.47602  -0.45378  -0.43724
 Alpha  occ. eigenvalues --   -0.37679  -0.36666  -0.35697  -0.34662
 Alpha virt. eigenvalues --    0.04591   0.06452   0.10989   0.12952   0.16131
 Alpha virt. eigenvalues --    0.18020   0.21167   0.22811   0.27093   0.28028
 Alpha virt. eigenvalues --    0.28664   0.29661   0.30751   0.32184   0.32402

 Mulliken charges:
               1
     1  C   -0.170192
     2  C   -0.218544
     3  C   -0.171823
     4  C    0.157341
     5  C   -0.170663
     6  C   -0.218539
     7  H    0.227115
     8  H    0.223805
     9  H    0.273056
    10  H    0.279876
    11  H    0.226355
    12  N    0.486652
    13  O   -0.453655
    14  O   -0.467635
    15  C   -0.164565
    16  C   -0.201510
    17  C   -0.160631
    18  C    0.161051
    19  C   -0.171558
    20  C   -0.218874
    21  H    0.221845
    22  H    0.219586
    23  H    0.267229
    24  H    0.269855
    25  H    0.217165
    26  N    0.488656
    27  O   -0.465459
    28  O   -0.465941
 Sum of Mulliken charges =  -0.00000

 Dipole moment (field-independent basis, Debye):
    X=              6.3561    Y=             -3.3022    Z=              0.9030  Tot=              7.2194
 Quadrupole moment (field-independent basis, Debye-Ang):
   XX=            -83.4891   YY=           -104.5648   ZZ=           -103.6285
   XY=             20.7664   XZ=              4.8208   YZ=             -2.4685

 Normal termination of Gaussian 16 at Thu May  6 16:14:35 2021.
