 Gaussian 16, Revision A.03,
 Gaussian 16:  EM64L-G16RevA.03 25-Dec-2016

 -------------
 #p 6-31g* mp2
 -------------

 ------------------------------------------------------
 Input file generated by CHIRIPA (05-May-2021 14:53:14)
 ------------------------------------------------------
 Symbolic Z-matrix:
 Charge =  0 Multiplicity = 1

                         Standard orientation:
 ---------------------------------------------------------------------
 Center     Atomic      Atomic             Coordinates (Angstroms)
 Number     Number       Type             X           Y           Z
 ---------------------------------------------------------------------
      1          6           0       -4.019185   -0.451524   -0.399952
      2          6           0       -4.350886   -1.477878    0.683817
      3          6           0       -4.754769   -2.835655    0.108390
      4          1           0       -4.890212   -0.328056   -1.057989
      5          1           0       -3.205943   -0.841323   -1.027717
      6          1           0       -5.162323   -1.085664    1.310200
      7          1           0       -3.479034   -1.598775    1.339464
      8          1           0       -3.945782   -3.252058   -0.500503
      9          1           0       -5.638635   -2.736032   -0.529933
     10          1           0       -4.987564   -3.554179    0.900469
     11          6           0       -3.613625    0.910856    0.159664
     12          6           0       -3.281923    1.937211   -0.924105
     13          6           0       -2.878041    3.294987   -0.348679
     14          1           0       -4.426866    1.300656    0.787429
     15          1           0       -2.742597    0.787389    0.817700
     16          1           0       -4.153776    2.058108   -1.579752
     17          1           0       -2.470487    1.544997   -1.550488
     18          1           0       -1.994175    3.195364    0.289645
     19          1           0       -3.687028    3.711390    0.260214
     20          1           0       -2.645245    4.013512   -1.140757
     21          6           0        0.506500   -0.199339    0.583325
     22          6           0        1.008625   -0.905605   -0.514664
     23          6           0        2.378194   -0.901625   -0.795402
     24          6           0        3.220846   -0.177502    0.046544
     25          6           0        2.750960    0.536062    1.148053
     26          6           0        1.377734    0.517976    1.409722
     27          1           0       -0.558834   -0.207910    0.794001
     28          1           0        0.334361   -1.463554   -1.158174
     29          1           0        2.793741   -1.439662   -1.638761
     30          1           0        3.447833    1.083049    1.771422
     31          1           0        0.990587    1.067385    2.263133
     32          7           0        4.672684   -0.165821   -0.240568
     33          8           0        5.394179    0.479903    0.516480
     34          8           0        5.061647   -0.802613   -1.217216
 ---------------------------------------------------------------------

 SCF Done:  E(RHF) =  -669.535470573     A.U. after   15 cycles
 E2 =    -0.2091664630D+01 EUMP2 =    -0.67162713520304D+03

 The electronic state is 1-A.
 Alpha  occ. eigenvalues --  -20.60767 -20.60762 -15.85821 -11.31196 -11.27767
 Alpha  occ. eigenvalues --  -11.27763 -11.27491 -11.26787 -11.26776 -11.22610
 Alpha  occ. eigenvalues --  -11.22565 -11.22496 -11.22454 -11.21908 -11.21853
 Alpha  occ. eigenvalues --   -1.59843  -1.39396  -1.19369  -1.09480  -1.08761
 Alpha  occ. eigenvalues --   -1.04774  -1.04455  -0.96907  -0.95596  -0.87913
 Alpha  occ. eigenvalues --   -0.86171  -0.82431  -0.80518  -0.79303  -0.77474
 Alpha  occ. eigenvalues --   -0.72039  -0.71166  -0.70516  -0.66131  -0.65021
 Alpha  occ. eigenvalues --   -0.64769  -0.62123  -0.61856  -0.60263  -0.58513
 Alpha  occ. eigenvalues --   -0.56263  -0.55233  -0.53545  -0.53313  -0.53100
 Alpha  occ. eigenvalues --   -0.52866  -0.50851  -0.48828  -0.48798  -0.48793
 Alpha  occ. eigenvalues --   -0.47568  -0.46820  -0.46773  -0.44799  -0.44747
 Alpha  occ. eigenvalues --   -0.37346  -0.36379
 Alpha virt. eigenvalues --    0.05048   0.11257   0.16465   0.18038   0.23127
 Alpha virt. eigenvalues --    0.23400   0.24796   0.25326   0.26781   0.28005
 Alpha virt. eigenvalues --    0.30027   0.30518   0.31096   0.31191   0.31702

 Mulliken charges:
               1
     1  C   -0.299228
     2  C   -0.300177
     3  C   -0.475664
     4  H    0.155393
     5  H    0.143627
     6  H    0.155862
     7  H    0.146433
     8  H    0.153713
     9  H    0.158158
    10  H    0.163504
    11  C   -0.301346
    12  C   -0.300603
    13  C   -0.475485
    14  H    0.155156
    15  H    0.139380
    16  H    0.155957
    17  H    0.151702
    18  H    0.152392
    19  H    0.156978
    20  H    0.164642
    21  C   -0.177243
    22  C   -0.221087
    23  C   -0.170597
    24  C    0.158441
    25  C   -0.170594
    26  C   -0.221106
    27  H    0.236097
    28  H    0.223495
    29  H    0.275637
    30  H    0.275720
    31  H    0.223587
    32  N    0.488000
    33  O   -0.460354
    34  O   -0.460388
 Sum of Mulliken charges =  -0.00000

 Dipole moment (field-independent basis, Debye):
    X=             -5.3440    Y=              0.0096    Z=              0.9598  Tot=              5.4295
 Quadrupole moment (field-independent basis, Debye-Ang):
   XX=           -126.1801   YY=            -94.1578   ZZ=            -91.8605
   XY=              0.6261   XZ=              3.8258   YZ=              2.1758

 Normal termination of Gaussian 16 at Wed May  5 20:14:24 2021.
