 Gaussian 16, Revision A.03,
 Gaussian 16:  EM64L-G16RevA.03 25-Dec-2016

 -------------
 #p 6-31g* mp2
 -------------

 ------------------------------------------------------
 Input file generated by CHIRIPA (05-May-2021 14:55:20)
 ------------------------------------------------------
 Symbolic Z-matrix:
 Charge =  0 Multiplicity = 1

                         Standard orientation:
 ---------------------------------------------------------------------
 Center     Atomic      Atomic             Coordinates (Angstroms)
 Number     Number       Type             X           Y           Z
 ---------------------------------------------------------------------
      1          6           0       -0.999161    1.521698    0.699263
      2          6           0       -2.017827    1.933452   -0.166359
      3          6           0       -3.066749    1.068032   -0.490947
      4          6           0       -3.065521   -0.207847    0.070677
      5          6           0       -2.065092   -0.647393    0.936258
      6          6           0       -1.025998    0.234859    1.246843
      7          1           0       -0.188151    2.200515    0.945972
      8          1           0       -1.999572    2.932253   -0.593102
      9          1           0       -3.868154    1.360939   -1.158311
     10          1           0       -2.110544   -1.649120    1.346008
     11          1           0       -0.236229   -0.087625    1.919386
     12          7           0       -4.170766   -1.132938   -0.265538
     13          8           0       -4.146674   -2.251861    0.242465
     14          8           0       -5.040221   -0.721584   -1.030700
     15          6           0        3.378495    0.661312   -0.532007
     16          6           0        2.891321    1.772360    0.398702
     17          6           0        2.269208    2.946618   -0.357531
     18          1           0        4.113045    1.076750   -1.235423
     19          1           0        2.534218    0.302954   -1.137126
     20          1           0        3.735970    2.127565    1.002865
     21          1           0        2.157987    1.354187    1.100108
     22          1           0        1.409359    2.612851   -0.947328
     23          1           0        2.996309    3.390623   -1.045124
     24          1           0        1.927779    3.729340    0.327036
     25          6           0        4.002915   -0.519539    0.209219
     26          6           0        4.490090   -1.630585   -0.721491
     27          6           0        5.112202   -2.804844    0.034742
     28          1           0        4.847193   -0.161179    0.814337
     29          1           0        3.268365   -0.934976    0.912635
     30          1           0        5.223423   -1.212414   -1.422896
     31          1           0        3.645440   -1.985791   -1.325654
     32          1           0        4.385103   -3.248849    0.722336
     33          1           0        5.972051   -2.471077    0.624540
     34          1           0        5.453633   -3.587566   -0.649824
 ---------------------------------------------------------------------

 SCF Done:  E(RHF) =  -669.534894569     A.U. after   15 cycles
 E2 =    -0.2092667224D+01 EUMP2 =    -0.67162756179284D+03

 The electronic state is 1-A.
 Alpha  occ. eigenvalues --  -20.60759 -20.60754 -15.85814 -11.31177 -11.27757
 Alpha  occ. eigenvalues --  -11.27750 -11.27404 -11.26753 -11.26738 -11.22775
 Alpha  occ. eigenvalues --  -11.22296 -11.22215 -11.22142 -11.22077 -11.21509
 Alpha  occ. eigenvalues --   -1.59835  -1.39389  -1.19351  -1.09263  -1.08735
 Alpha  occ. eigenvalues --   -1.04756  -1.04380  -0.96830  -0.95566  -0.87838
 Alpha  occ. eigenvalues --   -0.86150  -0.82410  -0.80458  -0.79016  -0.77462
 Alpha  occ. eigenvalues --   -0.72031  -0.71159  -0.70519  -0.65903  -0.64997
 Alpha  occ. eigenvalues --   -0.64746  -0.62110  -0.61769  -0.60234  -0.58415
 Alpha  occ. eigenvalues --   -0.56281  -0.54970  -0.53522  -0.53249  -0.53050
 Alpha  occ. eigenvalues --   -0.52842  -0.50752  -0.48793  -0.48787  -0.48751
 Alpha  occ. eigenvalues --   -0.47501  -0.46569  -0.46452  -0.44795  -0.44608
 Alpha  occ. eigenvalues --   -0.37297  -0.36366
 Alpha virt. eigenvalues --    0.05051   0.11203   0.16471   0.19444   0.22676
 Alpha virt. eigenvalues --    0.23827   0.24661   0.26205   0.26475   0.28364
 Alpha virt. eigenvalues --    0.29484   0.29955   0.30793   0.31104   0.31822

 Mulliken charges:
               1
     1  C   -0.173685
     2  C   -0.222422
     3  C   -0.170514
     4  C    0.158098
     5  C   -0.170828
     6  C   -0.222513
     7  H    0.237853
     8  H    0.224035
     9  H    0.275593
    10  H    0.275439
    11  H    0.223438
    12  N    0.488071
    13  O   -0.460564
    14  O   -0.460443
    15  C   -0.299415
    16  C   -0.301401
    17  C   -0.487240
    18  H    0.152966
    19  H    0.153612
    20  H    0.157030
    21  H    0.142009
    22  H    0.157598
    23  H    0.164309
    24  H    0.155822
    25  C   -0.297909
    26  C   -0.300662
    27  C   -0.476074
    28  H    0.150859
    29  H    0.145801
    30  H    0.153421
    31  H    0.154157
    32  H    0.155103
    33  H    0.155631
    34  H    0.162825
 Sum of Mulliken charges =  -0.00000

 Dipole moment (field-independent basis, Debye):
    X=              4.0928    Y=              3.2340    Z=              1.0770  Tot=              5.3263
 Quadrupole moment (field-independent basis, Debye-Ang):
   XX=           -117.0550   YY=            -94.5368   ZZ=            -93.6158
   XY=            -11.7250   XZ=             -2.5255   YZ=             -2.1509

 Normal termination of Gaussian 16 at Thu May  6 15:46:34 2021.
