 Gaussian 16, Revision A.03,
 Gaussian 16:  EM64L-G16RevA.03 25-Dec-2016

 -------------
 #p 6-31g* mp2
 -------------

 ------------------------------------------------------
 Input file generated by CHIRIPA (05-May-2021 14:55:25)
 ------------------------------------------------------
 Symbolic Z-matrix:
 Charge =  0 Multiplicity = 1

                         Standard orientation:
 ---------------------------------------------------------------------
 Center     Atomic      Atomic             Coordinates (Angstroms)
 Number     Number       Type             X           Y           Z
 ---------------------------------------------------------------------
      1          6           0        4.747439    0.502871   -1.366852
      2          6           0        4.593817   -0.871424   -1.156534
      3          6           0        3.582686   -1.352981   -0.319715
      4          6           0        2.739201   -0.427918    0.293540
      5          6           0        2.866812    0.947234    0.103902
      6          6           0        3.884967    1.406221   -0.737073
      7          1           0        5.535638    0.868190   -2.018527
      8          1           0        5.262161   -1.575293   -1.644314
      9          1           0        3.441303   -2.411702   -0.139328
     10          1           0        2.185158    1.624489    0.603993
     11          1           0        4.001919    2.474063   -0.898568
     12          7           0        1.665044   -0.925774    1.181642
     13          8           0        0.934947   -0.090196    1.710229
     14          8           0        1.573556   -2.142145    1.332334
     15          6           0       -3.886620   -0.283475   -0.368448
     16          6           0       -5.382601   -0.572531   -0.496787
     17          6           0       -5.674373   -2.029454   -0.857394
     18          1           0       -3.388487   -0.535321   -1.314694
     19          1           0       -3.456824   -0.944702    0.396697
     20          1           0       -5.809717    0.090007   -1.260484
     21          1           0       -5.877261   -0.319786    0.449811
     22          1           0       -5.275043   -2.703085   -0.092307
     23          1           0       -5.207116   -2.290965   -1.812319
     24          1           0       -6.749688   -2.213973   -0.944071
     25          6           0       -3.578942    1.168890   -0.008306
     26          6           0       -2.082960    1.457946    0.120032
     27          6           0       -1.791188    2.914869    0.480639
     28          1           0       -4.008738    1.830118   -0.773451
     29          1           0       -4.077075    1.420737    0.937940
     30          1           0       -1.588302    1.205201   -0.826566
     31          1           0       -1.655845    0.795409    0.883729
     32          1           0       -2.258446    3.176380    1.435565
     33          1           0       -2.190519    3.588500   -0.284447
     34          1           0       -0.715874    3.099389    0.567317
 ---------------------------------------------------------------------

 SCF Done:  E(RHF) =  -669.536182394     A.U. after   15 cycles
 E2 =    -0.2091254969D+01 EUMP2 =    -0.67162743736345D+03

 The electronic state is 1-A.
 Alpha  occ. eigenvalues --  -20.60924 -20.60914 -15.85948 -11.31267 -11.27831
 Alpha  occ. eigenvalues --  -11.27827 -11.27569 -11.26839 -11.26828 -11.21013
 Alpha  occ. eigenvalues --  -11.20679 -11.20633 -11.20591 -11.20537 -11.20493
 Alpha  occ. eigenvalues --   -1.59978  -1.39534  -1.19435  -1.08840  -1.07703
 Alpha  occ. eigenvalues --   -1.04832  -1.02842  -0.95685  -0.95335  -0.86357
 Alpha  occ. eigenvalues --   -0.86231  -0.82520  -0.78897  -0.77601  -0.77464
 Alpha  occ. eigenvalues --   -0.72177  -0.71286  -0.70545  -0.65093  -0.64836
 Alpha  occ. eigenvalues --   -0.64327  -0.62181  -0.60231  -0.58704  -0.56935
 Alpha  occ. eigenvalues --   -0.55337  -0.54628  -0.53163  -0.52926  -0.52057
 Alpha  occ. eigenvalues --   -0.51758  -0.49281  -0.48938  -0.48929  -0.47237
 Alpha  occ. eigenvalues --   -0.45933  -0.45209  -0.45034  -0.44616  -0.43104
 Alpha  occ. eigenvalues --   -0.37413  -0.36432
 Alpha virt. eigenvalues --    0.04928   0.11214   0.16404   0.20887   0.23462
 Alpha virt. eigenvalues --    0.24237   0.26612   0.27397   0.27660   0.28419
 Alpha virt. eigenvalues --    0.29096   0.30407   0.31526   0.32061   0.32586

 Mulliken charges:
               1
     1  C   -0.170545
     2  C   -0.218648
     3  C   -0.170652
     4  C    0.158217
     5  C   -0.171710
     6  C   -0.218855
     7  H    0.225911
     8  H    0.223709
     9  H    0.275747
    10  H    0.277390
    11  H    0.223938
    12  N    0.489359
    13  O   -0.460913
    14  O   -0.459282
    15  C   -0.298984
    16  C   -0.299115
    17  C   -0.475476
    18  H    0.146949
    19  H    0.156499
    20  H    0.149357
    21  H    0.151581
    22  H    0.157133
    23  H    0.153715
    24  H    0.158048
    25  C   -0.297884
    26  C   -0.308360
    27  C   -0.472760
    28  H    0.144603
    29  H    0.149066
    30  H    0.143811
    31  H    0.179685
    32  H    0.156139
    33  H    0.149859
    34  H    0.152470
 Sum of Mulliken charges =  -0.00000

 Dipole moment (field-independent basis, Debye):
    X=              3.9637    Y=              1.6100    Z=             -2.9933  Tot=              5.2214
 Quadrupole moment (field-independent basis, Debye-Ang):
   XX=            -74.9165   YY=            -93.3646   ZZ=            -96.3204
   XY=              1.5233   XZ=             -8.6058   YZ=              2.3294

 Normal termination of Gaussian 16 at Wed May  5 20:49:13 2021.
