 Gaussian 16, Revision A.03,
 Gaussian 16:  EM64L-G16RevA.03 25-Dec-2016

 -------------
 #p 6-31g* mp2
 -------------

 ------------------------------------------------------
 Input file generated by CHIRIPA (05-May-2021 14:51:07)
 ------------------------------------------------------
 Symbolic Z-matrix:
 Charge =  0 Multiplicity = 1

                         Standard orientation:
 ---------------------------------------------------------------------
 Center     Atomic      Atomic             Coordinates (Angstroms)
 Number     Number       Type             X           Y           Z
 ---------------------------------------------------------------------
      1          6           0        3.935151    0.332769    0.000491
      2          6           0        2.623265   -0.228098    0.550374
      3          6           0        1.454680    0.746401    0.400184
      4          1           0        4.170570    1.272466    0.518653
      5          1           0        3.801556    0.585808   -1.060413
      6          1           0        2.759698   -0.481293    1.609569
      7          1           0        2.391040   -1.166668    0.030977
      8          1           0        1.290007    0.990862   -0.654199
      9          1           0        1.660759    1.680131    0.933363
     10          1           0        0.526850    0.325252    0.799714
     11          6           0        5.112709   -0.629859    0.143432
     12          6           0        6.424595   -0.068992   -0.406450
     13          6           0        7.593179   -1.043490   -0.256260
     14          1           0        5.246304   -0.882897    1.204337
     15          1           0        4.877290   -1.569556   -0.374730
     16          1           0        6.656820    0.869578    0.112947
     17          1           0        6.288162    0.184203   -1.465646
     18          1           0        7.387101   -1.977221   -0.789439
     19          1           0        7.757853   -1.287952    0.798122
     20          1           0        8.521009   -0.622342   -0.655791
     21          6           0       -3.776692    0.292637   -0.006351
     22          6           0       -3.425833    1.769845   -0.187284
     23          6           0       -1.927292    2.042237   -0.053216
     24          1           0       -3.428546   -0.042168    0.980384
     25          1           0       -3.227164   -0.301287   -0.749768
     26          1           0       -3.976921    2.360948    0.555356
     27          1           0       -3.775024    2.101223   -1.173626
     28          1           0       -1.364464    1.477592   -0.803549
     29          1           0       -1.567507    1.738793    0.935257
     30          1           0       -1.698840    3.104318   -0.186083
     31          6           0       -5.271168    0.004453   -0.137573
     32          6           0       -5.622028   -1.472755    0.043361
     33          6           0       -7.120568   -1.745147   -0.090708
     34          1           0       -5.820695    0.598377    0.605844
     35          1           0       -5.619314    0.339258   -1.124307
     36          1           0       -5.272835   -1.804133    1.029703
     37          1           0       -5.070939   -2.063858   -0.699280
     38          1           0       -7.480353   -1.441704   -1.079180
     39          1           0       -7.683396   -1.180502    0.659626
     40          1           0       -7.349020   -2.807228    0.042160
 ---------------------------------------------------------------------

 SCF Done:  E(RHF) =  -470.732543133     A.U. after   11 cycles
 E2 =    -0.1582615700D+01 EUMP2 =    -0.47231515883366D+03

 The electronic state is 1-A.
 Alpha  occ. eigenvalues --  -11.21588 -11.21575 -11.21525 -11.21516 -11.21379
 Alpha  occ. eigenvalues --  -11.21362 -11.21320 -11.21301 -11.21061 -11.21051
 Alpha  occ. eigenvalues --  -11.20927 -11.20920  -1.08400  -1.08378  -1.03518
 Alpha  occ. eigenvalues --   -1.03442  -0.96019  -0.95840  -0.87101  -0.86794
 Alpha  occ. eigenvalues --   -0.79688  -0.79403  -0.78231  -0.78172  -0.65038
 Alpha  occ. eigenvalues --   -0.65005  -0.60943  -0.60820  -0.59394  -0.59244
 Alpha  occ. eigenvalues --   -0.57624  -0.57453  -0.55342  -0.55098  -0.52938
 Alpha  occ. eigenvalues --   -0.52622  -0.52334  -0.52050  -0.50018  -0.49723
 Alpha  occ. eigenvalues --   -0.47857  -0.47840  -0.46666  -0.46480  -0.45788
 Alpha  occ. eigenvalues --   -0.45710  -0.45693  -0.45632  -0.43743  -0.43664
 Alpha virt. eigenvalues --    0.22389   0.23031   0.23595   0.24938   0.26315
 Alpha virt. eigenvalues --    0.26608   0.26805   0.27487   0.27709   0.29189
 Alpha virt. eigenvalues --    0.29932   0.31380   0.31576   0.31979   0.32332

 Mulliken charges:
               1
     1  C   -0.298411
     2  C   -0.300933
     3  C   -0.474527
     4  H    0.149494
     5  H    0.149258
     6  H    0.151276
     7  H    0.151336
     8  H    0.154903
     9  H    0.154654
    10  H    0.163129
    11  C   -0.298147
    12  C   -0.299563
    13  C   -0.475663
    14  H    0.149405
    15  H    0.149481
    16  H    0.151882
    17  H    0.151826
    18  H    0.155108
    19  H    0.155131
    20  H    0.160150
    21  C   -0.298232
    22  C   -0.300516
    23  C   -0.476021
    24  H    0.148964
    25  H    0.149285
    26  H    0.151330
    27  H    0.151345
    28  H    0.158017
    29  H    0.156732
    30  H    0.159392
    31  C   -0.298106
    32  C   -0.299610
    33  C   -0.475685
    34  H    0.149512
    35  H    0.149630
    36  H    0.151842
    37  H    0.151828
    38  H    0.155156
    39  H    0.155172
    40  H    0.160177
 Sum of Mulliken charges =  -0.00000

 Dipole moment (field-independent basis, Debye):
    X=             -0.0055    Y=              0.0168    Z=              0.0004  Tot=              0.0177
 Quadrupole moment (field-independent basis, Debye-Ang):
   XX=            -87.0681   YY=            -85.1249   ZZ=            -82.9081
   XY=              0.3053   XZ=             -0.0332   YZ=              0.5420

 Normal termination of Gaussian 16 at Thu May  6 03:38:55 2021.
