 Gaussian 16, Revision A.03,
 Gaussian 16:  EM64L-G16RevA.03 25-Dec-2016

 -------------
 #p 6-31g* mp2
 -------------

 ------------------------------------------------------
 Input file generated by CHIRIPA (05-May-2021 14:55:24)
 ------------------------------------------------------
 Symbolic Z-matrix:
 Charge =  0 Multiplicity = 1

                         Standard orientation:
 ---------------------------------------------------------------------
 Center     Atomic      Atomic             Coordinates (Angstroms)
 Number     Number       Type             X           Y           Z
 ---------------------------------------------------------------------
      1          6           0       -2.991417    2.515484    0.307664
      2          6           0       -3.970778    1.953321   -0.517773
      3          6           0       -4.115647    0.565462   -0.603850
      4          6           0       -3.260276   -0.234061    0.152717
      5          6           0       -2.274897    0.295975    0.984210
      6          6           0       -2.148090    1.686478    1.054705
      7          1           0       -2.885895    3.594633    0.368478
      8          1           0       -4.627118    2.594692   -1.099070
      9          1           0       -4.865348    0.103730   -1.234856
     10          1           0       -1.635382   -0.369139    1.551715
     11          1           0       -1.386616    2.120281    1.696591
     12          7           0       -3.404082   -1.704724    0.069840
     13          8           0       -2.638041   -2.387354    0.746475
     14          8           0       -4.280115   -2.146953   -0.670184
     15          6           0        3.435274   -0.277679   -0.105662
     16          6           0        2.367239    0.514485   -0.860489
     17          6           0        0.956960   -0.031810   -0.635837
     18          1           0        3.393479   -1.329418   -0.420373
     19          1           0        3.202173   -0.263202    0.968045
     20          1           0        2.603046    0.499682   -1.932306
     21          1           0        2.411710    1.564499   -0.544085
     22          1           0        0.696964   -0.001670    0.427221
     23          1           0        0.889389   -1.072538   -0.968886
     24          1           0        0.209213    0.549235   -1.184582
     25          6           0        4.850358    0.256374   -0.320261
     26          6           0        5.918393   -0.535790    0.434564
     27          6           0        7.328673    0.010505    0.209913
     28          1           0        5.083460    0.241897   -1.393969
     29          1           0        4.892153    1.308114   -0.005552
     30          1           0        5.873923   -1.585803    0.118161
     31          1           0        5.682585   -0.520986    1.506382
     32          1           0        7.396244    1.051233    0.542962
     33          1           0        7.588668   -0.019635   -0.853146
     34          1           0        8.076419   -0.570540    0.758657
 ---------------------------------------------------------------------

 SCF Done:  E(RHF) =  -669.534843965     A.U. after   15 cycles
 E2 =    -0.2091956435D+01 EUMP2 =    -0.67162680039963D+03

 The electronic state is 1-A.
 Alpha  occ. eigenvalues --  -20.60722 -20.60717 -15.85776 -11.31134 -11.27721
 Alpha  occ. eigenvalues --  -11.27710 -11.27474 -11.26731 -11.26718 -11.21783
 Alpha  occ. eigenvalues --  -11.21682 -11.21529 -11.21469 -11.21216 -11.21149
 Alpha  occ. eigenvalues --   -1.59797  -1.39350  -1.19324  -1.08717  -1.08560
 Alpha  occ. eigenvalues --   -1.04735  -1.03658  -0.96112  -0.95549  -0.87131
 Alpha  occ. eigenvalues --   -0.86124  -0.82387  -0.79730  -0.78370  -0.77427
 Alpha  occ. eigenvalues --   -0.71996  -0.71119  -0.70442  -0.65200  -0.64976
 Alpha  occ. eigenvalues --   -0.64736  -0.62108  -0.61052  -0.59479  -0.57712
 Alpha  occ. eigenvalues --   -0.55436  -0.55220  -0.53290  -0.52855  -0.52564
 Alpha  occ. eigenvalues --   -0.52486  -0.50044  -0.48755  -0.48748  -0.48036
 Alpha  occ. eigenvalues --   -0.46764  -0.45909  -0.45839  -0.44756  -0.43911
 Alpha  occ. eigenvalues --   -0.37311  -0.36258
 Alpha virt. eigenvalues --    0.05103   0.11289   0.16554   0.20902   0.22790
 Alpha virt. eigenvalues --    0.24119   0.25915   0.26770   0.27481   0.27958
 Alpha virt. eigenvalues --    0.28768   0.30821   0.31460   0.31642   0.31866

 Mulliken charges:
               1
     1  C   -0.171487
     2  C   -0.218993
     3  C   -0.171329
     4  C    0.157033
     5  C   -0.165269
     6  C   -0.217430
     7  H    0.225358
     8  H    0.223151
     9  H    0.275432
    10  H    0.275747
    11  H    0.222845
    12  N    0.488323
    13  O   -0.460433
    14  O   -0.460842
    15  C   -0.298266
    16  C   -0.300419
    17  C   -0.475305
    18  H    0.153103
    19  H    0.147648
    20  H    0.153349
    21  H    0.147589
    22  H    0.144805
    23  H    0.163120
    24  H    0.162104
    25  C   -0.298202
    26  C   -0.299786
    27  C   -0.475746
    28  H    0.150137
    29  H    0.147941
    30  H    0.153493
    31  H    0.151595
    32  H    0.154381
    33  H    0.155501
    34  H    0.160849
 Sum of Mulliken charges =  -0.00000

 Dipole moment (field-independent basis, Debye):
    X=              0.5293    Y=              5.1220    Z=              0.2486  Tot=              5.1553
 Quadrupole moment (field-independent basis, Debye-Ang):
   XX=            -96.8187   YY=            -97.4898   ZZ=            -92.4086
   XY=            -18.2112   XZ=              1.8608   YZ=              0.8980

 Normal termination of Gaussian 16 at Thu May  6 20:55:34 2021.
