 Gaussian 16, Revision A.03,
 Gaussian 16:  EM64L-G16RevA.03 25-Dec-2016

 -------------
 #p 6-31g* mp2
 -------------

 ------------------------------------------------------
 Input file generated by CHIRIPA (05-May-2021 14:53:18)
 ------------------------------------------------------
 Symbolic Z-matrix:
 Charge =  0 Multiplicity = 1

                         Standard orientation:
 ---------------------------------------------------------------------
 Center     Atomic      Atomic             Coordinates (Angstroms)
 Number     Number       Type             X           Y           Z
 ---------------------------------------------------------------------
      1          6           0       -2.303207    0.824005   -0.497571
      2          6           0       -2.579090    2.110783    0.280937
      3          6           0       -1.955173    3.343377   -0.374224
      4          1           0       -1.217396    0.683118   -0.587632
      5          1           0       -2.690232    0.932305   -1.520253
      6          1           0       -2.192891    1.999572    1.302259
      7          1           0       -3.664370    2.248523    0.369320
      8          1           0       -2.348416    3.482252   -1.386486
      9          1           0       -0.868577    3.231886   -0.448246
     10          1           0       -2.164732    4.252016    0.198768
     11          6           0       -2.920496   -0.416920    0.144913
     12          6           0       -2.644613   -1.703699   -0.633595
     13          6           0       -3.268529   -2.936292    0.021566
     14          1           0       -2.533471   -0.525221    1.167595
     15          1           0       -4.006307   -0.276034    0.234974
     16          1           0       -1.559333   -1.841439   -0.721978
     17          1           0       -3.030811   -1.592488   -1.654917
     18          1           0       -4.355126   -2.824802    0.095589
     19          1           0       -2.875286   -3.075167    1.033828
     20          1           0       -3.058971   -3.844932   -0.551426
     21          6           0        1.974500   -2.680846    0.093608
     22          6           0        2.818860   -1.987312   -0.779655
     23          6           0        2.863620   -0.590064   -0.763967
     24          6           0        2.046891    0.084784    0.142026
     25          6           0        1.195155   -0.577704    1.024605
     26          6           0        1.166766   -1.975073    0.991368
     27          1           0        1.946088   -3.766307    0.074604
     28          1           0        3.447263   -2.532804   -1.477934
     29          1           0        3.508050   -0.028010   -1.428964
     30          1           0        0.580393   -0.006321    1.709445
     31          1           0        0.510055   -2.511045    1.670713
     32          7           0        2.085611    1.564051    0.167923
     33          8           0        1.356226    2.135283    0.975591
     34          8           0        2.844611    2.124257   -0.619938
 ---------------------------------------------------------------------

 SCF Done:  E(RHF) =  -669.536215459     A.U. after   15 cycles
 E2 =    -0.2094532870D+01 EUMP2 =    -0.67163074832886D+03

 The electronic state is 1-A.
 Alpha  occ. eigenvalues --  -20.61058 -20.61046 -15.86069 -11.31388 -11.27959
 Alpha  occ. eigenvalues --  -11.27940 -11.27682 -11.26956 -11.26934 -11.21735
 Alpha  occ. eigenvalues --  -11.21454 -11.21437 -11.21091 -11.20977 -11.19995
 Alpha  occ. eigenvalues --   -1.60107  -1.39663  -1.19562  -1.08961  -1.08281
 Alpha  occ. eigenvalues --   -1.04952  -1.03267  -0.95802  -0.95724  -0.86741
 Alpha  occ. eigenvalues --   -0.86345  -0.82633  -0.79395  -0.78029  -0.77690
 Alpha  occ. eigenvalues --   -0.72292  -0.71429  -0.70657  -0.65214  -0.64974
 Alpha  occ. eigenvalues --   -0.64919  -0.62278  -0.60653  -0.59190  -0.57314
 Alpha  occ. eigenvalues --   -0.55446  -0.55033  -0.53276  -0.53027  -0.52400
 Alpha  occ. eigenvalues --   -0.52146  -0.49716  -0.49050  -0.49014  -0.47684
 Alpha  occ. eigenvalues --   -0.46450  -0.45672  -0.45518  -0.44833  -0.43544
 Alpha  occ. eigenvalues --   -0.37512  -0.36503
 Alpha virt. eigenvalues --    0.04791   0.11000   0.16226   0.19928   0.23090
 Alpha virt. eigenvalues --    0.23967   0.25807   0.26994   0.27611   0.28331
 Alpha virt. eigenvalues --    0.29507   0.30115   0.31698   0.31811   0.32473

 Mulliken charges:
               1
     1  C   -0.301033
     2  C   -0.297149
     3  C   -0.481701
     4  H    0.148549
     5  H    0.149365
     6  H    0.152675
     7  H    0.147577
     8  H    0.148269
     9  H    0.175747
    10  H    0.159257
    11  C   -0.296172
    12  C   -0.304408
    13  C   -0.474688
    14  H    0.140375
    15  H    0.151076
    16  H    0.153512
    17  H    0.153431
    18  H    0.158002
    19  H    0.147778
    20  H    0.158214
    21  C   -0.171083
    22  C   -0.218306
    23  C   -0.170414
    24  C    0.158336
    25  C   -0.171045
    26  C   -0.217915
    27  H    0.227068
    28  H    0.224437
    29  H    0.276339
    30  H    0.277309
    31  H    0.225670
    32  N    0.487885
    33  O   -0.459148
    34  O   -0.457807
 Sum of Mulliken charges =  -0.00000

 Dipole moment (field-independent basis, Debye):
    X=              0.1460    Y=             -5.1237    Z=             -0.1098  Tot=              5.1269
 Quadrupole moment (field-independent basis, Debye-Ang):
   XX=            -93.0849   YY=            -97.1066   ZZ=            -92.3952
   XY=            -11.3559   XZ=             -2.4891   YZ=             -0.3360

 Normal termination of Gaussian 16 at Thu May  6 12:21:13 2021.
