 Gaussian 16, Revision A.03,
 Gaussian 16:  EM64L-G16RevA.03 25-Dec-2016

 -------------
 #p 6-31g* mp2
 -------------

 ------------------------------------------------------
 Input file generated by CHIRIPA (05-May-2021 14:55:24)
 ------------------------------------------------------
 Symbolic Z-matrix:
 Charge =  0 Multiplicity = 1

                         Standard orientation:
 ---------------------------------------------------------------------
 Center     Atomic      Atomic             Coordinates (Angstroms)
 Number     Number       Type             X           Y           Z
 ---------------------------------------------------------------------
      1          6           0        0.184936   -1.548672    1.067217
      2          6           0       -0.505962   -0.565555    1.783221
      3          6           0       -1.721451   -0.063810    1.308474
      4          6           0       -2.219207   -0.570016    0.108772
      5          6           0       -1.554425   -1.549458   -0.627467
      6          6           0       -0.340574   -2.036626   -0.133724
      7          1           0        1.128521   -1.932778    1.443391
      8          1           0       -0.100232   -0.184750    2.716182
      9          1           0       -2.277124    0.697342    1.842603
     10          1           0       -1.984043   -1.909527   -1.554396
     11          1           0        0.193805   -2.800122   -0.691897
     12          7           0       -3.505124   -0.046557   -0.403876
     13          8           0       -3.922401   -0.509019   -1.463426
     14          8           0       -4.071400    0.816281    0.263567
     15          6           0        2.873732    0.233347   -0.597620
     16          6           0        4.038207   -0.390320    0.172461
     17          6           0        4.636696   -1.603042   -0.540919
     18          1           0        2.094419   -0.525947   -0.749574
     19          1           0        3.220950    0.529277   -1.597249
     20          1           0        3.689242   -0.683727    1.170837
     21          1           0        4.814754    0.370598    0.322767
     22          1           0        5.011555   -1.321725   -1.530334
     23          1           0        3.879647   -2.382041   -0.677447
     24          1           0        5.467555   -2.033218    0.026955
     25          6           0        2.264886    1.446752    0.102867
     26          6           0        1.100412    2.070419   -0.667215
     27          6           0        0.501922    3.283140    0.046166
     28          1           0        1.917668    1.150821    1.102496
     29          1           0        3.044198    2.206046    0.254821
     30          1           0        0.323864    1.309500   -0.817521
     31          1           0        1.449376    2.363826   -1.665589
     32          1           0        1.258970    4.062140    0.182693
     33          1           0        0.127063    3.001823    1.035581
     34          1           0       -0.328937    3.713316   -0.521709
 ---------------------------------------------------------------------

 SCF Done:  E(RHF) =  -669.533825253     A.U. after   15 cycles
 E2 =    -0.2097079745D+01 EUMP2 =    -0.67163090499833D+03

 The electronic state is 1-A.
 Alpha  occ. eigenvalues --  -20.60871 -20.60866 -15.85930 -11.31352 -11.27940
 Alpha  occ. eigenvalues --  -11.27936 -11.27668 -11.26942 -11.26932 -11.22378
 Alpha  occ. eigenvalues --  -11.21891 -11.21829 -11.21759 -11.21701 -11.21216
 Alpha  occ. eigenvalues --   -1.59947  -1.39498  -1.19556  -1.09053  -1.08784
 Alpha  occ. eigenvalues --   -1.04960  -1.03994  -0.96453  -0.95742  -0.87468
 Alpha  occ. eigenvalues --   -0.86348  -0.82575  -0.80080  -0.78689  -0.77610
 Alpha  occ. eigenvalues --   -0.72145  -0.71275  -0.70668  -0.65670  -0.65195
 Alpha  occ. eigenvalues --   -0.64896  -0.62300  -0.61436  -0.59824  -0.58039
 Alpha  occ. eigenvalues --   -0.55797  -0.55433  -0.53303  -0.53080  -0.53038
 Alpha  occ. eigenvalues --   -0.52855  -0.50420  -0.48910  -0.48896  -0.48391
 Alpha  occ. eigenvalues --   -0.47165  -0.46222  -0.46088  -0.44891  -0.44217
 Alpha  occ. eigenvalues --   -0.37410  -0.36506
 Alpha virt. eigenvalues --    0.04892   0.10914   0.16263   0.19121   0.23047
 Alpha virt. eigenvalues --    0.23485   0.25294   0.26332   0.27439   0.28105
 Alpha virt. eigenvalues --    0.29363   0.29684   0.31212   0.31339   0.32129

 Mulliken charges:
               1
     1  C   -0.169401
     2  C   -0.217552
     3  C   -0.171111
     4  C    0.158635
     5  C   -0.171931
     6  C   -0.219287
     7  H    0.230309
     8  H    0.224445
     9  H    0.276818
    10  H    0.276754
    11  H    0.225055
    12  N    0.487987
    13  O   -0.459973
    14  O   -0.459705
    15  C   -0.304976
    16  C   -0.300610
    17  C   -0.474331
    18  H    0.152001
    19  H    0.152008
    20  H    0.141823
    21  H    0.156360
    22  H    0.159682
    23  H    0.146825
    24  H    0.162159
    25  C   -0.295526
    26  C   -0.303378
    27  C   -0.475354
    28  H    0.142131
    29  H    0.149952
    30  H    0.158315
    31  H    0.152495
    32  H    0.154715
    33  H    0.148900
    34  H    0.165766
 Sum of Mulliken charges =  -0.00000

 Dipole moment (field-independent basis, Debye):
    X=              4.4137    Y=             -1.8445    Z=              1.7433  Tot=              5.0914
 Quadrupole moment (field-independent basis, Debye-Ang):
   XX=           -115.4405   YY=            -91.7057   ZZ=            -91.4173
   XY=              2.2185   XZ=             -4.1755   YZ=              0.7674

 Normal termination of Gaussian 16 at Thu May  6 06:21:51 2021.
