 Gaussian 16, Revision A.03,
 Gaussian 16:  EM64L-G16RevA.03 25-Dec-2016

 -------------
 #p 6-31g* mp2
 -------------

 ------------------------------------------------------
 Input file generated by CHIRIPA (05-May-2021 14:57:25)
 ------------------------------------------------------
 Symbolic Z-matrix:
 Charge =  0 Multiplicity = 1

                         Standard orientation:
 ---------------------------------------------------------------------
 Center     Atomic      Atomic             Coordinates (Angstroms)
 Number     Number       Type             X           Y           Z
 ---------------------------------------------------------------------
      1          6           0       -1.536663   -0.361484    1.224762
      2          6           0       -2.446745    0.515512    1.824053
      3          6           0       -3.736758    0.663378    1.305835
      4          6           0       -4.084722   -0.084645    0.182148
      5          6           0       -3.200556   -0.966536   -0.437376
      6          6           0       -1.915805   -1.098409    0.097947
      7          1           0       -0.536594   -0.470138    1.633971
      8          1           0       -2.155054    1.089095    2.699247
      9          1           0       -4.461230    1.335156    1.749989
     10          1           0       -3.520356   -1.524857   -1.308826
     11          1           0       -1.211110   -1.780247   -0.369546
     12          7           0       -5.447616    0.063429   -0.375521
     13          8           0       -5.729666   -0.606940   -1.366324
     14          8           0       -6.207995    0.847055    0.188740
     15          6           0        6.091027   -0.478244    0.747694
     16          6           0        5.140354   -1.478657    0.519841
     17          6           0        3.900944   -1.164774   -0.045745
     18          6           0        3.644423    0.165827   -0.372837
     19          6           0        4.570973    1.184983   -0.158089
     20          6           0        5.803809    0.848045    0.408598
     21          1           0        7.051278   -0.731031    1.187482
     22          1           0        5.360670   -2.509519    0.782192
     23          1           0        3.146762   -1.919476   -0.232966
     24          1           0        4.322463    2.203646   -0.430097
     25          1           0        6.540206    1.627051    0.584417
     26          7           0        2.335795    0.510325   -0.972182
     27          8           0        2.134189    1.690144   -1.251501
     28          8           0        1.536477   -0.406000   -1.151281
 ---------------------------------------------------------------------

 SCF Done:  E(RHF) =  -868.338984172     A.U. after   16 cycles
 E2 =    -0.2598987336D+01 EUMP2 =    -0.87093797150778D+03

 The electronic state is 1-A.
 Alpha  occ. eigenvalues --  -20.61760 -20.61696 -20.59972 -20.59963 -15.86770
 Alpha  occ. eigenvalues --  -15.85015 -11.31989 -11.30207 -11.28564 -11.28504
 Alpha  occ. eigenvalues --  -11.28219 -11.27512 -11.27479 -11.26782 -11.26685
 Alpha  occ. eigenvalues --  -11.26430 -11.25795 -11.25595  -1.60793  -1.59048
 Alpha  occ. eigenvalues --   -1.40355  -1.38606  -1.20140  -1.18343  -1.09555
 Alpha  occ. eigenvalues --   -1.07766  -1.05517  -1.03717  -0.96417  -0.94641
 Alpha  occ. eigenvalues --   -0.86921  -0.85119  -0.83255  -0.81480  -0.78329
 Alpha  occ. eigenvalues --   -0.76553  -0.72994  -0.72119  -0.71243  -0.71232
 Alpha  occ. eigenvalues --   -0.70365  -0.69464  -0.65792  -0.65507  -0.63996
 Alpha  occ. eigenvalues --   -0.63702  -0.62867  -0.61071  -0.56004  -0.54234
 Alpha  occ. eigenvalues --   -0.53857  -0.53600  -0.52052  -0.51806  -0.49753
 Alpha  occ. eigenvalues --   -0.49709  -0.48004  -0.47980  -0.45788  -0.44052
 Alpha  occ. eigenvalues --   -0.38105  -0.37117  -0.36286  -0.35295
 Alpha virt. eigenvalues --    0.04178   0.05967   0.10537   0.12359   0.15707
 Alpha virt. eigenvalues --    0.17521   0.20679   0.22395   0.26619   0.27402
 Alpha virt. eigenvalues --    0.28449   0.29086   0.30444   0.31757   0.31978

 Mulliken charges:
               1
     1  C   -0.166437
     2  C   -0.218402
     3  C   -0.172450
     4  C    0.158392
     5  C   -0.172903
     6  C   -0.209094
     7  H    0.220966
     8  H    0.218708
     9  H    0.272035
    10  H    0.273442
    11  H    0.231200
    12  N    0.488237
    13  O   -0.462100
    14  O   -0.463437
    15  C   -0.170216
    16  C   -0.218216
    17  C   -0.172470
    18  C    0.157112
    19  C   -0.170776
    20  C   -0.218336
    21  H    0.228225
    22  H    0.225190
    23  H    0.272126
    24  H    0.277389
    25  H    0.226110
    26  N    0.489440
    27  O   -0.453814
    28  O   -0.469920
 Sum of Mulliken charges =  -0.00000

 Dipole moment (field-independent basis, Debye):
    X=              9.9136    Y=             -1.7081    Z=              3.9835  Tot=             10.8196
 Quadrupole moment (field-independent basis, Debye-Ang):
   XX=           -111.0846   YY=            -98.6463   ZZ=           -104.5636
   XY=             -1.0062   XZ=             -1.6458   YZ=              2.9163

 Normal termination of Gaussian 16 at Fri May  7 09:36:52 2021.
