 Gaussian 16, Revision A.03,
 Gaussian 16:  EM64L-G16RevA.03 25-Dec-2016

 -------------
 #p 6-31g* mp2
 -------------

 ------------------------------------------------------
 Input file generated by CHIRIPA (05-May-2021 14:53:12)
 ------------------------------------------------------
 Symbolic Z-matrix:
 Charge =  0 Multiplicity = 1

                         Standard orientation:
 ---------------------------------------------------------------------
 Center     Atomic      Atomic             Coordinates (Angstroms)
 Number     Number       Type             X           Y           Z
 ---------------------------------------------------------------------
      1          6           0        3.910504    1.231077    0.276696
      2          6           0        2.517958    1.691593   -0.155419
      3          6           0        2.191775    3.109396    0.314934
      4          1           0        3.983001    1.281426    1.371755
      5          1           0        4.659634    1.930998   -0.118663
      6          1           0        1.771783    0.990239    0.239477
      7          1           0        2.448704    1.639958   -1.249564
      8          1           0        2.914008    3.825449   -0.090342
      9          1           0        2.233241    3.172038    1.407159
     10          1           0        1.191717    3.418366   -0.004881
     11          6           0        4.251195   -0.184386   -0.186039
     12          6           0        5.643742   -0.644902    0.246076
     13          6           0        5.969924   -2.062706   -0.224276
     14          1           0        3.502065   -0.884307    0.209320
     15          1           0        4.178699   -0.234736   -1.281098
     16          1           0        5.712996   -0.593268    1.340221
     17          1           0        6.389917    0.056452   -0.148820
     18          1           0        5.928458   -2.125348   -1.316502
     19          1           0        5.247691   -2.778758    0.180999
     20          1           0        6.969983   -2.371675    0.095538
     21          6           0       -1.248623   -2.022588   -0.035881
     22          6           0       -2.532812   -2.471694    0.289210
     23          6           0       -3.614876   -1.586441    0.292688
     24          6           0       -3.375671   -0.252854   -0.035368
     25          6           0       -2.107919    0.224965   -0.363672
     26          6           0       -1.040643   -0.678063   -0.360711
     27          1           0       -0.413794   -2.717179   -0.036083
     28          1           0       -2.697293   -3.515316    0.541886
     29          1           0       -4.619391   -1.907330    0.540472
     30          1           0       -1.975132    1.271146   -0.611246
     31          1           0       -0.044408   -0.326473   -0.613588
     32          7           0       -4.513377    0.693732   -0.035094
     33          8           0       -4.276318    1.863687   -0.327748
     34          8           0       -5.620627    0.247789    0.257771
 ---------------------------------------------------------------------

 SCF Done:  E(RHF) =  -669.535641487     A.U. after   15 cycles
 E2 =    -0.2091127821D+01 EUMP2 =    -0.67162676930810D+03

 The electronic state is 1-A.
 Alpha  occ. eigenvalues --  -20.60734 -20.60729 -15.85787 -11.31146 -11.27719
 Alpha  occ. eigenvalues --  -11.27706 -11.27453 -11.26734 -11.26672 -11.22542
 Alpha  occ. eigenvalues --  -11.22258 -11.22190 -11.22122 -11.21731 -11.21683
 Alpha  occ. eigenvalues --   -1.59809  -1.39363  -1.19317  -1.09205  -1.08713
 Alpha  occ. eigenvalues --   -1.04718  -1.04263  -0.96679  -0.95550  -0.87694
 Alpha  occ. eigenvalues --   -0.86117  -0.82384  -0.80354  -0.79044  -0.77424
 Alpha  occ. eigenvalues --   -0.72005  -0.71132  -0.70428  -0.65845  -0.64967
 Alpha  occ. eigenvalues --   -0.64720  -0.62111  -0.61618  -0.60051  -0.58307
 Alpha  occ. eigenvalues --   -0.55952  -0.55221  -0.53370  -0.53118  -0.53048
 Alpha  occ. eigenvalues --   -0.52810  -0.50610  -0.48790  -0.48761  -0.48615
 Alpha  occ. eigenvalues --   -0.47374  -0.46555  -0.46485  -0.44770  -0.44518
 Alpha  occ. eigenvalues --   -0.37300  -0.36317
 Alpha virt. eigenvalues --    0.05099   0.11285   0.16547   0.20039   0.22498
 Alpha virt. eigenvalues --    0.23624   0.25155   0.26106   0.26733   0.28444
 Alpha virt. eigenvalues --    0.28952   0.30083   0.30874   0.31368   0.32534

 Mulliken charges:
               1
     1  C   -0.297660
     2  C   -0.307743
     3  C   -0.475316
     4  H    0.152444
     5  H    0.153304
     6  H    0.147145
     7  H    0.151835
     8  H    0.158975
     9  H    0.158676
    10  H    0.160953
    11  C   -0.298358
    12  C   -0.300114
    13  C   -0.475952
    14  H    0.143183
    15  H    0.149903
    16  H    0.153577
    17  H    0.154425
    18  H    0.155740
    19  H    0.153223
    20  H    0.162817
    21  C   -0.172110
    22  C   -0.218470
    23  C   -0.171113
    24  C    0.158676
    25  C   -0.172704
    26  C   -0.225180
    27  H    0.225607
    28  H    0.223166
    29  H    0.275448
    30  H    0.275369
    31  H    0.233283
    32  N    0.488109
    33  O   -0.460526
    34  O   -0.460610
 Sum of Mulliken charges =  -0.00000

 Dipole moment (field-independent basis, Debye):
    X=              4.2185    Y=             -3.2429    Z=              0.0281  Tot=              5.3210
 Quadrupole moment (field-independent basis, Debye-Ang):
   XX=           -119.4882   YY=            -91.1176   ZZ=            -94.5425
   XY=             13.7577   XZ=             -1.2551   YZ=             -1.5872

 Normal termination of Gaussian 16 at Thu May  6 02:32:23 2021.
