 Gaussian 16, Revision A.03,
 Gaussian 16:  EM64L-G16RevA.03 25-Dec-2016

 -------------
 #p 6-31g* mp2
 -------------

 ------------------------------------------------------
 Input file generated by CHIRIPA (05-May-2021 14:57:25)
 ------------------------------------------------------
 Symbolic Z-matrix:
 Charge =  0 Multiplicity = 1

                         Standard orientation:
 ---------------------------------------------------------------------
 Center     Atomic      Atomic             Coordinates (Angstroms)
 Number     Number       Type             X           Y           Z
 ---------------------------------------------------------------------
      1          6           0       -1.867992   -1.167117    0.158416
      2          6           0       -1.972300    0.193466    0.465751
      3          6           0       -3.209878    0.841332    0.409028
      4          6           0       -4.327634    0.094752    0.039528
      5          6           0       -4.256015   -1.262012   -0.272482
      6          6           0       -3.008172   -1.889241   -0.209072
      7          1           0       -0.902625   -1.662379    0.205077
      8          1           0       -1.088508    0.756784    0.751458
      9          1           0       -3.319136    1.893607    0.641835
     10          1           0       -5.154793   -1.797135   -0.554013
     11          1           0       -2.930153   -2.945996   -0.448290
     12          7           0       -5.643236    0.769695   -0.024062
     13          8           0       -6.612978    0.089651   -0.352358
     14          8           0       -5.679752    1.965979    0.255596
     15          6           0        5.072686    2.346640   -0.155355
     16          6           0        5.907517    1.256046    0.109563
     17          6           0        5.385471   -0.039458    0.170270
     18          6           0        4.017817   -0.208784   -0.039825
     19          6           0        3.160250    0.857582   -0.305784
     20          6           0        3.704129    2.144284   -0.361819
     21          1           0        5.486704    3.349601   -0.200699
     22          1           0        6.970737    1.410212    0.270311
     23          1           0        6.009001   -0.901602    0.373582
     24          1           0        2.104402    0.672436   -0.461748
     25          1           0        3.053402    2.989384   -0.567744
     26          7           0        3.453593   -1.575618    0.021970
     27          8           0        2.245291   -1.698228   -0.166734
     28          8           0        4.230341   -2.498450    0.257938
 ---------------------------------------------------------------------

 SCF Done:  E(RHF) =  -868.339623531     A.U. after   16 cycles
 E2 =    -0.2598486829D+01 EUMP2 =    -0.87093811036020D+03

 The electronic state is 1-A.
 Alpha  occ. eigenvalues --  -20.61833 -20.61766 -20.60470 -20.60461 -15.86848
 Alpha  occ. eigenvalues --  -15.85522 -11.32007 -11.30761 -11.28602 -11.28507
 Alpha  occ. eigenvalues --  -11.28214 -11.27521 -11.27474 -11.27391 -11.27324
 Alpha  occ. eigenvalues --  -11.26852 -11.26332 -11.26207  -1.60860  -1.59548
 Alpha  occ. eigenvalues --   -1.40426  -1.39105  -1.20150  -1.18920  -1.09573
 Alpha  occ. eigenvalues --   -1.08294  -1.05527  -1.04328  -0.96449  -0.95151
 Alpha  occ. eigenvalues --   -0.86931  -0.85707  -0.83298  -0.82008  -0.78376
 Alpha  occ. eigenvalues --   -0.77114  -0.73086  -0.72165  -0.71739  -0.71253
 Alpha  occ. eigenvalues --   -0.70872  -0.69891  -0.65807  -0.65522  -0.64557
 Alpha  occ. eigenvalues --   -0.64327  -0.62886  -0.61695  -0.56012  -0.54640
 Alpha  occ. eigenvalues --   -0.53857  -0.53616  -0.52643  -0.52412  -0.49843
 Alpha  occ. eigenvalues --   -0.49788  -0.48503  -0.48485  -0.45874  -0.44540
 Alpha  occ. eigenvalues --   -0.38100  -0.37120  -0.36829  -0.35958
 Alpha virt. eigenvalues --    0.04152   0.05452   0.10535   0.11698   0.15694
 Alpha virt. eigenvalues --    0.16989   0.19807   0.21950   0.25555   0.27051
 Alpha virt. eigenvalues --    0.28313   0.29037   0.30711   0.31175   0.32041

 Mulliken charges:
               1
     1  C   -0.177344
     2  C   -0.221946
     3  C   -0.171410
     4  C    0.157189
     5  C   -0.170854
     6  C   -0.220384
     7  H    0.250150
     8  H    0.216479
     9  H    0.271989
    10  H    0.274459
    11  H    0.225851
    12  N    0.488311
    13  O   -0.461158
    14  O   -0.462998
    15  C   -0.169847
    16  C   -0.218149
    17  C   -0.170139
    18  C    0.158787
    19  C   -0.171642
    20  C   -0.218068
    21  H    0.228721
    22  H    0.226338
    23  H    0.277285
    24  H    0.269423
    25  H    0.225072
    26  N    0.493315
    27  O   -0.474785
    28  O   -0.454645
 Sum of Mulliken charges =  -0.00000

 Dipole moment (field-independent basis, Debye):
    X=              7.1044    Y=              2.3319    Z=             -0.0002  Tot=              7.4773
 Quadrupole moment (field-independent basis, Debye-Ang):
   XX=           -123.7342   YY=           -103.1445   ZZ=           -105.9247
   XY=             30.7574   XZ=              0.0628   YZ=              0.6689

 Normal termination of Gaussian 16 at Wed May  5 16:25:53 2021.
