 Gaussian 16, Revision A.03,
 Gaussian 16:  EM64L-G16RevA.03 25-Dec-2016

 -------------
 #p 6-31g* mp2
 -------------

 ------------------------------------------------------
 Input file generated by CHIRIPA (05-May-2021 14:51:09)
 ------------------------------------------------------
 Symbolic Z-matrix:
 Charge =  0 Multiplicity = 1

                         Standard orientation:
 ---------------------------------------------------------------------
 Center     Atomic      Atomic             Coordinates (Angstroms)
 Number     Number       Type             X           Y           Z
 ---------------------------------------------------------------------
      1          6           0       -4.049068   -0.578743    0.421104
      2          6           0       -4.996800   -1.373742   -0.477654
      3          6           0       -5.417036   -2.707861    0.139859
      4          1           0       -3.156974   -1.185037    0.629722
      5          1           0       -4.537619   -0.398294    1.388653
      6          1           0       -4.507138   -1.551443   -1.443713
      7          1           0       -5.886654   -0.765410   -0.684313
      8          1           0       -5.928870   -2.546460    1.094100
      9          1           0       -4.541516   -3.336959    0.330386
     10          1           0       -6.094359   -3.259729   -0.519334
     11          6           0       -3.620038    0.757403   -0.182532
     12          6           0       -2.672306    1.552401    0.716227
     13          6           0       -2.252070    2.886520    0.098714
     14          1           0       -3.131486    0.576953   -1.150080
     15          1           0       -4.512132    1.363697   -0.391150
     16          1           0       -1.782451    0.944070    0.922886
     17          1           0       -3.161967    1.730103    1.682285
     18          1           0       -3.127590    3.515618   -0.091813
     19          1           0       -1.740236    2.725119   -0.855528
     20          1           0       -1.574747    3.438389    0.757906
     21          6           0        4.346735   -0.655956   -0.125403
     22          6           0        5.743247   -0.215777    0.315028
     23          6           0        6.756802   -1.360414    0.297550
     24          1           0        3.999824   -1.464864    0.532066
     25          1           0        4.405582   -1.079410   -1.137637
     26          1           0        5.681554    0.207989    1.325588
     27          1           0        6.086795    0.592308   -0.343447
     28          1           0        6.847839   -1.779009   -0.709969
     29          1           0        6.440295   -2.165512    0.968550
     30          1           0        7.748311   -1.023583    0.615848
     31          6           0        3.322371    0.477296   -0.113170
     32          6           0        1.925858    0.037118   -0.553601
     33          6           0        0.912304    1.181755   -0.536122
     34          1           0        3.263524    0.900751    0.899064
     35          1           0        3.669282    1.286204   -0.770639
     36          1           0        1.582311   -0.770968    0.104874
     37          1           0        1.987552   -0.386648   -1.564161
     38          1           0        1.228811    1.986853   -1.207122
     39          1           0        0.821268    1.600350    0.471396
     40          1           0       -0.079205    0.844923   -0.854420
 ---------------------------------------------------------------------

 SCF Done:  E(RHF) =  -470.732186437     A.U. after   11 cycles
 E2 =    -0.1583551850D+01 EUMP2 =    -0.47231573828703D+03

 The electronic state is 1-A.
 Alpha  occ. eigenvalues --  -11.21624 -11.21615 -11.21586 -11.21469 -11.21426
 Alpha  occ. eigenvalues --  -11.21376 -11.21366 -11.21316 -11.21083 -11.21072
 Alpha  occ. eigenvalues --  -11.21060 -11.20919  -1.08461  -1.08382  -1.03601
 Alpha  occ. eigenvalues --   -1.03431  -0.96079  -0.95856  -0.87068  -0.86901
 Alpha  occ. eigenvalues --   -0.79626  -0.79535  -0.78266  -0.78204  -0.65126
 Alpha  occ. eigenvalues --   -0.65020  -0.61121  -0.60866  -0.59297  -0.59276
 Alpha  occ. eigenvalues --   -0.57624  -0.57523  -0.55358  -0.55180  -0.52646
 Alpha  occ. eigenvalues --   -0.52627  -0.52411  -0.52310  -0.49982  -0.49828
 Alpha  occ. eigenvalues --   -0.47956  -0.47819  -0.46738  -0.46480  -0.45805
 Alpha  occ. eigenvalues --   -0.45754  -0.45730  -0.45637  -0.43789  -0.43707
 Alpha virt. eigenvalues --    0.21150   0.23023   0.23694   0.25033   0.26292
 Alpha virt. eigenvalues --    0.26536   0.26875   0.27404   0.27889   0.29240
 Alpha virt. eigenvalues --    0.29963   0.31480   0.31583   0.31989   0.32294

 Mulliken charges:
               1
     1  C   -0.298003
     2  C   -0.299595
     3  C   -0.475685
     4  H    0.149257
     5  H    0.149586
     6  H    0.151784
     7  H    0.151969
     8  H    0.155156
     9  H    0.155102
    10  H    0.160201
    11  C   -0.299471
    12  C   -0.304719
    13  C   -0.475652
    14  H    0.148752
    15  H    0.149877
    16  H    0.156608
    17  H    0.151644
    18  H    0.153989
    19  H    0.158275
    20  H    0.159500
    21  C   -0.298256
    22  C   -0.299642
    23  C   -0.475712
    24  H    0.149616
    25  H    0.149524
    26  H    0.151960
    27  H    0.151983
    28  H    0.155187
    29  H    0.155186
    30  H    0.160314
    31  C   -0.298655
    32  C   -0.301178
    33  C   -0.477383
    34  H    0.149609
    35  H    0.149803
    36  H    0.151499
    37  H    0.151751
    38  H    0.155190
    39  H    0.157064
    40  H    0.163565
 Sum of Mulliken charges =  -0.00000

 Dipole moment (field-independent basis, Debye):
    X=              0.0360    Y=              0.0133    Z=             -0.0032  Tot=              0.0385
 Quadrupole moment (field-independent basis, Debye-Ang):
   XX=            -85.1299   YY=            -86.0884   ZZ=            -83.7535
   XY=             -0.0260   XZ=             -0.4805   YZ=              0.2910

 Normal termination of Gaussian 16 at Thu May  6 02:08:44 2021.
