 Gaussian 16, Revision A.03,
 Gaussian 16:  EM64L-G16RevA.03 25-Dec-2016

 -------------
 #p 6-31g* mp2
 -------------

 ------------------------------------------------------
 Input file generated by CHIRIPA (05-May-2021 14:51:07)
 ------------------------------------------------------
 Symbolic Z-matrix:
 Charge =  0 Multiplicity = 1

                         Standard orientation:
 ---------------------------------------------------------------------
 Center     Atomic      Atomic             Coordinates (Angstroms)
 Number     Number       Type             X           Y           Z
 ---------------------------------------------------------------------
      1          6           0       -2.833723   -0.955618    0.476245
      2          6           0       -1.484426   -1.239806   -0.184528
      3          6           0       -0.609422   -2.184078    0.640404
      4          1           0       -2.663475   -0.523933    1.472041
      5          1           0       -3.364233   -1.904924    0.633635
      6          1           0       -0.957211   -0.290123   -0.341885
      7          1           0       -1.657907   -1.670687   -1.178943
      8          1           0       -1.111732   -3.145843    0.786326
      9          1           0       -0.407055   -1.757434    1.628140
     10          1           0        0.350295   -2.373595    0.149602
     11          6           0       -3.719739   -0.013169   -0.336463
     12          6           0       -5.069035    0.271020    0.324311
     13          6           0       -5.944039    1.215292   -0.500621
     14          1           0       -3.189228    0.936137   -0.493853
     15          1           0       -3.889987   -0.444854   -1.332258
     16          1           0       -4.895555    0.701901    1.318726
     17          1           0       -5.596250   -0.678663    0.481668
     18          1           0       -6.146406    0.788648   -1.488358
     19          1           0       -5.441729    2.177057   -0.646543
     20          1           0       -6.903757    1.404808   -0.009819
     21          6           0        3.594227   -0.156535    0.198139
     22          6           0        3.391888   -1.363014   -0.719166
     23          6           0        4.032739   -2.637706   -0.169380
     24          1           0        4.670447    0.006945    0.346360
     25          1           0        3.173179   -0.382356    1.187643
     26          1           0        3.811958   -1.134466   -1.707053
     27          1           0        2.316027   -1.523523   -0.865376
     28          1           0        3.606920   -2.893025    0.806371
     29          1           0        5.111350   -2.501757   -0.040091
     30          1           0        3.876001   -3.487667   -0.840841
     31          6           0        2.959235    1.125321   -0.337922
     32          6           0        3.161574    2.331801    0.579384
     33          6           0        2.520722    3.606492    0.029598
     34          1           0        3.380281    1.351142   -1.327426
     35          1           0        1.883014    0.961842   -0.486144
     36          1           0        4.237435    2.492309    0.725592
     37          1           0        2.741503    2.103252    1.567271
     38          1           0        1.442110    3.470544   -0.099693
     39          1           0        2.946542    3.861812   -0.946153
     40          1           0        2.677460    4.456454    0.701058
 ---------------------------------------------------------------------

 SCF Done:  E(RHF) =  -470.733344466     A.U. after   11 cycles
 E2 =    -0.1582989179D+01 EUMP2 =    -0.47231633364542D+03

 The electronic state is 1-A.
 Alpha  occ. eigenvalues --  -11.21674 -11.21628 -11.21613 -11.21583 -11.21449
 Alpha  occ. eigenvalues --  -11.21404 -11.21387 -11.21343 -11.21121 -11.21090
 Alpha  occ. eigenvalues --  -11.21089 -11.21062  -1.08478  -1.08427  -1.03586
 Alpha  occ. eigenvalues --   -1.03524  -0.96027  -0.95978  -0.87048  -0.86989
 Alpha  occ. eigenvalues --   -0.79653  -0.79581  -0.78293  -0.78237  -0.65151
 Alpha  occ. eigenvalues --   -0.65036  -0.61007  -0.60956  -0.59424  -0.59292
 Alpha  occ. eigenvalues --   -0.57654  -0.57568  -0.55318  -0.55259  -0.52736
 Alpha  occ. eigenvalues --   -0.52669  -0.52468  -0.52386  -0.49980  -0.49900
 Alpha  occ. eigenvalues --   -0.48031  -0.47844  -0.46689  -0.46601  -0.45852
 Alpha  occ. eigenvalues --   -0.45805  -0.45751  -0.45635  -0.43817  -0.43772
 Alpha virt. eigenvalues --    0.20028   0.23085   0.23624   0.24536   0.25924
 Alpha virt. eigenvalues --    0.26803   0.26898   0.27672   0.27959   0.29136
 Alpha virt. eigenvalues --    0.30282   0.31392   0.31712   0.31872   0.31949

 Mulliken charges:
               1
     1  C   -0.298241
     2  C   -0.301448
     3  C   -0.482329
     4  H    0.149657
     5  H    0.149896
     6  H    0.152600
     7  H    0.152426
     8  H    0.155822
     9  H    0.154821
    10  H    0.166633
    11  C   -0.298309
    12  C   -0.299706
    13  C   -0.475747
    14  H    0.149445
    15  H    0.149839
    16  H    0.151969
    17  H    0.152007
    18  H    0.155253
    19  H    0.155268
    20  H    0.160355
    21  C   -0.297978
    22  C   -0.305517
    23  C   -0.476350
    24  H    0.149665
    25  H    0.150051
    26  H    0.152163
    27  H    0.156822
    28  H    0.156065
    29  H    0.155350
    30  H    0.160092
    31  C   -0.300460
    32  C   -0.299627
    33  C   -0.475585
    34  H    0.149639
    35  H    0.151268
    36  H    0.152094
    37  H    0.151810
    38  H    0.154661
    39  H    0.155346
    40  H    0.160281
 Sum of Mulliken charges =  -0.00000

 Dipole moment (field-independent basis, Debye):
    X=             -0.0090    Y=             -0.0117    Z=             -0.0007  Tot=              0.0148
 Quadrupole moment (field-independent basis, Debye-Ang):
   XX=            -84.5150   YY=            -85.5210   ZZ=            -84.6196
   XY=              1.4573   XZ=             -0.6710   YZ=              0.8756

 Normal termination of Gaussian 16 at Thu May  6 13:10:57 2021.
