 Gaussian 16, Revision A.03,
 Gaussian 16:  EM64L-G16RevA.03 25-Dec-2016

 -------------
 #p 6-31g* mp2
 -------------

 ------------------------------------------------------
 Input file generated by CHIRIPA (05-May-2021 14:55:21)
 ------------------------------------------------------
 Symbolic Z-matrix:
 Charge =  0 Multiplicity = 1

                         Standard orientation:
 ---------------------------------------------------------------------
 Center     Atomic      Atomic             Coordinates (Angstroms)
 Number     Number       Type             X           Y           Z
 ---------------------------------------------------------------------
      1          6           0       -1.331754    1.434027    2.063726
      2          6           0       -2.311999    1.808637    1.138897
      3          6           0       -2.705234    0.929290    0.125653
      4          6           0       -2.094629   -0.322488    0.066487
      5          6           0       -1.115130   -0.724893    0.973097
      6          6           0       -0.737496    0.170684    1.978026
      7          1           0       -1.032339    2.123429    2.847609
      8          1           0       -2.775221    2.789125    1.203028
      9          1           0       -3.461586    1.193561   -0.603395
     10          1           0       -0.671428   -1.709037    0.883616
     11          1           0        0.024038   -0.122941    2.694890
     12          7           0       -2.502671   -1.262005   -1.001788
     13          8           0       -1.949479   -2.359129   -1.032341
     14          8           0       -3.367961   -0.883484   -1.788320
     15          6           0        2.449653   -0.398527    0.121259
     16          6           0        3.474605   -1.519725   -0.053026
     17          6           0        3.170177   -2.739485    0.817205
     18          1           0        2.419718   -0.098717    1.177745
     19          1           0        1.449974   -0.783886   -0.122739
     20          1           0        4.472235   -1.131990    0.189896
     21          1           0        3.502242   -1.816770   -1.109254
     22          1           0        2.187040   -3.153132    0.570347
     23          1           0        3.162546   -2.464461    1.876878
     24          1           0        3.915287   -3.528781    0.676915
     25          6           0        2.740435    0.827698   -0.742190
     26          6           0        1.715483    1.948896   -0.567904
     27          6           0        2.019912    3.168656   -1.438136
     28          1           0        3.740114    1.213057   -0.498192
     29          1           0        2.770370    0.527887   -1.798676
     30          1           0        1.687847    2.245940    0.488323
     31          1           0        0.717853    1.561161   -0.810826
     32          1           0        2.027543    2.893632   -2.497808
     33          1           0        3.003048    3.582302   -1.191278
     34          1           0        1.274800    3.957951   -1.297845
 ---------------------------------------------------------------------

 SCF Done:  E(RHF) =  -669.534049016     A.U. after   15 cycles
 E2 =    -0.2095244836D+01 EUMP2 =    -0.67162929385222D+03

 The electronic state is 1-A.
 Alpha  occ. eigenvalues --  -20.60827 -20.60821 -15.85879 -11.31225 -11.27786
 Alpha  occ. eigenvalues --  -11.27753 -11.27500 -11.26790 -11.26741 -11.21824
 Alpha  occ. eigenvalues --  -11.21773 -11.21678 -11.21578 -11.21398 -11.21271
 Alpha  occ. eigenvalues --   -1.59903  -1.39457  -1.19395  -1.08795  -1.08677
 Alpha  occ. eigenvalues --   -1.04788  -1.03771  -0.96242  -0.95627  -0.87257
 Alpha  occ. eigenvalues --   -0.86189  -0.82463  -0.79835  -0.78571  -0.77477
 Alpha  occ. eigenvalues --   -0.72095  -0.71230  -0.70502  -0.65375  -0.65036
 Alpha  occ. eigenvalues --   -0.64738  -0.62150  -0.61156  -0.59609  -0.57862
 Alpha  occ. eigenvalues --   -0.55538  -0.55286  -0.53312  -0.52884  -0.52808
 Alpha  occ. eigenvalues --   -0.52673  -0.50180  -0.48854  -0.48851  -0.48156
 Alpha  occ. eigenvalues --   -0.46858  -0.46047  -0.45920  -0.44856  -0.44027
 Alpha  occ. eigenvalues --   -0.37339  -0.36260
 Alpha virt. eigenvalues --    0.05002   0.11127   0.16464   0.20199   0.22940
 Alpha virt. eigenvalues --    0.23526   0.25200   0.26245   0.27593   0.28594
 Alpha virt. eigenvalues --    0.29088   0.29623   0.31391   0.31684   0.31768

 Mulliken charges:
               1
     1  C   -0.170102
     2  C   -0.217904
     3  C   -0.172301
     4  C    0.157956
     5  C   -0.174064
     6  C   -0.211550
     7  H    0.225423
     8  H    0.223505
     9  H    0.275626
    10  H    0.276984
    11  H    0.224276
    12  N    0.488239
    13  O   -0.461407
    14  O   -0.460044
    15  C   -0.301640
    16  C   -0.298970
    17  C   -0.478519
    18  H    0.139798
    19  H    0.155190
    20  H    0.151678
    21  H    0.156867
    22  H    0.157222
    23  H    0.149520
    24  H    0.164174
    25  C   -0.298585
    26  C   -0.299915
    27  C   -0.475884
    28  H    0.148708
    29  H    0.153324
    30  H    0.145065
    31  H    0.157440
    32  H    0.157783
    33  H    0.154373
    34  H    0.157732
 Sum of Mulliken charges =  -0.00000

 Dipole moment (field-independent basis, Debye):
    X=              1.4152    Y=              3.2708    Z=              3.6960  Tot=              5.1343
 Quadrupole moment (field-independent basis, Debye-Ang):
   XX=            -98.9175   YY=            -95.8160   ZZ=            -93.9975
   XY=            -10.1171   XZ=             -6.3906   YZ=             -1.3358

 Normal termination of Gaussian 16 at Wed May  5 17:28:53 2021.
