 Gaussian 16, Revision A.03,
 Gaussian 16:  EM64L-G16RevA.03 25-Dec-2016

 -------------
 #p 6-31g* mp2
 -------------

 ------------------------------------------------------
 Input file generated by CHIRIPA (05-May-2021 14:55:23)
 ------------------------------------------------------
 Symbolic Z-matrix:
 Charge =  0 Multiplicity = 1

                         Standard orientation:
 ---------------------------------------------------------------------
 Center     Atomic      Atomic             Coordinates (Angstroms)
 Number     Number       Type             X           Y           Z
 ---------------------------------------------------------------------
      1          6           0       -0.774268   -0.836152    2.235846
      2          6           0       -1.296456    0.439531    1.998204
      3          6           0       -2.132743    0.671535    0.902145
      4          6           0       -2.427454   -0.399811    0.060330
      5          6           0       -1.922758   -1.682153    0.270499
      6          6           0       -1.088531   -1.891063    1.372757
      7          1           0       -0.125421   -1.007409    3.089699
      8          1           0       -1.054097    1.260667    2.666817
      9          1           0       -2.550744    1.649114    0.694700
     10          1           0       -2.182282   -2.480906   -0.413649
     11          1           0       -0.684434   -2.882824    1.554852
     12          7           0       -3.311703   -0.166423   -1.103300
     13          8           0       -3.556208   -1.126994   -1.830045
     14          8           0       -3.743529    0.972657   -1.266574
     15          6           0        3.552849    0.181428   -0.123642
     16          6           0        3.768579   -1.101131   -0.927686
     17          6           0        5.037467   -1.849340   -0.517932
     18          1           0        4.424600    0.837696   -0.251347
     19          1           0        3.503426   -0.068161    0.945309
     20          1           0        3.816195   -0.849364   -1.994908
     21          1           0        2.896127   -1.754339   -0.798206
     22          1           0        4.995243   -2.128971    0.539718
     23          1           0        5.920538   -1.218852   -0.663782
     24          1           0        5.172164   -2.762976   -1.105288
     25          6           0        2.288352    0.940559   -0.521760
     26          6           0        2.072624    2.223119    0.282284
     27          6           0        0.803735    2.971329   -0.127469
     28          1           0        2.337775    1.190148   -1.590711
     29          1           0        1.416602    0.284292   -0.394055
     30          1           0        2.945074    2.876327    0.152804
     31          1           0        2.025006    1.971351    1.349506
     32          1           0       -0.079336    2.340841    0.018381
     33          1           0        0.845959    3.250958   -1.185120
     34          1           0        0.669039    3.884965    0.459885
 ---------------------------------------------------------------------

 SCF Done:  E(RHF) =  -669.534946931     A.U. after   15 cycles
 E2 =    -0.2093738139D+01 EUMP2 =    -0.67162868506967D+03

 The electronic state is 1-A.
 Alpha  occ. eigenvalues --  -20.60839 -20.60833 -15.85895 -11.31316 -11.27889
 Alpha  occ. eigenvalues --  -11.27872 -11.27646 -11.26923 -11.26905 -11.21918
 Alpha  occ. eigenvalues --  -11.21903 -11.21699 -11.21562 -11.21391 -11.21245
 Alpha  occ. eigenvalues --   -1.59913  -1.39465  -1.19508  -1.08884  -1.08705
 Alpha  occ. eigenvalues --   -1.04925  -1.03814  -0.96262  -0.95706  -0.87280
 Alpha  occ. eigenvalues --   -0.86299  -0.82537  -0.79886  -0.78517  -0.77574
 Alpha  occ. eigenvalues --   -0.72112  -0.71239  -0.70602  -0.65363  -0.65150
 Alpha  occ. eigenvalues --   -0.64898  -0.62281  -0.61225  -0.59631  -0.57875
 Alpha  occ. eigenvalues --   -0.55596  -0.55384  -0.53279  -0.53003  -0.52955
 Alpha  occ. eigenvalues --   -0.52642  -0.50204  -0.48875  -0.48863  -0.48190
 Alpha  occ. eigenvalues --   -0.46922  -0.46050  -0.45960  -0.44856  -0.44067
 Alpha  occ. eigenvalues --   -0.37477  -0.36428
 Alpha virt. eigenvalues --    0.04934   0.11048   0.16365   0.20826   0.22715
 Alpha virt. eigenvalues --    0.24003   0.26260   0.26738   0.26904   0.28090
 Alpha virt. eigenvalues --    0.28688   0.30437   0.31310   0.31495   0.31770

 Mulliken charges:
               1
     1  C   -0.171376
     2  C   -0.215516
     3  C   -0.174668
     4  C    0.159453
     5  C   -0.171337
     6  C   -0.218876
     7  H    0.226363
     8  H    0.225851
     9  H    0.277915
    10  H    0.276352
    11  H    0.224244
    12  N    0.488304
    13  O   -0.460051
    14  O   -0.459726
    15  C   -0.297339
    16  C   -0.299506
    17  C   -0.475599
    18  H    0.150545
    19  H    0.144428
    20  H    0.154616
    21  H    0.149835
    22  H    0.152519
    23  H    0.156443
    24  H    0.161051
    25  C   -0.301529
    26  C   -0.296811
    27  C   -0.483375
    28  H    0.152109
    29  H    0.153827
    30  H    0.152999
    31  H    0.143545
    32  H    0.158505
    33  H    0.160097
    34  H    0.156708
 Sum of Mulliken charges =  -0.00000

 Dipole moment (field-independent basis, Debye):
    X=              3.0301    Y=             -0.8738    Z=              4.0409  Tot=              5.1258
 Quadrupole moment (field-independent basis, Debye-Ang):
   XX=           -111.1580   YY=            -89.8347   ZZ=            -94.0137
   XY=              1.0918   XZ=            -10.7403   YZ=             -0.6770

 Normal termination of Gaussian 16 at Thu May  6 19:18:15 2021.
