 Gaussian 16, Revision A.03,
 Gaussian 16:  EM64L-G16RevA.03 25-Dec-2016

 -------------
 #p 6-31g* mp2
 -------------

 ------------------------------------------------------
 Input file generated by CHIRIPA (05-May-2021 14:51:13)
 ------------------------------------------------------
 Symbolic Z-matrix:
 Charge =  0 Multiplicity = 1

                         Standard orientation:
 ---------------------------------------------------------------------
 Center     Atomic      Atomic             Coordinates (Angstroms)
 Number     Number       Type             X           Y           Z
 ---------------------------------------------------------------------
      1          6           0       -3.849185   -0.203624   -0.082388
      2          6           0       -4.219088    1.279111   -0.133894
      3          6           0       -5.666634    1.512546   -0.567382
      4          1           0       -4.013594   -0.650613   -1.072396
      5          1           0       -4.528155   -0.719904    0.610324
      6          1           0       -3.538740    1.792697   -0.825251
      7          1           0       -4.053597    1.722666    0.856302
      8          1           0       -6.359782    1.025927    0.126411
      9          1           0       -5.842000    1.096355   -1.564695
     10          1           0       -5.909683    2.579264   -0.597374
     11          6           0       -2.405202   -0.453127    0.349339
     12          6           0       -2.035300   -1.935862    0.400845
     13          6           0       -0.587753   -2.169297    0.834333
     14          1           0       -1.726233    0.063153   -0.343373
     15          1           0       -2.240793   -0.006138    1.339347
     16          1           0       -2.200790   -2.379417   -0.589351
     17          1           0       -2.715648   -2.449448    1.092202
     18          1           0       -0.412388   -1.753106    1.831646
     19          1           0        0.105395   -1.682678    0.140540
     20          1           0       -0.344705   -3.236015    0.864325
     21          6           0        3.533925    0.969938   -0.053476
     22          6           0        2.669381    2.214572    0.150078
     23          6           0        3.497468    3.490092    0.308560
     24          1           0        4.216643    0.861844    0.800431
     25          1           0        4.164691    1.111471   -0.942013
     26          1           0        2.039435    2.070169    1.037169
     27          1           0        1.988510    2.319609   -0.704320
     28          1           0        4.114596    3.661552   -0.579333
     29          1           0        4.165810    3.410694    1.172051
     30          1           0        2.859484    4.367589    0.452903
     31          6           0        2.720463   -0.313187   -0.213475
     32          6           0        3.585006   -1.557821   -0.417029
     33          6           0        2.756920   -2.833341   -0.575511
     34          1           0        2.089697   -0.454720    0.675062
     35          1           0        2.037745   -0.205093   -1.067382
     36          1           0        4.265878   -1.662858    0.437369
     37          1           0        4.214952   -1.413418   -1.304120
     38          1           0        2.088577   -2.753944   -1.439002
     39          1           0        2.139792   -3.004800    0.312382
     40          1           0        3.394904   -3.710838   -0.719854
 ---------------------------------------------------------------------

 SCF Done:  E(RHF) =  -470.731102533     A.U. after   11 cycles
 E2 =    -0.1584339159D+01 EUMP2 =    -0.47231544169223D+03

 The electronic state is 1-A.
 Alpha  occ. eigenvalues --  -11.21590 -11.21581 -11.21556 -11.21524 -11.21377
 Alpha  occ. eigenvalues --  -11.21370 -11.21314 -11.21309 -11.21062 -11.21057
 Alpha  occ. eigenvalues --  -11.20920 -11.20892  -1.08435  -1.08370  -1.03560
 Alpha  occ. eigenvalues --   -1.03428  -0.96003  -0.95886  -0.87045  -0.86899
 Alpha  occ. eigenvalues --   -0.79763  -0.79407  -0.78331  -0.78084  -0.65050
 Alpha  occ. eigenvalues --   -0.65016  -0.60952  -0.60862  -0.59352  -0.59322
 Alpha  occ. eigenvalues --   -0.57622  -0.57499  -0.55271  -0.55194  -0.52808
 Alpha  occ. eigenvalues --   -0.52659  -0.52394  -0.52189  -0.49961  -0.49856
 Alpha  occ. eigenvalues --   -0.48069  -0.47711  -0.46671  -0.46562  -0.45942
 Alpha  occ. eigenvalues --   -0.45763  -0.45643  -0.45198  -0.43755  -0.43700
 Alpha virt. eigenvalues --    0.22179   0.23101   0.23681   0.24757   0.25583
 Alpha virt. eigenvalues --    0.26525   0.27068   0.27436   0.28297   0.29403
 Alpha virt. eigenvalues --    0.29637   0.31277   0.31534   0.31875   0.32299

 Mulliken charges:
               1
     1  C   -0.298218
     2  C   -0.299545
     3  C   -0.475675
     4  H    0.149475
     5  H    0.149485
     6  H    0.151838
     7  H    0.151869
     8  H    0.155154
     9  H    0.155107
    10  H    0.160161
    11  C   -0.298462
    12  C   -0.299934
    13  C   -0.483502
    14  H    0.149667
    15  H    0.149218
    16  H    0.151470
    17  H    0.151067
    18  H    0.152442
    19  H    0.168812
    20  H    0.159497
    21  C   -0.297404
    22  C   -0.299567
    23  C   -0.475710
    24  H    0.149651
    25  H    0.149274
    26  H    0.152244
    27  H    0.151445
    28  H    0.155122
    29  H    0.155170
    30  H    0.160245
    31  C   -0.304187
    32  C   -0.298117
    33  C   -0.481438
    34  H    0.155449
    35  H    0.147713
    36  H    0.151616
    37  H    0.151269
    38  H    0.153484
    39  H    0.164628
    40  H    0.159187
 Sum of Mulliken charges =  -0.00000

 Dipole moment (field-independent basis, Debye):
    X=              0.0191    Y=             -0.0060    Z=              0.0167  Tot=              0.0261
 Quadrupole moment (field-independent basis, Debye-Ang):
   XX=            -86.2022   YY=            -85.9668   ZZ=            -82.9391
   XY=             -0.1467   XZ=             -0.4993   YZ=             -0.2363

 Normal termination of Gaussian 16 at Thu May  6 02:21:07 2021.
