 Gaussian 16, Revision A.03,
 Gaussian 16:  EM64L-G16RevA.03 25-Dec-2016

 -------------
 #p 6-31g* mp2
 -------------

 ------------------------------------------------------
 Input file generated by CHIRIPA (05-May-2021 14:53:15)
 ------------------------------------------------------
 Symbolic Z-matrix:
 Charge =  0 Multiplicity = 1

                         Standard orientation:
 ---------------------------------------------------------------------
 Center     Atomic      Atomic             Coordinates (Angstroms)
 Number     Number       Type             X           Y           Z
 ---------------------------------------------------------------------
      1          6           0       -3.963176   -0.740096   -0.398572
      2          6           0       -2.473955   -0.632580   -0.068957
      3          6           0       -1.672193   -1.840307   -0.555133
      4          1           0       -4.367078   -1.656256    0.053599
      5          1           0       -4.084169   -0.848309   -1.485331
      6          1           0       -2.355879   -0.523213    1.016729
      7          1           0       -2.073593    0.283529   -0.521804
      8          1           0       -1.760320   -1.949433   -1.640917
      9          1           0       -2.044210   -2.760759   -0.093643
     10          1           0       -0.610229   -1.742623   -0.309065
     11          6           0       -4.777984    0.459791    0.081100
     12          6           0       -6.267205    0.352275   -0.248516
     13          6           0       -7.068967    1.560002    0.237661
     14          1           0       -4.656991    0.568004    1.167859
     15          1           0       -4.374082    1.375951   -0.371071
     16          1           0       -6.667567   -0.563834    0.204332
     17          1           0       -6.385281    0.242908   -1.334201
     18          1           0       -6.696950    2.480454   -0.223830
     19          1           0       -6.980840    1.669128    1.323445
     20          1           0       -8.130931    1.462318   -0.008407
     21          6           0        4.308552    2.427687   -0.314856
     22          6           0        3.204551    2.250702    0.525607
     23          6           0        2.700697    0.970845    0.775899
     24          6           0        3.328083   -0.114620    0.166441
     25          6           0        4.429583    0.029263   -0.675752
     26          6           0        4.916473    1.318358   -0.911800
     27          1           0        4.693369    3.425499   -0.503757
     28          1           0        2.730424    3.110392    0.990562
     29          1           0        1.847387    0.805196    1.422305
     30          1           0        4.881066   -0.847002   -1.124908
     31          1           0        5.773998    1.452805   -1.564960
     32          7           0        2.803655   -1.474437    0.423874
     33          8           0        3.374239   -2.414454   -0.125160
     34          8           0        1.831954   -1.574497    1.169811
 ---------------------------------------------------------------------

 SCF Done:  E(RHF) =  -669.536276799     A.U. after   15 cycles
 E2 =    -0.2090854384D+01 EUMP2 =    -0.67162713118230D+03

 The electronic state is 1-A.
 Alpha  occ. eigenvalues --  -20.60960 -20.60955 -15.85978 -11.31283 -11.27846
 Alpha  occ. eigenvalues --  -11.27841 -11.27583 -11.26851 -11.26841 -11.21349
 Alpha  occ. eigenvalues --  -11.21066 -11.20973 -11.20897 -11.20880 -11.19994
 Alpha  occ. eigenvalues --   -1.60014  -1.39571  -1.19452  -1.08860  -1.08002
 Alpha  occ. eigenvalues --   -1.04845  -1.03028  -0.95706  -0.95450  -0.86465
 Alpha  occ. eigenvalues --   -0.86247  -0.82537  -0.79116  -0.77812  -0.77593
 Alpha  occ. eigenvalues --   -0.72201  -0.71325  -0.70561  -0.65108  -0.64849
 Alpha  occ. eigenvalues --   -0.64641  -0.62192  -0.60435  -0.58843  -0.57053
 Alpha  occ. eigenvalues --   -0.55353  -0.54754  -0.53181  -0.52937  -0.52101
 Alpha  occ. eigenvalues --   -0.51879  -0.49414  -0.48969  -0.48952  -0.47424
 Alpha  occ. eigenvalues --   -0.46176  -0.45353  -0.45278  -0.44965  -0.43227
 Alpha  occ. eigenvalues --   -0.37430  -0.36446
 Alpha virt. eigenvalues --    0.04899   0.11207   0.16369   0.21312   0.23255
 Alpha virt. eigenvalues --    0.24819   0.27031   0.27215   0.27769   0.28156
 Alpha virt. eigenvalues --    0.28736   0.30811   0.31871   0.32046   0.32324

 Mulliken charges:
               1
     1  C   -0.297462
     2  C   -0.298983
     3  C   -0.482797
     4  H    0.150292
     5  H    0.148208
     6  H    0.152056
     7  H    0.144944
     8  H    0.148863
     9  H    0.155733
    10  H    0.178463
    11  C   -0.297574
    12  C   -0.299263
    13  C   -0.475382
    14  H    0.148647
    15  H    0.146922
    16  H    0.152378
    17  H    0.151468
    18  H    0.153800
    19  H    0.154696
    20  H    0.159621
    21  C   -0.170563
    22  C   -0.218589
    23  C   -0.170835
    24  C    0.158287
    25  C   -0.170759
    26  C   -0.218601
    27  H    0.225980
    28  H    0.223962
    29  H    0.276241
    30  H    0.275847
    31  H    0.223789
    32  N    0.487680
    33  O   -0.458035
    34  O   -0.459032
 Sum of Mulliken charges =  -0.00000

 Dipole moment (field-independent basis, Debye):
    X=              2.1000    Y=              4.7294    Z=             -0.8586  Tot=              5.2454
 Quadrupole moment (field-independent basis, Debye-Ang):
   XX=            -81.2901   YY=            -95.9314   ZZ=            -93.2477
   XY=             15.1893   XZ=             -5.3436   YZ=              1.4853

 Normal termination of Gaussian 16 at Wed May  5 23:32:39 2021.
