 Gaussian 16, Revision A.03,
 Gaussian 16:  EM64L-G16RevA.03 25-Dec-2016

 -------------
 #p 6-31g* mp2
 -------------

 ------------------------------------------------------
 Input file generated by CHIRIPA (05-May-2021 14:57:20)
 ------------------------------------------------------
 Symbolic Z-matrix:
 Charge =  0 Multiplicity = 1

                         Standard orientation:
 ---------------------------------------------------------------------
 Center     Atomic      Atomic             Coordinates (Angstroms)
 Number     Number       Type             X           Y           Z
 ---------------------------------------------------------------------
      1          6           0       -4.335364    1.645009    1.233372
      2          6           0       -4.842626    1.059553    0.068706
      3          6           0       -4.165270    0.003533   -0.548188
      4          6           0       -2.978018   -0.444007    0.029248
      5          6           0       -2.447120    0.118610    1.188946
      6          6           0       -3.141335    1.173501    1.788796
      7          1           0       -4.868098    2.464912    1.705971
      8          1           0       -5.769704    1.423676   -0.364867
      9          1           0       -4.535474   -0.467962   -1.450440
     10          1           0       -1.520634   -0.266036    1.597712
     11          1           0       -2.745030    1.626260    2.693227
     12          7           0       -2.252008   -1.561370   -0.614808
     13          8           0       -1.208004   -1.937357   -0.086295
     14          8           0       -2.740712   -2.040014   -1.635938
     15          6           0        2.178254    2.166704   -1.508168
     16          6           0        3.228028    2.392059   -0.611668
     17          6           0        3.745339    1.342975    0.154074
     18          6           0        3.186560    0.075504   -0.002682
     19          6           0        2.140208   -0.180754   -0.887425
     20          6           0        1.638645    0.883280   -1.642947
     21          1           0        1.782512    2.987465   -2.099046
     22          1           0        3.649052    3.387744   -0.504919
     23          1           0        4.557654    1.489437    0.855580
     24          1           0        1.741127   -1.184253   -0.971937
     25          1           0        0.823336    0.705333   -2.338397
     26          7           0        3.725878   -1.043027    0.802565
     27          8           0        3.216186   -2.150426    0.645975
     28          8           0        4.648074   -0.791155    1.575062
 ---------------------------------------------------------------------

 SCF Done:  E(RHF) =  -868.338599898     A.U. after   16 cycles
 E2 =    -0.2599280376D+01 EUMP2 =    -0.87093788027427D+03

 The electronic state is 1-A.
 Alpha  occ. eigenvalues --  -20.61268 -20.61263 -20.60223 -20.60175 -15.86299
 Alpha  occ. eigenvalues --  -15.85254 -11.31568 -11.30647 -11.28140 -11.28096
 Alpha  occ. eigenvalues --  -11.27854 -11.27323 -11.27126 -11.27093 -11.27089
 Alpha  occ. eigenvalues --  -11.27078 -11.26351 -11.26225  -1.60344  -1.59284
 Alpha  occ. eigenvalues --   -1.39894  -1.38829  -1.19736  -1.18859  -1.09151
 Alpha  occ. eigenvalues --   -1.08266  -1.05116  -1.04249  -0.95996  -0.95075
 Alpha  occ. eigenvalues --   -0.86518  -0.85653  -0.82822  -0.81894  -0.77884
 Alpha  occ. eigenvalues --   -0.76914  -0.72508  -0.71678  -0.71467  -0.70833
 Alpha  occ. eigenvalues --   -0.70616  -0.69959  -0.65383  -0.65111  -0.64505
 Alpha  occ. eigenvalues --   -0.64254  -0.62455  -0.61556  -0.55622  -0.54797
 Alpha  occ. eigenvalues --   -0.53464  -0.53199  -0.52618  -0.52326  -0.49277
 Alpha  occ. eigenvalues --   -0.49265  -0.48250  -0.48209  -0.45315  -0.44226
 Alpha  occ. eigenvalues --   -0.37722  -0.36898  -0.36718  -0.35861
 Alpha virt. eigenvalues --    0.04594   0.05599   0.10935   0.11777   0.16103
 Alpha virt. eigenvalues --    0.17047   0.21107   0.21922   0.27042   0.27724
 Alpha virt. eigenvalues --    0.28046   0.28895   0.30703   0.31423   0.32204

 Mulliken charges:
               1
     1  C   -0.170721
     2  C   -0.218995
     3  C   -0.171867
     4  C    0.155876
     5  C   -0.170868
     6  C   -0.219032
     7  H    0.226613
     8  H    0.224103
     9  H    0.275562
    10  H    0.279128
    11  H    0.225468
    12  N    0.486668
    13  O   -0.460138
    14  O   -0.459867
    15  C   -0.171773
    16  C   -0.220334
    17  C   -0.172238
    18  C    0.154725
    19  C   -0.171751
    20  C   -0.223434
    21  H    0.222505
    22  H    0.220222
    23  H    0.273414
    24  H    0.293640
    25  H    0.224889
    26  N    0.487087
    27  O   -0.453700
    28  O   -0.465181
 Sum of Mulliken charges =  -0.00000

 Dipole moment (field-independent basis, Debye):
    X=             -4.6775    Y=              7.6811    Z=             -0.5400  Tot=              9.0094
 Quadrupole moment (field-independent basis, Debye-Ang):
   XX=            -98.4052   YY=           -106.9749   ZZ=           -102.2230
   XY=              3.6456   XZ=            -11.7909   YZ=              0.8101

 Normal termination of Gaussian 16 at Thu May  6 03:16:21 2021.
