 Gaussian 16, Revision A.03,
 Gaussian 16:  EM64L-G16RevA.03 25-Dec-2016

 -------------
 #p 6-31g* mp2
 -------------

 ------------------------------------------------------
 Input file generated by CHIRIPA (05-May-2021 14:55:24)
 ------------------------------------------------------
 Symbolic Z-matrix:
 Charge =  0 Multiplicity = 1

                         Standard orientation:
 ---------------------------------------------------------------------
 Center     Atomic      Atomic             Coordinates (Angstroms)
 Number     Number       Type             X           Y           Z
 ---------------------------------------------------------------------
      1          6           0        4.531279    0.550453   -0.771138
      2          6           0        4.054362   -0.720263   -1.109299
      3          6           0        2.860025   -1.199050   -0.562609
      4          6           0        2.164993   -0.376867    0.322962
      5          6           0        2.614193    0.893727    0.679474
      6          6           0        3.810942    1.351979    0.120597
      7          1           0        5.460006    0.914410   -1.200554
      8          1           0        4.611690   -1.344922   -1.801565
      9          1           0        2.467902   -2.178782   -0.807113
     10          1           0        2.036540    1.493415    1.372373
     11          1           0        4.178921    2.339254    0.385029
     12          7           0        0.899324   -0.872868    0.908169
     13          8           0        0.305642   -0.129104    1.685983
     14          8           0        0.524941   -1.996004    0.577959
     15          6           0       -2.895590   -0.325718   -0.551131
     16          6           0       -3.819684   -1.390910    0.039970
     17          6           0       -3.522042   -2.793037   -0.492234
     18          1           0       -2.991939   -0.332179   -1.645490
     19          1           0       -1.852724   -0.590032   -0.327604
     20          1           0       -4.860569   -1.123938   -0.183413
     21          1           0       -3.721265   -1.381783    1.133061
     22          1           0       -2.493396   -3.084309   -0.256334
     23          1           0       -3.639173   -2.825000   -1.580288
     24          1           0       -4.194216   -3.538867   -0.056598
     25          6           0       -3.180801    1.081226   -0.028740
     26          6           0       -2.256707    2.146418   -0.619843
     27          6           0       -2.554348    3.548545   -0.087637
     28          1           0       -4.223667    1.345539   -0.252267
     29          1           0       -3.084451    1.087686    1.065618
     30          1           0       -2.355126    2.137290   -1.712933
     31          1           0       -1.215821    1.879447   -0.396459
     32          1           0       -2.437217    3.580508    1.000415
     33          1           0       -3.582994    3.839817   -0.323538
     34          1           0       -1.882174    4.294375   -0.523274
 ---------------------------------------------------------------------

 SCF Done:  E(RHF) =  -669.537012754     A.U. after   15 cycles
 E2 =    -0.2092760051D+01 EUMP2 =    -0.67162977280498D+03

 The electronic state is 1-A.
 Alpha  occ. eigenvalues --  -20.61183 -20.61175 -15.86159 -11.31402 -11.27950
 Alpha  occ. eigenvalues --  -11.27945 -11.27673 -11.26936 -11.26926 -11.20773
 Alpha  occ. eigenvalues --  -11.20455 -11.20250 -11.20225 -11.19971 -11.19678
 Alpha  occ. eigenvalues --   -1.60214  -1.39769  -1.19558  -1.08980  -1.07244
 Alpha  occ. eigenvalues --   -1.04938  -1.02431  -0.95834  -0.94881  -0.86344
 Alpha  occ. eigenvalues --   -0.85909  -0.82674  -0.78534  -0.77739  -0.77049
 Alpha  occ. eigenvalues --   -0.72382  -0.71531  -0.70666  -0.65214  -0.64943
 Alpha  occ. eigenvalues --   -0.63827  -0.62286  -0.59811  -0.58303  -0.56502
 Alpha  occ. eigenvalues --   -0.55449  -0.54140  -0.53271  -0.53029  -0.51645
 Alpha  occ. eigenvalues --   -0.51324  -0.49189  -0.49164  -0.48784  -0.46862
 Alpha  occ. eigenvalues --   -0.45610  -0.45098  -0.44591  -0.44391  -0.42661
 Alpha  occ. eigenvalues --   -0.37527  -0.36532
 Alpha virt. eigenvalues --    0.04724   0.11101   0.16207   0.21211   0.24002
 Alpha virt. eigenvalues --    0.25392   0.27094   0.27461   0.28249   0.28676
 Alpha virt. eigenvalues --    0.29021   0.31010   0.31843   0.32598   0.32659

 Mulliken charges:
               1
     1  C   -0.170154
     2  C   -0.218602
     3  C   -0.170413
     4  C    0.159553
     5  C   -0.170919
     6  C   -0.218535
     7  H    0.226496
     8  H    0.224308
     9  H    0.276189
    10  H    0.276275
    11  H    0.224380
    12  N    0.486844
    13  O   -0.458625
    14  O   -0.458898
    15  C   -0.303719
    16  C   -0.296820
    17  C   -0.481257
    18  H    0.140685
    19  H    0.165693
    20  H    0.144495
    21  H    0.157048
    22  H    0.172177
    23  H    0.147589
    24  H    0.154380
    25  C   -0.296452
    26  C   -0.298745
    27  C   -0.475415
    28  H    0.143575
    29  H    0.157303
    30  H    0.147056
    31  H    0.150332
    32  H    0.156513
    33  H    0.153776
    34  H    0.153888
 Sum of Mulliken charges =  -0.00000

 Dipole moment (field-independent basis, Debye):
    X=              4.8329    Y=              1.6082    Z=             -1.8673  Tot=              5.4249
 Quadrupole moment (field-independent basis, Debye-Ang):
   XX=            -76.4594   YY=            -94.2989   ZZ=            -95.0711
   XY=              1.7584   XZ=             -3.6181   YZ=              3.4974

 Normal termination of Gaussian 16 at Wed May  5 22:24:35 2021.
