 Gaussian 16, Revision A.03,
 Gaussian 16:  EM64L-G16RevA.03 25-Dec-2016

 -------------
 #p 6-31g* mp2
 -------------

 ------------------------------------------------------
 Input file generated by CHIRIPA (05-May-2021 14:51:09)
 ------------------------------------------------------
 Symbolic Z-matrix:
 Charge =  0 Multiplicity = 1

                         Standard orientation:
 ---------------------------------------------------------------------
 Center     Atomic      Atomic             Coordinates (Angstroms)
 Number     Number       Type             X           Y           Z
 ---------------------------------------------------------------------
      1          6           0        2.730763   -0.638930    0.689966
      2          6           0        1.302248   -0.094019    0.669972
      3          6           0        0.355848   -0.883040    1.575272
      4          1           0        2.718721   -1.692958    0.380408
      5          1           0        3.108406   -0.620461    1.721683
      6          1           0        0.927908   -0.112221   -0.361607
      7          1           0        1.317715    0.958888    0.979429
      8          1           0        0.702755   -0.854684    2.613276
      9          1           0        0.310733   -1.931878    1.264621
     10          1           0       -0.659883   -0.476491    1.545804
     11          6           0        3.688711    0.139417   -0.210166
     12          6           0        5.117227   -0.405494   -0.190172
     13          6           0        6.063626    0.383527   -1.095472
     14          1           0        3.311068    0.120948   -1.241883
     15          1           0        3.700753    1.193445    0.099392
     16          1           0        5.101760   -1.458401   -0.499629
     17          1           0        5.491567   -0.387293    0.841407
     18          1           0        6.108742    1.432365   -0.784821
     19          1           0        5.716720    0.355171   -2.133477
     20          1           0        7.079357   -0.023022   -1.066004
     21          6           0       -2.762965    0.811967    0.020379
     22          6           0       -3.279233    2.208039   -0.329530
     23          6           0       -2.374719    3.322206    0.197995
     24          1           0       -2.670204    0.725126    1.111617
     25          1           0       -1.751100    0.689294   -0.390078
     26          1           0       -4.290367    2.327544    0.080278
     27          1           0       -3.370958    2.291501   -1.420052
     28          1           0       -1.367196    3.231113   -0.220575
     29          1           0       -2.291829    3.267359    1.288280
     30          1           0       -2.762505    4.311726   -0.063413
     31          6           0       -3.656511   -0.312455   -0.500179
     32          6           0       -3.140241   -1.708526   -0.150270
     33          6           0       -4.044755   -2.822693   -0.677794
     34          1           0       -4.668375   -0.189780   -0.089721
     35          1           0       -3.749271   -0.225613   -1.591416
     36          1           0       -3.048517   -1.791988    0.940251
     37          1           0       -2.129107   -1.828030   -0.560077
     38          1           0       -4.127645   -2.767846   -1.768079
     39          1           0       -5.052278   -2.731600   -0.259226
     40          1           0       -3.656970   -3.812212   -0.416387
 ---------------------------------------------------------------------

 SCF Done:  E(RHF) =  -470.732096817     A.U. after   11 cycles
 E2 =    -0.1584380890D+01 EUMP2 =    -0.47231647770667D+03

 The electronic state is 1-A.
 Alpha  occ. eigenvalues --  -11.21617 -11.21587 -11.21578 -11.21554 -11.21422
 Alpha  occ. eigenvalues --  -11.21378 -11.21363 -11.21317 -11.21081 -11.21064
 Alpha  occ. eigenvalues --  -11.21062 -11.20831  -1.08478  -1.08377  -1.03536
 Alpha  occ. eigenvalues --   -1.03478  -0.96023  -0.95894  -0.87011  -0.86941
 Alpha  occ. eigenvalues --   -0.79640  -0.79521  -0.78312  -0.78202  -0.65124
 Alpha  occ. eigenvalues --   -0.64992  -0.60938  -0.60874  -0.59376  -0.59326
 Alpha  occ. eigenvalues --   -0.57806  -0.57346  -0.55289  -0.55201  -0.52844
 Alpha  occ. eigenvalues --   -0.52544  -0.52478  -0.52215  -0.49947  -0.49856
 Alpha  occ. eigenvalues --   -0.47935  -0.47866  -0.46656  -0.46560  -0.45871
 Alpha  occ. eigenvalues --   -0.45746  -0.45696  -0.45564  -0.43820  -0.43615
 Alpha virt. eigenvalues --    0.21325   0.23179   0.23982   0.24057   0.25284
 Alpha virt. eigenvalues --    0.26332   0.26897   0.27681   0.27783   0.29826
 Alpha virt. eigenvalues --    0.30684   0.31360   0.31557   0.31815   0.32250

 Mulliken charges:
               1
     1  C   -0.298286
     2  C   -0.300529
     3  C   -0.484270
     4  H    0.149484
     5  H    0.149697
     6  H    0.150314
     7  H    0.152057
     8  H    0.153196
     9  H    0.154164
    10  H    0.172757
    11  C   -0.298214
    12  C   -0.299595
    13  C   -0.475676
    14  H    0.149036
    15  H    0.149604
    16  H    0.151875
    17  H    0.151972
    18  H    0.155178
    19  H    0.155049
    20  H    0.160214
    21  C   -0.306769
    22  C   -0.298385
    23  C   -0.476266
    24  H    0.150405
    25  H    0.156670
    26  H    0.151881
    27  H    0.151930
    28  H    0.155872
    29  H    0.154976
    30  H    0.160358
    31  C   -0.297540
    32  C   -0.301827
    33  C   -0.475756
    34  H    0.149404
    35  H    0.149427
    36  H    0.153102
    37  H    0.154218
    38  H    0.154892
    39  H    0.155097
    40  H    0.160285
 Sum of Mulliken charges =  -0.00000

 Dipole moment (field-independent basis, Debye):
    X=             -0.0486    Y=              0.0140    Z=             -0.0047  Tot=              0.0508
 Quadrupole moment (field-independent basis, Debye-Ang):
   XX=            -85.4825   YY=            -85.4919   ZZ=            -83.9132
   XY=             -0.7263   XZ=             -0.0154   YZ=              0.5333

 Normal termination of Gaussian 16 at Thu May  6 05:19:47 2021.
