 Gaussian 16, Revision A.03,
 Gaussian 16:  EM64L-G16RevA.03 25-Dec-2016

 -------------
 #p 6-31g* mp2
 -------------

 ------------------------------------------------------
 Input file generated by CHIRIPA (05-May-2021 14:55:24)
 ------------------------------------------------------
 Symbolic Z-matrix:
 Charge =  0 Multiplicity = 1

                         Standard orientation:
 ---------------------------------------------------------------------
 Center     Atomic      Atomic             Coordinates (Angstroms)
 Number     Number       Type             X           Y           Z
 ---------------------------------------------------------------------
      1          6           0        0.865711   -0.099724    0.309456
      2          6           0        1.446914   -1.006743   -0.582756
      3          6           0        2.836880   -1.084919   -0.710945
      4          6           0        3.619071   -0.237349    0.072056
      5          6           0        3.069858    0.676771    0.969853
      6          6           0        1.677606    0.737661    1.081551
      7          1           0       -0.214935   -0.045709    0.402631
      8          1           0        0.818857   -1.658295   -1.183646
      9          1           0        3.313170   -1.777896   -1.393843
     10          1           0        3.721977    1.313345    1.555457
     11          1           0        1.228998    1.443029    1.775274
     12          7           0        5.091775   -0.310961   -0.054923
     13          8           0        5.758901    0.446662    0.646209
     14          8           0        5.551069   -1.124887   -0.853178
     15          6           0       -4.569132   -0.418101   -0.271511
     16          6           0       -5.689050   -0.882662    0.660128
     17          6           0       -6.173396   -2.297698    0.342515
     18          1           0       -4.923543   -0.461319   -1.310487
     19          1           0       -3.726711   -1.119877   -0.199175
     20          1           0       -6.528562   -0.179454    0.587090
     21          1           0       -5.331994   -0.838151    1.697020
     22          1           0       -5.352014   -3.015693    0.434252
     23          1           0       -6.555381   -2.353254   -0.681985
     24          1           0       -6.973980   -2.609633    1.020470
     25          6           0       -4.074328    0.994656    0.033474
     26          6           0       -2.954409    1.459217   -0.898165
     27          6           0       -2.470064    2.874252   -0.580554
     28          1           0       -4.916749    1.696431   -0.038864
     29          1           0       -3.719916    1.037873    1.072449
     30          1           0       -3.311465    1.414706   -1.935058
     31          1           0       -2.114897    0.756009   -0.825128
     32          1           0       -2.088079    2.929808    0.443947
     33          1           0       -3.291445    3.592248   -0.672289
     34          1           0       -1.669480    3.186189   -1.258508
 ---------------------------------------------------------------------

 SCF Done:  E(RHF) =  -669.535436543     A.U. after   15 cycles
 E2 =    -0.2091181756D+01 EUMP2 =    -0.67162661829972D+03

 The electronic state is 1-A.
 Alpha  occ. eigenvalues --  -20.60754 -20.60749 -15.85808 -11.31177 -11.27744
 Alpha  occ. eigenvalues --  -11.27741 -11.27470 -11.26763 -11.26753 -11.22708
 Alpha  occ. eigenvalues --  -11.22355 -11.22326 -11.22248 -11.22037 -11.21690
 Alpha  occ. eigenvalues --   -1.59829  -1.39383  -1.19349  -1.09351  -1.08743
 Alpha  occ. eigenvalues --   -1.04752  -1.04402  -0.96829  -0.95578  -0.87843
 Alpha  occ. eigenvalues --   -0.86149  -0.82413  -0.80477  -0.79152  -0.77456
 Alpha  occ. eigenvalues --   -0.72025  -0.71152  -0.70488  -0.65997  -0.65000
 Alpha  occ. eigenvalues --   -0.64754  -0.62100  -0.61818  -0.60199  -0.58436
 Alpha  occ. eigenvalues --   -0.56135  -0.55254  -0.53507  -0.53240  -0.53078
 Alpha  occ. eigenvalues --   -0.52843  -0.50780  -0.48803  -0.48780  -0.48755
 Alpha  occ. eigenvalues --   -0.47526  -0.46680  -0.46617  -0.44787  -0.44654
 Alpha  occ. eigenvalues --   -0.37322  -0.36356
 Alpha virt. eigenvalues --    0.05059   0.11292   0.16472   0.18892   0.22667
 Alpha virt. eigenvalues --    0.23751   0.25158   0.26018   0.27005   0.27708
 Alpha virt. eigenvalues --    0.29137   0.30627   0.30942   0.31023   0.32146

 Mulliken charges:
               1
     1  C   -0.174195
     2  C   -0.220187
     3  C   -0.170924
     4  C    0.158536
     5  C   -0.170907
     6  C   -0.219582
     7  H    0.232169
     8  H    0.223355
     9  H    0.275602
    10  H    0.275570
    11  H    0.223565
    12  N    0.488035
    13  O   -0.460423
    14  O   -0.460447
    15  C   -0.297499
    16  C   -0.300165
    17  C   -0.476115
    18  H    0.152356
    19  H    0.143597
    20  H    0.154190
    21  H    0.152102
    22  H    0.154704
    23  H    0.156441
    24  H    0.162710
    25  C   -0.299205
    26  C   -0.303270
    27  C   -0.475989
    28  H    0.154099
    29  H    0.147288
    30  H    0.157460
    31  H    0.142125
    32  H    0.150339
    33  H    0.160144
    34  H    0.164521
 Sum of Mulliken charges =  -0.00000

 Dipole moment (field-independent basis, Debye):
    X=             -5.4006    Y=              0.3220    Z=              0.4009  Tot=              5.4250
 Quadrupole moment (field-independent basis, Debye-Ang):
   XX=           -131.6299   YY=            -93.2692   ZZ=            -92.3191
   XY=              1.6887   XZ=              2.1881   YZ=              2.3335

 Normal termination of Gaussian 16 at Thu May  6 17:42:33 2021.
