 Gaussian 16, Revision A.03,
 Gaussian 16:  EM64L-G16RevA.03 25-Dec-2016

 -------------
 #p 6-31g* mp2
 -------------

 ------------------------------------------------------
 Input file generated by CHIRIPA (05-May-2021 14:57:26)
 ------------------------------------------------------
 Symbolic Z-matrix:
 Charge =  0 Multiplicity = 1

                         Standard orientation:
 ---------------------------------------------------------------------
 Center     Atomic      Atomic             Coordinates (Angstroms)
 Number     Number       Type             X           Y           Z
 ---------------------------------------------------------------------
      1          6           0       -6.842869    0.439525   -0.100499
      2          6           0       -5.900696    1.316279   -0.648343
      3          6           0       -4.537372    1.009265   -0.607858
      4          6           0       -4.149618   -0.188446   -0.009172
      5          6           0       -5.064202   -1.082497    0.545354
      6          6           0       -6.422357   -0.754959    0.493554
      7          1           0       -7.899924    0.685993   -0.136343
      8          1           0       -6.224385    2.244636   -1.110323
      9          1           0       -3.786685    1.669912   -1.024310
     10          1           0       -4.711114   -2.000506    0.999233
     11          1           0       -7.151829   -1.437755    0.919821
     12          7           0       -2.709065   -0.524332    0.039677
     13          8           0       -2.393135   -1.585783    0.572731
     14          8           0       -1.923166    0.280212   -0.456014
     15          6           0        2.003889    0.928140    0.250480
     16          6           0        3.059187    1.749754    0.660134
     17          6           0        4.383561    1.319554    0.535590
     18          6           0        4.617433    0.056225   -0.005328
     19          6           0        3.587509   -0.785484   -0.422548
     20          6           0        2.270947   -0.334630   -0.288604
     21          1           0        0.978117    1.270353    0.350880
     22          1           0        2.854765    2.730919    1.079146
     23          1           0        5.219506    1.935223    0.844726
     24          1           0        3.822673   -1.758491   -0.836522
     25          1           0        1.453376   -0.974844   -0.607586
     26          7           0        6.015354   -0.410142   -0.142153
     27          8           0        6.194897   -1.527415   -0.621843
     28          8           0        6.905029    0.350424    0.232883
 ---------------------------------------------------------------------

 SCF Done:  E(RHF) =  -868.341119647     A.U. after   16 cycles
 E2 =    -0.2598094196D+01 EUMP2 =    -0.87093921384352D+03

 The electronic state is 1-A.
 Alpha  occ. eigenvalues --  -20.62024 -20.61992 -20.59890 -20.59881 -15.87014
 Alpha  occ. eigenvalues --  -15.84933 -11.32035 -11.30056 -11.28571 -11.28544
 Alpha  occ. eigenvalues --  -11.28232 -11.27496 -11.27479 -11.26648 -11.26546
 Alpha  occ. eigenvalues --  -11.26079 -11.25575 -11.25335  -1.61062  -1.58970
 Alpha  occ. eigenvalues --   -1.40623  -1.38530  -1.20172  -1.18180  -1.09632
 Alpha  occ. eigenvalues --   -1.07577  -1.05522  -1.03548  -0.96525  -0.94462
 Alpha  occ. eigenvalues --   -0.86935  -0.84924  -0.83371  -0.81316  -0.78454
 Alpha  occ. eigenvalues --   -0.76430  -0.73258  -0.72350  -0.71273  -0.71155
 Alpha  occ. eigenvalues --   -0.70292  -0.69176  -0.65827  -0.65519  -0.63804
 Alpha  occ. eigenvalues --   -0.63501  -0.62872  -0.60900  -0.56032  -0.53914
 Alpha  occ. eigenvalues --   -0.53859  -0.53605  -0.51897  -0.51603  -0.50024
 Alpha  occ. eigenvalues --   -0.49979  -0.47926  -0.47886  -0.46098  -0.43991
 Alpha  occ. eigenvalues --   -0.38128  -0.37108  -0.36095  -0.35173
 Alpha virt. eigenvalues --    0.04042   0.06091   0.10552   0.12499   0.15604
 Alpha virt. eigenvalues --    0.17674   0.20725   0.22840   0.26669   0.27574
 Alpha virt. eigenvalues --    0.28628   0.29681   0.30389   0.31780   0.32499

 Mulliken charges:
               1
     1  C   -0.169478
     2  C   -0.218492
     3  C   -0.170579
     4  C    0.157410
     5  C   -0.170088
     6  C   -0.218538
     7  H    0.228517
     8  H    0.225691
     9  H    0.274618
    10  H    0.276953
    11  H    0.226228
    12  N    0.490668
    13  O   -0.457322
    14  O   -0.472096
    15  C   -0.175390
    16  C   -0.220148
    17  C   -0.172775
    18  C    0.157187
    19  C   -0.173257
    20  C   -0.221509
    21  H    0.241691
    22  H    0.218455
    23  H    0.271081
    24  H    0.272552
    25  H    0.237367
    26  N    0.488288
    27  O   -0.462893
    28  O   -0.464142
 Sum of Mulliken charges =  -0.00000

 Dipole moment (field-independent basis, Debye):
    X=            -10.7832    Y=              2.7321    Z=              0.3069  Tot=             11.1281
 Quadrupole moment (field-independent basis, Debye-Ang):
   XX=           -108.9058   YY=            -98.1615   ZZ=           -104.4148
   XY=              5.8104   XZ=              3.0072   YZ=             -0.5030

 Normal termination of Gaussian 16 at Thu May  6 03:35:12 2021.
