 Gaussian 16, Revision A.03,
 Gaussian 16:  EM64L-G16RevA.03 25-Dec-2016

 -------------
 #p 6-31g* mp2
 -------------

 ------------------------------------------------------
 Input file generated by CHIRIPA (05-May-2021 14:51:12)
 ------------------------------------------------------
 Symbolic Z-matrix:
 Charge =  0 Multiplicity = 1

                         Standard orientation:
 ---------------------------------------------------------------------
 Center     Atomic      Atomic             Coordinates (Angstroms)
 Number     Number       Type             X           Y           Z
 ---------------------------------------------------------------------
      1          6           0       -1.834849    1.838917   -0.190354
      2          6           0       -0.446849    2.128741    0.381872
      3          6           0        0.094371    3.494194   -0.042881
      4          1           0       -1.790996    1.892643   -1.286773
      5          1           0       -2.529166    2.626528    0.133663
      6          1           0        0.244330    1.340070    0.058011
      7          1           0       -0.493969    2.074130    1.477049
      8          1           0       -0.572416    4.294593    0.293805
      9          1           0        0.170078    3.556362   -1.133296
     10          1           0        1.087576    3.680786    0.377341
     11          6           0       -2.389352    0.477517    0.225393
     12          6           0       -3.777352    0.187693   -0.346833
     13          6           0       -4.318571   -1.177759    0.077920
     14          1           0       -1.695034   -0.310094   -0.098624
     15          1           0       -2.433205    0.423791    1.321812
     16          1           0       -3.730231    0.242304   -1.442011
     17          1           0       -4.468530    0.976364   -0.022972
     18          1           0       -4.394278   -1.239928    1.168335
     19          1           0       -3.651785   -1.978159   -0.258766
     20          1           0       -5.311776   -1.364352   -0.342302
     21          6           0        1.369221   -1.332552    0.016676
     22          6           0        1.096727   -2.836513   -0.026159
     23          6           0       -0.393969   -3.169409    0.043111
     24          1           0        0.941238   -0.914918    0.938282
     25          1           0        0.845175   -0.848085   -0.818826
     26          1           0        1.622256   -3.318179    0.808367
     27          1           0        1.525576   -3.250649   -0.947677
     28          1           0       -0.929517   -2.715421   -0.796939
     29          1           0       -0.832289   -2.783335    0.969083
     30          1           0       -0.565968   -4.249800    0.011032
     31          6           0        2.854980   -0.983882   -0.051715
     32          6           0        3.127473    0.520079   -0.008880
     33          6           0        4.618169    0.852974   -0.078149
     34          1           0        3.379025   -1.468349    0.783787
     35          1           0        3.282963   -1.401516   -0.973320
     36          1           0        2.698624    0.934214    0.912638
     37          1           0        2.601944    1.001745   -0.843407
     38          1           0        5.056488    0.466901   -1.004122
     39          1           0        5.153718    0.398986    0.761900
     40          1           0        4.790168    1.933366   -0.046072
 ---------------------------------------------------------------------

 SCF Done:  E(RHF) =  -470.730899049     A.U. after   11 cycles
 E2 =    -0.1586826761D+01 EUMP2 =    -0.47231772581025D+03

 The electronic state is 1-A.
 Alpha  occ. eigenvalues --  -11.21678 -11.21645 -11.21495 -11.21479 -11.21420
 Alpha  occ. eigenvalues --  -11.21328 -11.21242 -11.21174 -11.21142 -11.21108
 Alpha  occ. eigenvalues --  -11.20960 -11.20952  -1.08561  -1.08259  -1.03622
 Alpha  occ. eigenvalues --   -1.03383  -0.96061  -0.95853  -0.87077  -0.86870
 Alpha  occ. eigenvalues --   -0.79741  -0.79467  -0.78685  -0.77774  -0.65201
 Alpha  occ. eigenvalues --   -0.64884  -0.61033  -0.60818  -0.59514  -0.59161
 Alpha  occ. eigenvalues --   -0.57688  -0.57437  -0.55350  -0.55143  -0.52766
 Alpha  occ. eigenvalues --   -0.52562  -0.52483  -0.52272  -0.49997  -0.49809
 Alpha  occ. eigenvalues --   -0.48166  -0.47731  -0.46900  -0.46720  -0.46247
 Alpha  occ. eigenvalues --   -0.45897  -0.45535  -0.44516  -0.43836  -0.43629
 Alpha virt. eigenvalues --    0.21293   0.22074   0.23504   0.24593   0.25467
 Alpha virt. eigenvalues --    0.25692   0.27029   0.27669   0.28063   0.29879
 Alpha virt. eigenvalues --    0.30425   0.30953   0.31636   0.32226   0.32595

 Mulliken charges:
               1
     1  C   -0.296788
     2  C   -0.312175
     3  C   -0.475347
     4  H    0.147633
     5  H    0.148457
     6  H    0.169759
     7  H    0.148858
     8  H    0.154430
     9  H    0.153610
    10  H    0.160166
    11  C   -0.307743
    12  C   -0.298938
    13  C   -0.478667
    14  H    0.161313
    15  H    0.147756
    16  H    0.150726
    17  H    0.151454
    18  H    0.154503
    19  H    0.159074
    20  H    0.159540
    21  C   -0.304929
    22  C   -0.298896
    23  C   -0.479123
    24  H    0.154519
    25  H    0.149602
    26  H    0.152317
    27  H    0.151823
    28  H    0.155523
    29  H    0.158480
    30  H    0.160931
    31  C   -0.297089
    32  C   -0.304276
    33  C   -0.475298
    34  H    0.149771
    35  H    0.149520
    36  H    0.155125
    37  H    0.153461
    38  H    0.155156
    39  H    0.155218
    40  H    0.160541
 Sum of Mulliken charges =  -0.00000

 Dipole moment (field-independent basis, Debye):
    X=              0.1038    Y=             -0.0986    Z=              0.0146  Tot=              0.1440
 Quadrupole moment (field-independent basis, Debye-Ang):
   XX=            -86.1904   YY=            -85.8729   ZZ=            -83.1061
   XY=             -0.9850   XZ=             -0.1105   YZ=              0.4973

 Normal termination of Gaussian 16 at Wed May  5 15:16:46 2021.
