 Gaussian 16, Revision A.03,
 Gaussian 16:  EM64L-G16RevA.03 25-Dec-2016

 -------------
 #p 6-31g* mp2
 -------------

 ------------------------------------------------------
 Input file generated by CHIRIPA (05-May-2021 14:51:12)
 ------------------------------------------------------
 Symbolic Z-matrix:
 Charge =  0 Multiplicity = 1

                         Standard orientation:
 ---------------------------------------------------------------------
 Center     Atomic      Atomic             Coordinates (Angstroms)
 Number     Number       Type             X           Y           Z
 ---------------------------------------------------------------------
      1          6           0        2.656832    0.651389    0.223820
      2          6           0        3.545327    1.099154   -0.937243
      3          6           0        3.727361    2.616299   -0.991365
      4          1           0        1.675388    1.136925    0.134555
      5          1           0        3.094760    1.002995    1.168271
      6          1           0        3.106583    0.745620   -1.879121
      7          1           0        4.524706    0.612347   -0.845309
      8          1           0        4.186550    2.982406   -0.067400
      9          1           0        2.760370    3.116437   -1.107085
     10          1           0        4.365867    2.914412   -1.828800
     11          6           0        2.465399   -0.862724    0.291226
     12          6           0        1.576904   -1.310489    1.452290
     13          6           0        1.394870   -2.827633    1.506412
     14          1           0        2.027471   -1.214330   -0.653224
     15          1           0        3.446843   -1.348259    0.380491
     16          1           0        0.597525   -0.823682    1.360356
     17          1           0        2.015648   -0.956955    2.394167
     18          1           0        2.361861   -3.327772    1.622132
     19          1           0        0.935680   -3.193741    0.582447
     20          1           0        0.756363   -3.125746    2.343847
     21          6           0       -2.054286   -0.447641   -0.400371
     22          6           0       -2.650228   -1.635276   -1.156916
     23          6           0       -1.624007   -2.733992   -1.435280
     24          1           0       -1.219205   -0.032726   -0.981260
     25          1           0       -1.629046   -0.802445    0.548671
     26          1           0       -3.075446   -1.278121   -2.103618
     27          1           0       -3.484110   -2.047293   -0.574249
     28          1           0       -1.207191   -3.118085   -0.498617
     29          1           0       -0.796205   -2.344542   -2.036675
     30          1           0       -2.071340   -3.573269   -1.976913
     31          6           0       -3.067945    0.658976   -0.114675
     32          6           0       -2.472002    1.846611    0.641868
     33          6           0       -3.498224    2.945326    0.920233
     34          1           0       -3.493185    1.013781   -1.063717
     35          1           0       -3.903025    0.244061    0.466212
     36          1           0       -1.638121    2.258628    0.059202
     37          1           0       -2.046784    1.489457    1.588571
     38          1           0       -4.326025    2.555877    1.521628
     39          1           0       -3.915040    3.329420   -0.016430
     40          1           0       -3.050890    3.784604    1.461867
 ---------------------------------------------------------------------

 SCF Done:  E(RHF) =  -470.732722025     A.U. after   11 cycles
 E2 =    -0.1584586090D+01 EUMP2 =    -0.47231730811502D+03

 The electronic state is 1-A.
 Alpha  occ. eigenvalues --  -11.21676 -11.21673 -11.21579 -11.21483 -11.21481
 Alpha  occ. eigenvalues --  -11.21422 -11.21348 -11.21286 -11.21129 -11.21118
 Alpha  occ. eigenvalues --  -11.21061 -11.20993  -1.08522  -1.08364  -1.03611
 Alpha  occ. eigenvalues --   -1.03471  -0.96059  -0.95931  -0.87094  -0.86930
 Alpha  occ. eigenvalues --   -0.79669  -0.79551  -0.78388  -0.78141  -0.65178
 Alpha  occ. eigenvalues --   -0.64985  -0.61097  -0.60811  -0.59399  -0.59309
 Alpha  occ. eigenvalues --   -0.57722  -0.57512  -0.55420  -0.55169  -0.52740
 Alpha  occ. eigenvalues --   -0.52632  -0.52541  -0.52336  -0.50157  -0.49695
 Alpha  occ. eigenvalues --   -0.48108  -0.47774  -0.46690  -0.46613  -0.46133
 Alpha  occ. eigenvalues --   -0.45786  -0.45646  -0.45268  -0.43855  -0.43732
 Alpha virt. eigenvalues --    0.20175   0.22650   0.23403   0.24460   0.25284
 Alpha virt. eigenvalues --    0.25932   0.26352   0.27857   0.29201   0.30167
 Alpha virt. eigenvalues --    0.30513   0.31211   0.31562   0.31857   0.32136

 Mulliken charges:
               1
     1  C   -0.299894
     2  C   -0.299538
     3  C   -0.475557
     4  H    0.150982
     5  H    0.149424
     6  H    0.151352
     7  H    0.151987
     8  H    0.155269
     9  H    0.154783
    10  H    0.160120
    11  C   -0.298314
    12  C   -0.305999
    13  C   -0.481219
    14  H    0.150096
    15  H    0.149307
    16  H    0.158967
    17  H    0.151199
    18  H    0.155215
    19  H    0.160867
    20  H    0.158532
    21  C   -0.305042
    22  C   -0.299010
    23  C   -0.481918
    24  H    0.149812
    25  H    0.155819
    26  H    0.152165
    27  H    0.152279
    28  H    0.161506
    29  H    0.154714
    30  H    0.160940
    31  C   -0.297746
    32  C   -0.300707
    33  C   -0.475720
    34  H    0.149772
    35  H    0.149967
    36  H    0.151739
    37  H    0.152423
    38  H    0.155416
    39  H    0.155343
    40  H    0.160670
 Sum of Mulliken charges =  -0.00000

 Dipole moment (field-independent basis, Debye):
    X=             -0.0638    Y=             -0.0034    Z=             -0.0057  Tot=              0.0641
 Quadrupole moment (field-independent basis, Debye-Ang):
   XX=            -84.4580   YY=            -86.4986   ZZ=            -83.8121
   XY=              0.3853   XZ=              0.4444   YZ=             -0.4334

 Normal termination of Gaussian 16 at Wed May  5 16:48:44 2021.
