 Gaussian 16, Revision A.03,
 Gaussian 16:  EM64L-G16RevA.03 25-Dec-2016

 -------------
 #p 6-31g* mp2
 -------------

 ------------------------------------------------------
 Input file generated by CHIRIPA (05-May-2021 14:51:14)
 ------------------------------------------------------
 Symbolic Z-matrix:
 Charge =  0 Multiplicity = 1

                         Standard orientation:
 ---------------------------------------------------------------------
 Center     Atomic      Atomic             Coordinates (Angstroms)
 Number     Number       Type             X           Y           Z
 ---------------------------------------------------------------------
      1          6           0       -3.170835   -0.668791   -0.604816
      2          6           0       -2.108063   -1.763803   -0.507609
      3          6           0       -2.642627   -3.142592   -0.896165
      4          1           0       -4.018540   -0.930876    0.042990
      5          1           0       -3.560607   -0.635935   -1.631653
      6          1           0       -1.719424   -1.793655    0.518395
      7          1           0       -1.262706   -1.498987   -1.155576
      8          1           0       -3.012801   -3.135925   -1.926470
      9          1           0       -3.472114   -3.432268   -0.242988
     10          1           0       -1.866387   -3.910341   -0.819526
     11          6           0       -2.651613    0.715289   -0.219515
     12          6           0       -3.714386    1.810301   -0.316722
     13          6           0       -3.179821    3.189090    0.071833
     14          1           0       -2.261841    0.682433    0.807321
     15          1           0       -1.803909    0.977374   -0.867322
     16          1           0       -4.559742    1.545485    0.331244
     17          1           0       -4.103024    1.840153   -1.342727
     18          1           0       -2.350334    3.478766   -0.581344
     19          1           0       -2.809647    3.182423    1.102138
     20          1           0       -3.956061    3.956838   -0.004806
     21          6           0        2.366106    0.190124    0.902829
     22          6           0        1.535424   -0.979268    1.432429
     23          6           0        0.448982   -0.536432    2.412905
     24          1           0        2.826946    0.717306    1.749380
     25          1           0        1.699034    0.911611    0.411030
     26          1           0        2.204038   -1.699005    1.921868
     27          1           0        1.076664   -1.503844    0.584505
     28          1           0       -0.241190    0.164493    1.932314
     29          1           0        0.892589   -0.031777    3.277276
     30          1           0       -0.132763   -1.388132    2.779017
     31          6           0        3.456342   -0.236622   -0.078497
     32          6           0        4.287023    0.932770   -0.608097
     33          6           0        5.373467    0.489934   -1.588573
     34          1           0        4.123415   -0.958109    0.413302
     35          1           0        2.995503   -0.763805   -0.925049
     36          1           0        4.745784    1.457346    0.239827
     37          1           0        3.618411    1.652507   -1.097537
     38          1           0        4.929860   -0.014721   -2.452944
     39          1           0        6.063639   -0.210991   -1.107982
     40          1           0        5.955212    1.341634   -1.954685
 ---------------------------------------------------------------------

 SCF Done:  E(RHF) =  -470.732763938     A.U. after   11 cycles
 E2 =    -0.1584071394D+01 EUMP2 =    -0.47231683533211D+03

 The electronic state is 1-A.
 Alpha  occ. eigenvalues --  -11.21633 -11.21596 -11.21588 -11.21527 -11.21440
 Alpha  occ. eigenvalues --  -11.21380 -11.21374 -11.21311 -11.21100 -11.21087
 Alpha  occ. eigenvalues --  -11.21063 -11.21015  -1.08479  -1.08385  -1.03570
 Alpha  occ. eigenvalues --   -1.03485  -0.96012  -0.95956  -0.87024  -0.86977
 Alpha  occ. eigenvalues --   -0.79655  -0.79539  -0.78299  -0.78206  -0.65156
 Alpha  occ. eigenvalues --   -0.64983  -0.60987  -0.60885  -0.59432  -0.59266
 Alpha  occ. eigenvalues --   -0.57711  -0.57484  -0.55370  -0.55196  -0.52704
 Alpha  occ. eigenvalues --   -0.52649  -0.52493  -0.52331  -0.49995  -0.49885
 Alpha  occ. eigenvalues --   -0.47965  -0.47910  -0.46649  -0.46615  -0.45939
 Alpha  occ. eigenvalues --   -0.45760  -0.45627  -0.45451  -0.43811  -0.43755
 Alpha virt. eigenvalues --    0.20982   0.23224   0.23616   0.24160   0.25503
 Alpha virt. eigenvalues --    0.26140   0.26978   0.28139   0.28211   0.29065
 Alpha virt. eigenvalues --    0.30750   0.31098   0.31680   0.32055   0.32163

 Mulliken charges:
               1
     1  C   -0.297643
     2  C   -0.306533
     3  C   -0.475695
     4  H    0.149710
     5  H    0.149476
     6  H    0.160662
     7  H    0.151298
     8  H    0.155084
     9  H    0.155220
    10  H    0.160258
    11  C   -0.304994
    12  C   -0.298936
    13  C   -0.475898
    14  H    0.156025
    15  H    0.148614
    16  H    0.152169
    17  H    0.152040
    18  H    0.154963
    19  H    0.155288
    20  H    0.160531
    21  C   -0.298646
    22  C   -0.302493
    23  C   -0.483046
    24  H    0.149414
    25  H    0.149994
    26  H    0.151309
    27  H    0.156447
    28  H    0.162326
    29  H    0.154999
    30  H    0.158639
    31  C   -0.298228
    32  C   -0.299593
    33  C   -0.475674
    34  H    0.149489
    35  H    0.149266
    36  H    0.151987
    37  H    0.151750
    38  H    0.155036
    39  H    0.155193
    40  H    0.160195
 Sum of Mulliken charges =  -0.00000

 Dipole moment (field-independent basis, Debye):
    X=             -0.0350    Y=              0.0017    Z=              0.0045  Tot=              0.0353
 Quadrupole moment (field-independent basis, Debye-Ang):
   XX=            -85.0317   YY=            -85.9156   ZZ=            -83.8955
   XY=             -0.1445   XZ=              0.7239   YZ=             -0.6314

 Normal termination of Gaussian 16 at Thu May  6 04:00:11 2021.
