 Gaussian 16, Revision A.03,
 Gaussian 16:  EM64L-G16RevA.03 25-Dec-2016

 -------------
 #p 6-31g* mp2
 -------------

 ------------------------------------------------------
 Input file generated by CHIRIPA (05-May-2021 14:57:24)
 ------------------------------------------------------
 Symbolic Z-matrix:
 Charge =  0 Multiplicity = 1

                         Standard orientation:
 ---------------------------------------------------------------------
 Center     Atomic      Atomic             Coordinates (Angstroms)
 Number     Number       Type             X           Y           Z
 ---------------------------------------------------------------------
      1          6           0        3.404393    2.487367   -0.517954
      2          6           0        2.487588    2.188574    0.495315
      3          6           0        2.290105    0.867224    0.907119
      4          6           0        3.029645   -0.135075    0.281204
      5          6           0        3.950397    0.130725   -0.731148
      6          6           0        4.131589    1.459301   -1.126877
      7          1           0        3.551475    3.516630   -0.831610
      8          1           0        1.921450    2.984949    0.969991
      9          1           0        1.586801    0.607764    1.689079
     10          1           0        4.500117   -0.684571   -1.185590
     11          1           0        4.844269    1.688398   -1.914055
     12          7           0        2.829202   -1.537754    0.708654
     13          8           0        3.493092   -2.402688    0.141402
     14          8           0        2.011998   -1.745680    1.602848
     15          6           0       -5.190348    1.061388    0.495762
     16          6           0       -5.231188   -0.259179    0.036466
     17          6           0       -4.058533   -0.910433   -0.357613
     18          6           0       -2.856985   -0.208006   -0.279059
     19          6           0       -2.783750    1.108244    0.174165
     20          6           0       -3.968913    1.739690    0.563027
     21          1           0       -6.106153    1.559604    0.799866
     22          1           0       -6.178345   -0.788420   -0.016840
     23          1           0       -4.061433   -1.932300   -0.717053
     24          1           0       -1.824568    1.609876    0.216059
     25          1           0       -3.934186    2.765311    0.919316
     26          7           0       -1.608928   -0.886974   -0.693492
     27          8           0       -0.563033   -0.246234   -0.614792
     28          8           0       -1.700227   -2.047033   -1.089176
 ---------------------------------------------------------------------

 SCF Done:  E(RHF) =  -868.337268015     A.U. after   16 cycles
 E2 =    -0.2600711201D+01 EUMP2 =    -0.87093797921593D+03

 The electronic state is 1-A.
 Alpha  occ. eigenvalues --  -20.60732 -20.60689 -20.59540 -20.59522 -15.85759
 Alpha  occ. eigenvalues --  -15.84598 -11.31226 -11.30038 -11.27858 -11.27764
 Alpha  occ. eigenvalues --  -11.27556 -11.26873 -11.26808 -11.26706 -11.26702
 Alpha  occ. eigenvalues --  -11.26562 -11.25808 -11.25767  -1.59764  -1.58582
 Alpha  occ. eigenvalues --   -1.39326  -1.38146  -1.19402  -1.18267  -1.08776
 Alpha  occ. eigenvalues --   -1.07662  -1.04828  -1.03734  -0.95600  -0.94483
 Alpha  occ. eigenvalues --   -0.86220  -0.85136  -0.82439  -0.81349  -0.77475
 Alpha  occ. eigenvalues --   -0.76347  -0.72010  -0.71080  -0.70848  -0.70518
 Alpha  occ. eigenvalues --   -0.69842  -0.69459  -0.65061  -0.64836  -0.63970
 Alpha  occ. eigenvalues --   -0.63803  -0.62184  -0.61110  -0.55319  -0.54300
 Alpha  occ. eigenvalues --   -0.53140  -0.52928  -0.51991  -0.51881  -0.48763
 Alpha  occ. eigenvalues --   -0.48716  -0.47602  -0.47574  -0.44720  -0.43526
 Alpha  occ. eigenvalues --   -0.37378  -0.36434  -0.36248  -0.35293
 Alpha virt. eigenvalues --    0.05066   0.06261   0.11220   0.12354   0.16561
 Alpha virt. eigenvalues --    0.17658   0.21194   0.22202   0.26870   0.27701
 Alpha virt. eigenvalues --    0.28589   0.29172   0.30992   0.31668   0.32513

 Mulliken charges:
               1
     1  C   -0.170629
     2  C   -0.221149
     3  C   -0.152560
     4  C    0.167172
     5  C   -0.169362
     6  C   -0.219229
     7  H    0.219919
     8  H    0.213538
     9  H    0.271327
    10  H    0.273746
    11  H    0.219215
    12  N    0.491869
    13  O   -0.463735
    14  O   -0.461010
    15  C   -0.170938
    16  C   -0.218225
    17  C   -0.170044
    18  C    0.160209
    19  C   -0.170755
    20  C   -0.218021
    21  H    0.225496
    22  H    0.224238
    23  H    0.277579
    24  H    0.269178
    25  H    0.221249
    26  N    0.493136
    27  O   -0.468381
    28  O   -0.453833
 Sum of Mulliken charges =  -0.00000

 Dipole moment (field-independent basis, Debye):
    X=             -3.9329    Y=              7.0040    Z=             -0.0922  Tot=              8.0332
 Quadrupole moment (field-independent basis, Debye-Ang):
   XX=            -73.1509   YY=           -104.6371   ZZ=           -105.4691
   XY=             10.0760   XZ=             -9.4021   YZ=              2.9267

 Normal termination of Gaussian 16 at Thu May  6 00:19:47 2021.
