 Gaussian 16, Revision A.03,
 Gaussian 16:  EM64L-G16RevA.03 25-Dec-2016

 -------------
 #p 6-31g* mp2
 -------------

 ------------------------------------------------------
 Input file generated by CHIRIPA (05-May-2021 14:57:24)
 ------------------------------------------------------
 Symbolic Z-matrix:
 Charge =  0 Multiplicity = 1

                         Standard orientation:
 ---------------------------------------------------------------------
 Center     Atomic      Atomic             Coordinates (Angstroms)
 Number     Number       Type             X           Y           Z
 ---------------------------------------------------------------------
      1          6           0       -4.877062   -2.191422    0.227918
      2          6           0       -5.649350   -1.208803   -0.400215
      3          6           0       -5.153848    0.088573   -0.560969
      4          6           0       -3.876225    0.369853   -0.079461
      5          6           0       -3.082562   -0.587387    0.550682
      6          6           0       -3.598387   -1.878131    0.700529
      7          1           0       -5.269873   -3.196679    0.348559
      8          1           0       -6.642723   -1.449255   -0.768234
      9          1           0       -5.730363    0.868491   -1.043438
     10          1           0       -2.095874   -0.317618    0.907178
     11          1           0       -2.996379   -2.639233    1.188745
     12          7           0       -3.340902    1.739816   -0.243871
     13          8           0       -2.212312    1.962233    0.189088
     14          8           0       -4.060042    2.565236   -0.802581
     15          6           0        1.530143   -0.316696    0.692878
     16          6           0        2.071998   -1.202802   -0.243994
     17          6           0        3.419489   -1.116406   -0.606415
     18          6           0        4.199792   -0.127377   -0.009558
     19          6           0        3.689170    0.770106    0.926967
     20          6           0        2.339032    0.665199    1.274343
     21          1           0        0.482351   -0.391000    0.968573
     22          1           0        1.446173   -1.966349   -0.697188
     23          1           0        3.864777   -1.789489   -1.328978
     24          1           0        4.337986    1.520776    1.361650
     25          1           0        1.920925    1.354714    2.002217
     26          7           0        5.627723   -0.026116   -0.385274
     27          8           0        6.294096    0.854058    0.154982
     28          8           0        6.053522   -0.828839   -1.212901
 ---------------------------------------------------------------------

 SCF Done:  E(RHF) =  -868.337302662     A.U. after   16 cycles
 E2 =    -0.2599480519D+01 EUMP2 =    -0.87093678318039D+03

 The electronic state is 1-A.
 Alpha  occ. eigenvalues --  -20.61606 -20.61571 -20.60595 -20.60587 -15.86645
 Alpha  occ. eigenvalues --  -15.85646 -11.32049 -11.31002 -11.28733 -11.28539
 Alpha  occ. eigenvalues --  -11.28293 -11.27660 -11.27594 -11.27551 -11.27530
 Alpha  occ. eigenvalues --  -11.27384 -11.26653 -11.26531  -1.60659  -1.59669
 Alpha  occ. eigenvalues --   -1.40217  -1.39223  -1.20204  -1.19175  -1.09577
 Alpha  occ. eigenvalues --   -1.08583  -1.05624  -1.04574  -0.96420  -0.95422
 Alpha  occ. eigenvalues --   -0.87013  -0.85978  -0.83258  -0.82252  -0.78322
 Alpha  occ. eigenvalues --   -0.77286  -0.72866  -0.71978  -0.71867  -0.71328
 Alpha  occ. eigenvalues --   -0.70990  -0.70327  -0.65857  -0.65620  -0.64836
 Alpha  occ. eigenvalues --   -0.64582  -0.62994  -0.61921  -0.56096  -0.55144
 Alpha  occ. eigenvalues --   -0.53927  -0.53693  -0.52899  -0.52673  -0.49634
 Alpha  occ. eigenvalues --   -0.49605  -0.48625  -0.48621  -0.45613  -0.44630
 Alpha  occ. eigenvalues --   -0.38150  -0.37225  -0.37156  -0.36164
 Alpha virt. eigenvalues --    0.04233   0.05244   0.10425   0.11491   0.15746
 Alpha virt. eigenvalues --    0.16724   0.18429   0.21896   0.24780   0.26999
 Alpha virt. eigenvalues --    0.27527   0.29174   0.30360   0.30896   0.32723

 Mulliken charges:
               1
     1  C   -0.170195
     2  C   -0.218063
     3  C   -0.169223
     4  C    0.159363
     5  C   -0.177351
     6  C   -0.220777
     7  H    0.228438
     8  H    0.226725
     9  H    0.278282
    10  H    0.274025
    11  H    0.222753
    12  N    0.487488
    13  O   -0.465541
    14  O   -0.455540
    15  C   -0.168024
    16  C   -0.220696
    17  C   -0.170745
    18  C    0.158629
    19  C   -0.170713
    20  C   -0.218533
    21  H    0.223945
    22  H    0.219572
    23  H    0.274636
    24  H    0.276263
    25  H    0.228580
    26  N    0.487999
    27  O   -0.459958
    28  O   -0.461338
 Sum of Mulliken charges =  -0.00000

 Dipole moment (field-independent basis, Debye):
    X=             -7.1802    Y=             -5.0927    Z=              1.8623  Tot=              8.9977
 Quadrupole moment (field-independent basis, Debye-Ang):
   XX=           -128.1252   YY=           -105.6598   ZZ=           -103.1225
   XY=             16.8794   XZ=              6.5459   YZ=              2.5457

 Normal termination of Gaussian 16 at Thu May  6 16:21:30 2021.
