 Gaussian 16, Revision A.03,
 Gaussian 16:  EM64L-G16RevA.03 25-Dec-2016

 -------------
 #p 6-31g* mp2
 -------------

 ------------------------------------------------------
 Input file generated by CHIRIPA (05-May-2021 14:51:14)
 ------------------------------------------------------
 Symbolic Z-matrix:
 Charge =  0 Multiplicity = 1

                         Standard orientation:
 ---------------------------------------------------------------------
 Center     Atomic      Atomic             Coordinates (Angstroms)
 Number     Number       Type             X           Y           Z
 ---------------------------------------------------------------------
      1          6           0       -3.896666   -0.195326   -0.447345
      2          6           0       -3.857848   -1.603999    0.146051
      3          6           0       -5.174754   -2.359031   -0.036921
      4          1           0       -4.713565    0.370581    0.021025
      5          1           0       -4.136347   -0.262310   -1.517607
      6          1           0       -3.616949   -1.534464    1.214577
      7          1           0       -3.040825   -2.166557   -0.323649
      8          1           0       -5.417648   -2.457921   -1.099853
      9          1           0       -5.997046   -1.822237    0.447113
     10          1           0       -5.124860   -3.363613    0.394572
     11          6           0       -2.587391    0.572066   -0.272310
     12          6           0       -2.626210    1.980739   -0.865706
     13          6           0       -1.309303    2.735771   -0.682734
     14          1           0       -2.347711    0.639051    0.797952
     15          1           0       -1.770492    0.006159   -0.740680
     16          1           0       -3.443233    2.543297   -0.396006
     17          1           0       -2.867108    1.911205   -1.934232
     18          1           0       -0.487011    2.198977   -1.166768
     19          1           0       -1.066409    2.834661    0.380198
     20          1           0       -1.359198    3.740353   -1.114227
     21          6           0        2.902320    0.174731    0.939644
     22          6           0        1.382014    0.011781    0.949757
     23          6           0        0.716751    0.743881    2.115626
     24          1           0        3.310914   -0.197321    1.889156
     25          1           0        3.149141    1.244356    0.890899
     26          1           0        1.138131   -1.057283    0.997073
     27          1           0        0.977010    0.384089    0.000034
     28          1           0        0.930922    1.816542    2.069486
     29          1           0        1.092960    0.366980    3.072189
     30          1           0       -0.369925    0.614069    2.103570
     31          6           0        3.581738   -0.551472   -0.219989
     32          6           0        5.102044   -0.388522   -0.230102
     33          6           0        5.767307   -1.120621   -1.395971
     34          1           0        3.334915   -1.621097   -0.171244
     35          1           0        3.173143   -0.179419   -1.169500
     36          1           0        5.507047   -0.760830    0.719622
     37          1           0        5.345925    0.680543   -0.277417
     38          1           0        5.391096   -0.743721   -2.352534
     39          1           0        5.553134   -2.193282   -1.349830
     40          1           0        6.853982   -0.990809   -1.383915
 ---------------------------------------------------------------------

 SCF Done:  E(RHF) =  -470.732412726     A.U. after   11 cycles
 E2 =    -0.1584265074D+01 EUMP2 =    -0.47231667780052D+03

 The electronic state is 1-A.
 Alpha  occ. eigenvalues --  -11.21610 -11.21609 -11.21583 -11.21513 -11.21404
 Alpha  occ. eigenvalues --  -11.21372 -11.21343 -11.21306 -11.21076 -11.21060
 Alpha  occ. eigenvalues --  -11.21054 -11.20974  -1.08457  -1.08374  -1.03574
 Alpha  occ. eigenvalues --   -1.03448  -0.95992  -0.95935  -0.87005  -0.86963
 Alpha  occ. eigenvalues --   -0.79607  -0.79552  -0.78317  -0.78154  -0.65088
 Alpha  occ. eigenvalues --   -0.65019  -0.60945  -0.60914  -0.59509  -0.59168
 Alpha  occ. eigenvalues --   -0.57630  -0.57520  -0.55331  -0.55181  -0.52729
 Alpha  occ. eigenvalues --   -0.52637  -0.52485  -0.52262  -0.50047  -0.49777
 Alpha  occ. eigenvalues --   -0.47974  -0.47839  -0.46797  -0.46442  -0.45937
 Alpha  occ. eigenvalues --   -0.45717  -0.45686  -0.45441  -0.43791  -0.43694
 Alpha virt. eigenvalues --    0.20920   0.23066   0.23555   0.24565   0.25501
 Alpha virt. eigenvalues --    0.26326   0.26563   0.27714   0.27961   0.29566
 Alpha virt. eigenvalues --    0.30737   0.30809   0.31456   0.32023   0.32318

 Mulliken charges:
               1
     1  C   -0.297682
     2  C   -0.299674
     3  C   -0.475682
     4  H    0.149546
     5  H    0.149522
     6  H    0.151531
     7  H    0.152141
     8  H    0.155230
     9  H    0.155193
    10  H    0.160265
    11  C   -0.304651
    12  C   -0.299543
    13  C   -0.480385
    14  H    0.153854
    15  H    0.152188
    16  H    0.151786
    17  H    0.151716
    18  H    0.156085
    19  H    0.160060
    20  H    0.159799
    21  C   -0.298459
    22  C   -0.303010
    23  C   -0.480257
    24  H    0.149437
    25  H    0.149653
    26  H    0.151366
    27  H    0.156686
    28  H    0.155184
    29  H    0.154180
    30  H    0.164642
    31  C   -0.298111
    32  C   -0.299598
    33  C   -0.475685
    34  H    0.149367
    35  H    0.148978
    36  H    0.151960
    37  H    0.151991
    38  H    0.155058
    39  H    0.155098
    40  H    0.160221
 Sum of Mulliken charges =  -0.00000

 Dipole moment (field-independent basis, Debye):
    X=             -0.0257    Y=              0.0085    Z=             -0.0024  Tot=              0.0272
 Quadrupole moment (field-independent basis, Debye-Ang):
   XX=            -85.9433   YY=            -84.6371   ZZ=            -84.3315
   XY=             -0.4969   XZ=              0.1539   YZ=             -0.5384

 Normal termination of Gaussian 16 at Thu May  6 02:26:11 2021.
