 Gaussian 16, Revision A.03,
 Gaussian 16:  EM64L-G16RevA.03 25-Dec-2016

 -------------
 #p 6-31g* mp2
 -------------

 ------------------------------------------------------
 Input file generated by CHIRIPA (05-May-2021 14:53:15)
 ------------------------------------------------------
 Symbolic Z-matrix:
 Charge =  0 Multiplicity = 1

                         Standard orientation:
 ---------------------------------------------------------------------
 Center     Atomic      Atomic             Coordinates (Angstroms)
 Number     Number       Type             X           Y           Z
 ---------------------------------------------------------------------
      1          6           0       -3.160035   -0.460169   -0.372126
      2          6           0       -4.381972   -0.975670    0.388869
      3          6           0       -4.609044   -2.475366    0.196142
      4          1           0       -3.282702   -0.679432   -1.441622
      5          1           0       -2.270043   -1.012386   -0.039914
      6          1           0       -5.269176   -0.421689    0.056317
      7          1           0       -4.256470   -0.754983    1.456653
      8          1           0       -3.741465   -3.044395    0.545590
      9          1           0       -4.759925   -2.709207   -0.862703
     10          1           0       -5.487561   -2.822677    0.748811
     11          6           0       -2.919910    1.037383   -0.189350
     12          6           0       -1.697973    1.552884   -0.950345
     13          6           0       -1.470900    3.052580   -0.757619
     14          1           0       -3.809901    1.589601   -0.521562
     15          1           0       -2.797243    1.256646    0.880146
     16          1           0       -1.823475    1.332197   -2.018129
     17          1           0       -0.810769    0.998903   -0.617793
     18          1           0       -1.320020    3.286422    0.301227
     19          1           0       -2.338479    3.621609   -1.107066
     20          1           0       -0.592383    3.399891   -1.310288
     21          6           0        1.700948    2.071840    1.015540
     22          6           0        2.752951    1.927250    0.105096
     23          6           0        3.134992    0.659226   -0.342907
     24          6           0        2.440142   -0.447570    0.142352
     25          6           0        1.387849   -0.336090    1.049845
     26          6           0        1.022951    0.941701    1.484182
     27          1           0        1.410828    3.060666    1.358251
     28          1           0        3.281282    2.803156   -0.260553
     29          1           0        3.945749    0.518544   -1.047391
     30          1           0        0.880036   -1.227938    1.396472
     31          1           0        0.205569    1.050978    2.191281
     32          7           0        2.835517   -1.795141   -0.324695
     33          8           0        2.207436   -2.754440    0.117906
     34          8           0        3.766007   -1.866550   -1.124523
 ---------------------------------------------------------------------

 SCF Done:  E(RHF) =  -669.534450761     A.U. after   15 cycles
 E2 =    -0.2094258015D+01 EUMP2 =    -0.67162870877645D+03

 The electronic state is 1-A.
 Alpha  occ. eigenvalues --  -20.60837 -20.60831 -15.85892 -11.31295 -11.27861
 Alpha  occ. eigenvalues --  -11.27854 -11.27573 -11.26873 -11.26862 -11.21839
 Alpha  occ. eigenvalues --  -11.21821 -11.21765 -11.21658 -11.21648 -11.21171
 Alpha  occ. eigenvalues --   -1.59911  -1.39464  -1.19477  -1.08880  -1.08725
 Alpha  occ. eigenvalues --   -1.04890  -1.03828  -0.96319  -0.95675  -0.87327
 Alpha  occ. eigenvalues --   -0.86270  -0.82514  -0.79891  -0.78552  -0.77560
 Alpha  occ. eigenvalues --   -0.72109  -0.71235  -0.70558  -0.65449  -0.65119
 Alpha  occ. eigenvalues --   -0.64853  -0.62223  -0.61279  -0.59688  -0.57911
 Alpha  occ. eigenvalues --   -0.55713  -0.55305  -0.53230  -0.52963  -0.52937
 Alpha  occ. eigenvalues --   -0.52722  -0.50256  -0.48870  -0.48862  -0.48198
 Alpha  occ. eigenvalues --   -0.46912  -0.46098  -0.46015  -0.44861  -0.44097
 Alpha  occ. eigenvalues --   -0.37401  -0.36404
 Alpha virt. eigenvalues --    0.04946   0.11067   0.16381   0.19838   0.23004
 Alpha virt. eigenvalues --    0.23993   0.25641   0.26175   0.27060   0.28347
 Alpha virt. eigenvalues --    0.29265   0.30364   0.31150   0.31356   0.31913

 Mulliken charges:
               1
     1  C   -0.298469
     2  C   -0.299617
     3  C   -0.476113
     4  H    0.153148
     5  H    0.147966
     6  H    0.152469
     7  H    0.148873
     8  H    0.157210
     9  H    0.157024
    10  H    0.160575
    11  C   -0.297726
    12  C   -0.307674
    13  C   -0.473428
    14  H    0.150870
    15  H    0.141176
    16  H    0.154076
    17  H    0.163551
    18  H    0.143240
    19  H    0.157149
    20  H    0.158818
    21  C   -0.165678
    22  C   -0.219420
    23  C   -0.170775
    24  C    0.160224
    25  C   -0.172774
    26  C   -0.220905
    27  H    0.227400
    28  H    0.224160
    29  H    0.276116
    30  H    0.275944
    31  H    0.224717
    32  N    0.488156
    33  O   -0.460292
    34  O   -0.459989
 Sum of Mulliken charges =  -0.00000

 Dipole moment (field-independent basis, Debye):
    X=             -1.3196    Y=              4.6710    Z=              1.5781  Tot=              5.1039
 Quadrupole moment (field-independent basis, Debye-Ang):
   XX=            -99.0158   YY=           -100.0064   ZZ=            -92.5281
   XY=             13.9414   XZ=              2.1865   YZ=             -1.5804

 Normal termination of Gaussian 16 at Thu May  6 13:49:43 2021.
