 Gaussian 16, Revision A.03,
 Gaussian 16:  EM64L-G16RevA.03 25-Dec-2016

 -------------
 #p 6-31g* mp2
 -------------

 ------------------------------------------------------
 Input file generated by CHIRIPA (05-May-2021 14:51:08)
 ------------------------------------------------------
 Symbolic Z-matrix:
 Charge =  0 Multiplicity = 1

                         Standard orientation:
 ---------------------------------------------------------------------
 Center     Atomic      Atomic             Coordinates (Angstroms)
 Number     Number       Type             X           Y           Z
 ---------------------------------------------------------------------
      1          6           0        2.493736   -1.232330   -0.072956
      2          6           0        1.168681   -1.335868    0.683016
      3          6           0        0.389290   -2.605434    0.338712
      4          1           0        2.295501   -1.260989   -1.153154
      5          1           0        3.108133   -2.114192    0.155585
      6          1           0        0.557532   -0.453396    0.454200
      7          1           0        1.370077   -1.306766    1.761537
      8          1           0        0.976596   -3.496342    0.583571
      9          1           0        0.159435   -2.638123   -0.731194
     10          1           0       -0.554511   -2.659113    0.890271
     11          6           0        3.284376    0.031528    0.260630
     12          6           0        4.609431    0.135065   -0.495342
     13          6           0        5.388821    1.404632   -0.151038
     14          1           0        2.669979    0.913390    0.032089
     15          1           0        3.482610    0.060187    1.340828
     16          1           0        4.408035    0.105963   -1.573863
     17          1           0        5.220579   -0.747407   -0.266526
     18          1           0        5.618676    1.437320    0.918869
     19          1           0        4.801515    2.295539   -0.395897
     20          1           0        6.332623    1.458310   -0.702596
     21          6           0       -2.956252    1.277040    0.254125
     22          6           0       -2.116845    2.378360   -0.394316
     23          6           0       -2.261844    3.726101    0.313048
     24          1           0       -4.011916    1.581206    0.253837
     25          1           0       -2.661245    1.172953    1.307469
     26          1           0       -2.412386    2.479390   -1.446487
     27          1           0       -1.063080    2.071453   -0.392657
     28          1           0       -1.947999    3.647944    1.358990
     29          1           0       -3.304972    4.058200    0.299172
     30          1           0       -1.653351    4.498920   -0.166897
     31          6           0       -2.821860   -0.076237   -0.441799
     32          6           0       -3.661266   -1.177557    0.206641
     33          6           0       -3.516268   -2.525298   -0.500722
     34          1           0       -3.116867    0.027850   -1.495143
     35          1           0       -1.766196   -0.380402   -0.441511
     36          1           0       -4.715032   -0.870650    0.204982
     37          1           0       -3.365725   -1.278588    1.258812
     38          1           0       -2.473139   -2.857397   -0.486847
     39          1           0       -3.830112   -2.447142   -1.546664
     40          1           0       -4.124760   -3.298117   -0.020777
 ---------------------------------------------------------------------

 SCF Done:  E(RHF) =  -470.732332922     A.U. after   11 cycles
 E2 =    -0.1584425305D+01 EUMP2 =    -0.47231675822779D+03

 The electronic state is 1-A.
 Alpha  occ. eigenvalues --  -11.21709 -11.21641 -11.21625 -11.21552 -11.21472
 Alpha  occ. eigenvalues --  -11.21411 -11.21375 -11.21299 -11.21172 -11.21100
 Alpha  occ. eigenvalues --  -11.21080 -11.20908  -1.08515  -1.08396  -1.03631
 Alpha  occ. eigenvalues --   -1.03481  -0.96073  -0.95932  -0.87104  -0.86938
 Alpha  occ. eigenvalues --   -0.79699  -0.79545  -0.78330  -0.78211  -0.65309
 Alpha  occ. eigenvalues --   -0.64920  -0.61147  -0.60848  -0.59428  -0.59264
 Alpha  occ. eigenvalues --   -0.57653  -0.57560  -0.55365  -0.55261  -0.52804
 Alpha  occ. eigenvalues --   -0.52631  -0.52476  -0.52317  -0.50084  -0.49800
 Alpha  occ. eigenvalues --   -0.47994  -0.47865  -0.46751  -0.46543  -0.46010
 Alpha  occ. eigenvalues --   -0.45810  -0.45727  -0.45437  -0.43831  -0.43747
 Alpha virt. eigenvalues --    0.19908   0.22849   0.23428   0.24604   0.25921
 Alpha virt. eigenvalues --    0.26793   0.26863   0.27562   0.28189   0.29550
 Alpha virt. eigenvalues --    0.30323   0.31026   0.31793   0.32165   0.32213

 Mulliken charges:
               1
     1  C   -0.298331
     2  C   -0.305705
     3  C   -0.481265
     4  H    0.150168
     5  H    0.149965
     6  H    0.155829
     7  H    0.152527
     8  H    0.156530
     9  H    0.156738
    10  H    0.164686
    11  C   -0.298488
    12  C   -0.299726
    13  C   -0.475776
    14  H    0.149426
    15  H    0.149788
    16  H    0.152161
    17  H    0.152054
    18  H    0.155219
    19  H    0.155331
    20  H    0.160425
    21  C   -0.297759
    22  C   -0.300903
    23  C   -0.475661
    24  H    0.149756
    25  H    0.149544
    26  H    0.152032
    27  H    0.151505
    28  H    0.155438
    29  H    0.155382
    30  H    0.160104
    31  C   -0.306878
    32  C   -0.299104
    33  C   -0.483355
    34  H    0.149115
    35  H    0.158882
    36  H    0.151892
    37  H    0.150717
    38  H    0.164244
    39  H    0.154195
    40  H    0.159297
 Sum of Mulliken charges =  -0.00000

 Dipole moment (field-independent basis, Debye):
    X=              0.0674    Y=             -0.0239    Z=              0.0044  Tot=              0.0716
 Quadrupole moment (field-independent basis, Debye-Ang):
   XX=            -84.5903   YY=            -86.2692   ZZ=            -84.0113
   XY=             -1.1220   XZ=              0.7270   YZ=             -1.0858

 Normal termination of Gaussian 16 at Wed May  5 19:41:06 2021.
