 Gaussian 16, Revision A.03,
 Gaussian 16:  EM64L-G16RevA.03 25-Dec-2016

 -------------
 #p 6-31g* mp2
 -------------

 ------------------------------------------------------
 Input file generated by CHIRIPA (05-May-2021 14:53:18)
 ------------------------------------------------------
 Symbolic Z-matrix:
 Charge =  0 Multiplicity = 1

                         Standard orientation:
 ---------------------------------------------------------------------
 Center     Atomic      Atomic             Coordinates (Angstroms)
 Number     Number       Type             X           Y           Z
 ---------------------------------------------------------------------
      1          6           0        2.810442    0.267318   -0.413448
      2          6           0        3.724123   -0.560516    0.490911
      3          6           0        4.190574   -1.858490   -0.168999
      4          1           0        1.937233   -0.337430   -0.694040
      5          1           0        3.342463    0.499796   -1.346348
      6          1           0        3.191030   -0.790189    1.422403
      7          1           0        4.595163    0.046338    0.769538
      8          1           0        4.745455   -1.645440   -1.088411
      9          1           0        3.333344   -2.486720   -0.431836
     10          1           0        4.842543   -2.434667    0.494942
     11          6           0        2.335848    1.567900    0.232288
     12          6           0        1.422167    2.395733   -0.672071
     13          6           0        0.955716    3.693707   -0.012161
     14          1           0        1.803827    1.335421    1.165188
     15          1           0        3.209056    2.172647    0.512880
     16          1           0        0.551127    1.788879   -0.950698
     17          1           0        1.955260    2.625406   -1.603563
     18          1           0        1.812946    4.321938    0.250676
     19          1           0        0.400835    3.480657    0.907250
     20          1           0        0.303747    4.269884   -0.676102
     21          6           0       -4.036967    0.785124    0.021786
     22          6           0       -3.644928    0.100581   -1.133301
     23          6           0       -2.523653   -0.734312   -1.117743
     24          6           0       -1.814336   -0.862091    0.075501
     25          6           0       -2.179786   -0.193348    1.242771
     26          6           0       -3.304435    0.636238    1.204051
     27          1           0       -4.909312    1.431627    0.000705
     28          1           0       -4.211925    0.214307   -2.052881
     29          1           0       -2.197961   -1.275984   -1.997479
     30          1           0       -1.594576   -0.326753    2.144520
     31          1           0       -3.606571    1.166634    2.102627
     32          7           0       -0.625505   -1.743144    0.104231
     33          8           0       -0.017481   -1.838799    1.168089
     34          8           0       -0.324234   -2.321377   -0.937652
 ---------------------------------------------------------------------

 SCF Done:  E(RHF) =  -669.536769410     A.U. after   15 cycles
 E2 =    -0.2093066708D+01 EUMP2 =    -0.67162983611743D+03

 The electronic state is 1-A.
 Alpha  occ. eigenvalues --  -20.61090 -20.61083 -15.86089 -11.31387 -11.27935
 Alpha  occ. eigenvalues --  -11.27931 -11.27651 -11.26920 -11.26910 -11.21251
 Alpha  occ. eigenvalues --  -11.20923 -11.20730 -11.20379 -11.20314 -11.19694
 Alpha  occ. eigenvalues --   -1.60138  -1.39691  -1.19538  -1.08949  -1.07637
 Alpha  occ. eigenvalues --   -1.04923  -1.02718  -0.95797  -0.95188  -0.86326
 Alpha  occ. eigenvalues --   -0.86210  -0.82631  -0.78861  -0.77696  -0.77365
 Alpha  occ. eigenvalues --   -0.72309  -0.71477  -0.70640  -0.65191  -0.64923
 Alpha  occ. eigenvalues --   -0.64242  -0.62270  -0.60099  -0.58638  -0.56778
 Alpha  occ. eigenvalues --   -0.55425  -0.54464  -0.53254  -0.53012  -0.51927
 Alpha  occ. eigenvalues --   -0.51602  -0.49173  -0.49082  -0.49033  -0.47154
 Alpha  occ. eigenvalues --   -0.45898  -0.45192  -0.44906  -0.44657  -0.42976
 Alpha  occ. eigenvalues --   -0.37503  -0.36517
 Alpha virt. eigenvalues --    0.04789   0.11123   0.16268   0.21228   0.23271
 Alpha virt. eigenvalues --    0.25195   0.26947   0.27212   0.27978   0.28386
 Alpha virt. eigenvalues --    0.28773   0.31004   0.32126   0.32254   0.32365

 Mulliken charges:
               1
     1  C   -0.301500
     2  C   -0.298339
     3  C   -0.479484
     4  H    0.159809
     5  H    0.144909
     6  H    0.161191
     7  H    0.143950
     8  H    0.148281
     9  H    0.172529
    10  H    0.155430
    11  C   -0.299325
    12  C   -0.298771
    13  C   -0.473951
    14  H    0.149335
    15  H    0.147287
    16  H    0.147448
    17  H    0.151730
    18  H    0.155484
    19  H    0.151164
    20  H    0.156661
    21  C   -0.170065
    22  C   -0.218399
    23  C   -0.171187
    24  C    0.158935
    25  C   -0.171160
    26  C   -0.218268
    27  H    0.226515
    28  H    0.224310
    29  H    0.276391
    30  H    0.275883
    31  H    0.224306
    32  N    0.486976
    33  O   -0.459243
    34  O   -0.458835
 Sum of Mulliken charges =  -0.00000

 Dipole moment (field-independent basis, Debye):
    X=             -4.4150    Y=              2.8796    Z=             -0.0712  Tot=              5.2715
 Quadrupole moment (field-independent basis, Debye-Ang):
   XX=            -80.1552   YY=           -101.6042   ZZ=            -90.1348
   XY=             -1.4850   XZ=              0.6095   YZ=              1.0912

 Normal termination of Gaussian 16 at Wed May  5 20:26:58 2021.
