 Gaussian 16, Revision A.03,
 Gaussian 16:  EM64L-G16RevA.03 25-Dec-2016

 -------------
 #p 6-31g* mp2
 -------------

 ------------------------------------------------------
 Input file generated by CHIRIPA (05-May-2021 14:55:18)
 ------------------------------------------------------
 Symbolic Z-matrix:
 Charge =  0 Multiplicity = 1

                         Standard orientation:
 ---------------------------------------------------------------------
 Center     Atomic      Atomic             Coordinates (Angstroms)
 Number     Number       Type             X           Y           Z
 ---------------------------------------------------------------------
      1          6           0        3.178734   -2.434049    0.113027
      2          6           0        3.011542   -1.752298    1.322896
      3          6           0        2.875362   -0.361012    1.340959
      4          6           0        2.911150    0.319956    0.125109
      5          6           0        3.076330   -0.330792   -1.096584
      6          6           0        3.210539   -1.722375   -1.090729
      7          1           0        3.283756   -3.514948    0.108285
      8          1           0        2.986463   -2.302396    2.259277
      9          1           0        2.744694    0.191921    2.263244
     10          1           0        3.097334    0.244949   -2.013916
     11          1           0        3.340253   -2.249196   -2.031834
     12          7           0        2.768026    1.793005    0.131571
     13          8           0        2.802930    2.369826   -0.953185
     14          8           0        2.623652    2.342868    1.221270
     15          6           0       -4.466551    0.097639   -0.360337
     16          6           0       -5.514699   -0.247389    0.698117
     17          6           0       -6.930327    0.151679    0.280338
     18          1           0       -4.500221    1.176986   -0.562375
     19          1           0       -4.727329   -0.404917   -1.302053
     20          1           0       -5.251266    0.254558    1.637941
     21          1           0       -5.478399   -1.326011    0.897797
     22          1           0       -7.217715   -0.359591   -0.644114
     23          1           0       -6.989290    1.229958    0.100235
     24          1           0       -7.663627   -0.104071    1.051522
     25          6           0       -3.046380   -0.295218    0.042785
     26          6           0       -1.998232    0.049808   -1.015670
     27          6           0       -0.582604   -0.349258   -0.597891
     28          1           0       -2.785602    0.207338    0.984500
     29          1           0       -3.012711   -1.374567    0.244822
     30          1           0       -2.034533    1.128431   -1.215349
     31          1           0       -2.261666   -0.452138   -1.955493
     32          1           0       -0.523641   -1.427538   -0.417787
     33          1           0       -0.295217    0.162011    0.326562
     34          1           0        0.150695   -0.093509   -1.369075
 ---------------------------------------------------------------------

 SCF Done:  E(RHF) =  -669.534555105     A.U. after   15 cycles
 E2 =    -0.2093183065D+01 EUMP2 =    -0.67162773816954D+03

 The electronic state is 1-A.
 Alpha  occ. eigenvalues --  -20.60769 -20.60761 -15.85809 -11.31119 -11.27715
 Alpha  occ. eigenvalues --  -11.27701 -11.27473 -11.26747 -11.26737 -11.21528
 Alpha  occ. eigenvalues --  -11.21443 -11.21304 -11.21245 -11.20998 -11.20953
 Alpha  occ. eigenvalues --   -1.59837  -1.39393  -1.19328  -1.08729  -1.08328
 Alpha  occ. eigenvalues --   -1.04737  -1.03432  -0.95899  -0.95565  -0.86921
 Alpha  occ. eigenvalues --   -0.86137  -0.82405  -0.79506  -0.78144  -0.77453
 Alpha  occ. eigenvalues --   -0.72036  -0.71158  -0.70453  -0.64987  -0.64957
 Alpha  occ. eigenvalues --   -0.64746  -0.62091  -0.60830  -0.59293  -0.57506
 Alpha  occ. eigenvalues --   -0.55254  -0.55181  -0.53483  -0.52835  -0.52370
 Alpha  occ. eigenvalues --   -0.52108  -0.49843  -0.48794  -0.48791  -0.47820
 Alpha  occ. eigenvalues --   -0.46534  -0.45682  -0.45610  -0.44804  -0.43691
 Alpha  occ. eigenvalues --   -0.37242  -0.36279
 Alpha virt. eigenvalues --    0.05061   0.11227   0.16575   0.21402   0.22950
 Alpha virt. eigenvalues --    0.24312   0.26733   0.27210   0.27570   0.27809
 Alpha virt. eigenvalues --    0.28422   0.30865   0.31381   0.31587   0.31960

 Mulliken charges:
               1
     1  C   -0.171181
     2  C   -0.217227
     3  C   -0.172051
     4  C    0.166399
     5  C   -0.173969
     6  C   -0.216073
     7  H    0.225298
     8  H    0.223228
     9  H    0.275133
    10  H    0.274922
    11  H    0.223163
    12  N    0.488324
    13  O   -0.460991
    14  O   -0.461158
    15  C   -0.298331
    16  C   -0.299546
    17  C   -0.475686
    18  H    0.151629
    19  H    0.148579
    20  H    0.152493
    21  H    0.150436
    22  H    0.154656
    23  H    0.156128
    24  H    0.159805
    25  C   -0.298500
    26  C   -0.300276
    27  C   -0.476121
    28  H    0.150909
    29  H    0.146635
    30  H    0.156808
    31  H    0.149450
    32  H    0.151394
    33  H    0.155504
    34  H    0.160219
 Sum of Mulliken charges =  -0.00000

 Dipole moment (field-independent basis, Debye):
    X=              0.5533    Y=             -5.1613    Z=             -0.0174  Tot=              5.1909
 Quadrupole moment (field-independent basis, Debye-Ang):
   XX=            -93.9648   YY=            -97.9719   ZZ=            -89.6800
   XY=            -14.9856   XZ=             -0.6133   YZ=             -0.3288

 Normal termination of Gaussian 16 at Thu May  6 10:46:18 2021.
