 Gaussian 16, Revision A.03,
 Gaussian 16:  EM64L-G16RevA.03 25-Dec-2016

 -------------
 #p 6-31g* mp2
 -------------

 ------------------------------------------------------
 Input file generated by CHIRIPA (05-May-2021 14:55:19)
 ------------------------------------------------------
 Symbolic Z-matrix:
 Charge =  0 Multiplicity = 1

                         Standard orientation:
 ---------------------------------------------------------------------
 Center     Atomic      Atomic             Coordinates (Angstroms)
 Number     Number       Type             X           Y           Z
 ---------------------------------------------------------------------
      1          6           0        1.501242   -2.628996    0.982421
      2          6           0        2.349131   -2.626758   -0.130054
      3          6           0        2.828121   -1.422911   -0.655286
      4          6           0        2.437301   -0.234437   -0.040405
      5          6           0        1.593844   -0.203867    1.069070
      6          6           0        1.126964   -1.419675    1.577384
      7          1           0        1.133856   -3.568819    1.383863
      8          1           0        2.641458   -3.564416   -0.594154
      9          1           0        3.485689   -1.392238   -1.515566
     10          1           0        1.319900    0.746822    1.510165
     11          1           0        0.468604   -1.418379    2.441447
     12          7           0        2.937975    1.046353   -0.587490
     13          8           0        2.578919    2.079904   -0.027590
     14          8           0        3.679980    0.992433   -1.565835
     15          6           0       -2.341109    0.859673    0.152482
     16          6           0       -2.348137    2.383651    0.276692
     17          6           0       -0.994649    2.947698    0.709954
     18          1           0       -2.051183    0.420870    1.117023
     19          1           0       -1.569883    0.561285   -0.571099
     20          1           0       -3.120060    2.679154    0.998792
     21          1           0       -2.638265    2.818873   -0.688204
     22          1           0       -0.217040    2.681577   -0.013305
     23          1           0       -0.701572    2.541065    1.683275
     24          1           0       -1.022197    4.038706    0.792443
     25          6           0       -3.687137    0.280876   -0.279871
     26          6           0       -3.680110   -1.243101   -0.404080
     27          6           0       -5.033597   -1.807149   -0.837341
     28          1           0       -4.458364    0.579264    0.443711
     29          1           0       -3.977063    0.719680   -1.244412
     30          1           0       -3.389980   -1.678323    0.560816
     31          1           0       -2.908186   -1.538606   -1.126180
     32          1           0       -5.326675   -1.400517   -1.810663
     33          1           0       -5.811207   -1.541028   -0.114083
     34          1           0       -5.006048   -2.898156   -0.919832
 ---------------------------------------------------------------------

 SCF Done:  E(RHF) =  -669.535865107     A.U. after   15 cycles
 E2 =    -0.2092724948D+01 EUMP2 =    -0.67162859005523D+03

 The electronic state is 1-A.
 Alpha  occ. eigenvalues --  -20.60858 -20.60853 -15.85883 -11.31186 -11.27766
 Alpha  occ. eigenvalues --  -11.27725 -11.27498 -11.26765 -11.26749 -11.21862
 Alpha  occ. eigenvalues --  -11.21552 -11.21503 -11.21453 -11.21308 -11.20695
 Alpha  occ. eigenvalues --   -1.59922  -1.39477  -1.19361  -1.08770  -1.08533
 Alpha  occ. eigenvalues --   -1.04754  -1.03569  -0.96003  -0.95609  -0.87013
 Alpha  occ. eigenvalues --   -0.86155  -0.82446  -0.79645  -0.78371  -0.77478
 Alpha  occ. eigenvalues --   -0.72107  -0.71238  -0.70471  -0.65174  -0.65010
 Alpha  occ. eigenvalues --   -0.64762  -0.62113  -0.60961  -0.59393  -0.57619
 Alpha  occ. eigenvalues --   -0.55300  -0.55249  -0.53103  -0.52892  -0.52661
 Alpha  occ. eigenvalues --   -0.52372  -0.49957  -0.48874  -0.48864  -0.47931
 Alpha  occ. eigenvalues --   -0.46693  -0.45906  -0.45823  -0.44787  -0.43831
 Alpha  occ. eigenvalues --   -0.37343  -0.36327
 Alpha virt. eigenvalues --    0.04992   0.11249   0.16418   0.20644   0.22843
 Alpha virt. eigenvalues --    0.24023   0.25682   0.26755   0.27077   0.28193
 Alpha virt. eigenvalues --    0.29351   0.30844   0.31378   0.31705   0.32119

 Mulliken charges:
               1
     1  C   -0.170330
     2  C   -0.218993
     3  C   -0.170776
     4  C    0.155559
     5  C   -0.170900
     6  C   -0.218915
     7  H    0.225674
     8  H    0.223342
     9  H    0.275347
    10  H    0.282003
    11  H    0.223269
    12  N    0.487540
    13  O   -0.459114
    14  O   -0.459600
    15  C   -0.297347
    16  C   -0.300562
    17  C   -0.481470
    18  H    0.140156
    19  H    0.151743
    20  H    0.149738
    21  H    0.153935
    22  H    0.174395
    23  H    0.142737
    24  H    0.163589
    25  C   -0.298303
    26  C   -0.298700
    27  C   -0.475615
    28  H    0.149410
    29  H    0.151790
    30  H    0.146829
    31  H    0.152478
    32  H    0.156802
    33  H    0.155457
    34  H    0.158833
 Sum of Mulliken charges =  -0.00000

 Dipole moment (field-independent basis, Debye):
    X=             -1.6766    Y=             -4.4279    Z=              1.8161  Tot=              5.0710
 Quadrupole moment (field-independent basis, Debye-Ang):
   XX=           -103.6441   YY=            -91.8571   ZZ=            -92.0753
   XY=            -12.5918   XZ=              2.4038   YZ=              1.2724

 Normal termination of Gaussian 16 at Thu May  6 12:24:47 2021.
