 Gaussian 16, Revision A.03,
 Gaussian 16:  EM64L-G16RevA.03 25-Dec-2016

 -------------
 #p 6-31g* mp2
 -------------

 ------------------------------------------------------
 Input file generated by CHIRIPA (05-May-2021 14:51:09)
 ------------------------------------------------------
 Symbolic Z-matrix:
 Charge =  0 Multiplicity = 1

                         Standard orientation:
 ---------------------------------------------------------------------
 Center     Atomic      Atomic             Coordinates (Angstroms)
 Number     Number       Type             X           Y           Z
 ---------------------------------------------------------------------
      1          6           0       -3.008801   -0.183628    0.334410
      2          6           0       -4.387966    0.207897   -0.197189
      3          6           0       -5.046121    1.315691    0.625866
      4          1           0       -3.104429   -0.508814    1.379424
      5          1           0       -2.360716    0.703691    0.341230
      6          1           0       -5.032838   -0.680193   -0.204305
      7          1           0       -4.289072    0.532007   -1.241118
      8          1           0       -4.425851    2.217833    0.623274
      9          1           0       -5.173843    0.998745    1.665978
     10          1           0       -6.031005    1.579994    0.228365
     11          6           0       -2.338103   -1.289963   -0.477943
     12          6           0       -0.958938   -1.681489    0.053656
     13          6           0       -0.300783   -2.789282   -0.769399
     14          1           0       -2.986188   -2.177282   -0.484763
     15          1           0       -2.242475   -0.964777   -1.522957
     16          1           0       -1.057832   -2.005599    1.097585
     17          1           0       -0.314066   -0.793398    0.060772
     18          1           0       -0.173061   -2.472336   -1.809511
     19          1           0       -0.921053   -3.691424   -0.766807
     20          1           0        0.684101   -3.053585   -0.371898
     21          6           0        2.564976    1.341692   -0.381847
     22          6           0        1.881129    2.513507    0.323268
     23          6           0        1.671029    3.716150   -0.597222
     24          1           0        3.533666    1.675412   -0.778351
     25          1           0        1.959759    1.040326   -1.248037
     26          1           0        2.486750    2.811675    1.188678
     27          1           0        0.914039    2.176908    0.718306
     28          1           0        1.048073    3.440990   -1.454435
     29          1           0        2.629721    4.079363   -0.981392
     30          1           0        1.180752    4.542278   -0.072816
     31          6           0        2.781928    0.131899    0.525380
     32          6           0        3.465775   -1.039916   -0.179735
     33          6           0        3.675875   -2.242559    0.740755
     34          1           0        3.387144    0.433265    1.391570
     35          1           0        1.813238   -0.201821    0.921884
     36          1           0        4.432865   -0.703316   -0.574773
     37          1           0        2.860154   -1.338084   -1.045145
     38          1           0        2.717183   -2.605772    1.124925
     39          1           0        4.298830   -1.967399    1.597968
     40          1           0        4.166152   -3.068687    0.216349
 ---------------------------------------------------------------------

 SCF Done:  E(RHF) =  -470.732864880     A.U. after   11 cycles
 E2 =    -0.1584318839D+01 EUMP2 =    -0.47231718371948D+03

 The electronic state is 1-A.
 Alpha  occ. eigenvalues --  -11.21671 -11.21640 -11.21636 -11.21576 -11.21464
 Alpha  occ. eigenvalues --  -11.21406 -11.21404 -11.21317 -11.21123 -11.21104
 Alpha  occ. eigenvalues --  -11.21097 -11.21079  -1.08511  -1.08418  -1.03615
 Alpha  occ. eigenvalues --   -1.03516  -0.96042  -0.95987  -0.87061  -0.86999
 Alpha  occ. eigenvalues --   -0.79683  -0.79584  -0.78366  -0.78185  -0.65333
 Alpha  occ. eigenvalues --   -0.64919  -0.61110  -0.60902  -0.59371  -0.59325
 Alpha  occ. eigenvalues --   -0.57619  -0.57602  -0.55369  -0.55273  -0.52719
 Alpha  occ. eigenvalues --   -0.52688  -0.52496  -0.52360  -0.49988  -0.49942
 Alpha  occ. eigenvalues --   -0.47968  -0.47913  -0.46829  -0.46564  -0.46076
 Alpha  occ. eigenvalues --   -0.45807  -0.45749  -0.45341  -0.43830  -0.43788
 Alpha virt. eigenvalues --    0.19458   0.22261   0.23536   0.25233   0.25532
 Alpha virt. eigenvalues --    0.26506   0.26925   0.27279   0.28463   0.29644
 Alpha virt. eigenvalues --    0.30810   0.31451   0.31640   0.31785   0.32488

 Mulliken charges:
               1
     1  C   -0.298685
     2  C   -0.299680
     3  C   -0.475795
     4  H    0.149893
     5  H    0.149232
     6  H    0.152118
     7  H    0.152022
     8  H    0.155338
     9  H    0.155259
    10  H    0.160418
    11  C   -0.297624
    12  C   -0.306415
    13  C   -0.481503
    14  H    0.149926
    15  H    0.149587
    16  H    0.151857
    17  H    0.157708
    18  H    0.154818
    19  H    0.155689
    20  H    0.166575
    21  C   -0.298872
    22  C   -0.300542
    23  C   -0.475656
    24  H    0.149982
    25  H    0.149097
    26  H    0.152437
    27  H    0.151717
    28  H    0.154784
    29  H    0.155451
    30  H    0.160361
    31  C   -0.304129
    32  C   -0.301592
    33  C   -0.478504
    34  H    0.149678
    35  H    0.155920
    36  H    0.152015
    37  H    0.154427
    38  H    0.156780
    39  H    0.155527
    40  H    0.160382
 Sum of Mulliken charges =  -0.00000

 Dipole moment (field-independent basis, Debye):
    X=             -0.0081    Y=             -0.0129    Z=              0.0062  Tot=              0.0165
 Quadrupole moment (field-independent basis, Debye-Ang):
   XX=            -84.1392   YY=            -85.6465   ZZ=            -84.8876
   XY=              1.3473   XZ=              0.1586   YZ=             -0.2067

 Normal termination of Gaussian 16 at Thu May  6 03:43:46 2021.
