 Gaussian 16, Revision A.03,
 Gaussian 16:  EM64L-G16RevA.03 25-Dec-2016

 -------------
 #p 6-31g* mp2
 -------------

 ------------------------------------------------------
 Input file generated by CHIRIPA (05-May-2021 14:55:22)
 ------------------------------------------------------
 Symbolic Z-matrix:
 Charge =  0 Multiplicity = 1

                         Standard orientation:
 ---------------------------------------------------------------------
 Center     Atomic      Atomic             Coordinates (Angstroms)
 Number     Number       Type             X           Y           Z
 ---------------------------------------------------------------------
      1          6           0       -2.094995   -2.049799   -1.118135
      2          6           0       -3.472611   -1.906719   -0.922628
      3          6           0       -3.999599   -0.707622   -0.433752
      4          6           0       -3.116086    0.332534   -0.149553
      5          6           0       -1.738818    0.220699   -0.333717
      6          6           0       -1.234013   -0.987506   -0.823575
      7          1           0       -1.694235   -2.984824   -1.498287
      8          1           0       -4.143638   -2.730023   -1.150529
      9          1           0       -5.061943   -0.569749   -0.273023
     10          1           0       -1.094948    1.059177   -0.097492
     11          1           0       -0.163703   -1.095783   -0.974426
     12          7           0       -3.662242    1.606785    0.368518
     13          8           0       -2.862724    2.508164    0.611264
     14          8           0       -4.879496    1.680037    0.522026
     15          6           0        4.142426    0.520382    0.071745
     16          6           0        5.505704    0.430538   -0.614830
     17          6           0        6.030726    1.793436   -1.067214
     18          1           0        3.421859    0.982294   -0.616997
     19          1           0        4.219864    1.190772    0.938910
     20          1           0        5.426051   -0.240572   -1.479632
     21          1           0        6.223062   -0.031390    0.075557
     22          1           0        6.138639    2.468016   -0.211704
     23          1           0        5.337099    2.257644   -1.775730
     24          1           0        7.006350    1.705936   -1.555438
     25          6           0        3.604321   -0.834039    0.529694
     26          6           0        2.241043   -0.744194    1.216269
     27          6           0        1.716020   -2.107093    1.668653
     28          1           0        3.526881   -1.504429   -0.337471
     29          1           0        4.324887   -1.295951    1.218436
     30          1           0        1.523683   -0.282267    0.525881
     31          1           0        2.320695   -0.073084    2.081070
     32          1           0        2.409646   -2.571301    2.377169
     33          1           0        1.608107   -2.781673    0.813142
     34          1           0        0.740396   -2.019593    2.156877
 ---------------------------------------------------------------------

 SCF Done:  E(RHF) =  -669.535267536     A.U. after   15 cycles
 E2 =    -0.2091842321D+01 EUMP2 =    -0.67162710985676D+03

 The electronic state is 1-A.
 Alpha  occ. eigenvalues --  -20.60748 -20.60742 -15.85801 -11.31169 -11.27740
 Alpha  occ. eigenvalues --  -11.27730 -11.27477 -11.26755 -11.26724 -11.22419
 Alpha  occ. eigenvalues --  -11.22056 -11.22024 -11.21895 -11.21818 -11.21381
 Alpha  occ. eigenvalues --   -1.59823  -1.39376  -1.19342  -1.09044  -1.08734
 Alpha  occ. eigenvalues --   -1.04752  -1.04114  -0.96545  -0.95570  -0.87560
 Alpha  occ. eigenvalues --   -0.86142  -0.82410  -0.80195  -0.78836  -0.77451
 Alpha  occ. eigenvalues --   -0.72019  -0.71146  -0.70449  -0.65758  -0.64993
 Alpha  occ. eigenvalues --   -0.64731  -0.62223  -0.61394  -0.59908  -0.58145
 Alpha  occ. eigenvalues --   -0.55851  -0.55236  -0.53246  -0.53062  -0.52941
 Alpha  occ. eigenvalues --   -0.52824  -0.50504  -0.48781  -0.48774  -0.48486
 Alpha  occ. eigenvalues --   -0.47251  -0.46371  -0.46293  -0.44781  -0.44358
 Alpha  occ. eigenvalues --   -0.37318  -0.36335
 Alpha virt. eigenvalues --    0.05072   0.11274   0.16493   0.19383   0.22777
 Alpha virt. eigenvalues --    0.23874   0.25214   0.26212   0.27353   0.28314
 Alpha virt. eigenvalues --    0.28780   0.30412   0.31123   0.31152   0.32224

 Mulliken charges:
               1
     1  C   -0.171517
     2  C   -0.218625
     3  C   -0.171034
     4  C    0.158349
     5  C   -0.172603
     6  C   -0.219127
     7  H    0.225592
     8  H    0.223373
     9  H    0.275555
    10  H    0.275891
    11  H    0.227558
    12  N    0.488176
    13  O   -0.460357
    14  O   -0.460573
    15  C   -0.298342
    16  C   -0.299987
    17  C   -0.476132
    18  H    0.147321
    19  H    0.152928
    20  H    0.151092
    21  H    0.153153
    22  H    0.156903
    23  H    0.155744
    24  H    0.161452
    25  C   -0.298647
    26  C   -0.303283
    27  C   -0.476456
    28  H    0.146094
    29  H    0.153232
    30  H    0.141863
    31  H    0.159306
    32  H    0.159559
    33  H    0.147846
    34  H    0.165697
 Sum of Mulliken charges =  -0.00000

 Dipole moment (field-independent basis, Debye):
    X=              2.0610    Y=             -4.4799    Z=             -1.7266  Tot=              5.2248
 Quadrupole moment (field-independent basis, Debye-Ang):
   XX=           -101.9498   YY=            -98.4064   ZZ=            -94.1329
   XY=             16.5467   XZ=              6.5476   YZ=              0.5750

 Normal termination of Gaussian 16 at Thu May  6 15:52:15 2021.
