 Gaussian 16, Revision A.03,
 Gaussian 16:  EM64L-G16RevA.03 25-Dec-2016

 -------------
 #p 6-31g* mp2
 -------------

 ------------------------------------------------------
 Input file generated by CHIRIPA (05-May-2021 14:55:18)
 ------------------------------------------------------
 Symbolic Z-matrix:
 Charge =  0 Multiplicity = 1

                         Standard orientation:
 ---------------------------------------------------------------------
 Center     Atomic      Atomic             Coordinates (Angstroms)
 Number     Number       Type             X           Y           Z
 ---------------------------------------------------------------------
      1          6           0       -0.647913   -2.175716    0.258450
      2          6           0       -0.713078   -1.080299    1.125823
      3          6           0       -1.776592   -0.176097    1.048982
      4          6           0       -2.762091   -0.398735    0.088506
      5          6           0       -2.725266   -1.480644   -0.789792
      6          6           0       -1.652444   -2.372046   -0.694909
      7          1           0        0.181866   -2.873150    0.325150
      8          1           0        0.065636   -0.925326    1.867196
      9          1           0       -1.851836    0.680305    1.708020
     10          1           0       -3.516476   -1.608786   -1.518479
     11          1           0       -1.604435   -3.221884   -1.369828
     12          7           0       -3.892913    0.551728   -0.002393
     13          8           0       -4.748517    0.333343   -0.857311
     14          8           0       -3.902234    1.497088    0.783001
     15          6           0        2.985817    1.357298   -0.394771
     16          6           0        1.554752    1.583413    0.094013
     17          6           0        0.945968    2.880654   -0.439224
     18          1           0        3.609401    2.208969   -0.090233
     19          1           0        2.992503    1.342071   -1.493460
     20          1           0        1.550557    1.596827    1.191473
     21          1           0        0.934545    0.731014   -0.211557
     22          1           0        0.920934    2.873064   -1.533718
     23          1           0        1.540447    3.743798   -0.122716
     24          1           0       -0.077211    3.022379   -0.077449
     25          6           0        3.608021    0.064483    0.129844
     26          6           0        5.039085   -0.161633   -0.358940
     27          6           0        5.647870   -1.458874    0.174297
     28          1           0        3.601335    0.079710    1.228533
     29          1           0        2.984436   -0.787189   -0.174694
     30          1           0        5.659293    0.690766   -0.053370
     31          1           0        5.043280   -0.175047   -1.456400
     32          1           0        5.053391   -2.322017   -0.142212
     33          1           0        5.672903   -1.451283    1.268791
     34          1           0        6.671048   -1.600598   -0.187478
 ---------------------------------------------------------------------

 SCF Done:  E(RHF) =  -669.534643964     A.U. after   15 cycles
 E2 =    -0.2093335055D+01 EUMP2 =    -0.67162797901906D+03

 The electronic state is 1-A.
 Alpha  occ. eigenvalues --  -20.60804 -20.60798 -15.85855 -11.31238 -11.27771
 Alpha  occ. eigenvalues --  -11.27759 -11.27512 -11.26824 -11.26772 -11.22147
 Alpha  occ. eigenvalues --  -11.22031 -11.21891 -11.21787 -11.21647 -11.21221
 Alpha  occ. eigenvalues --   -1.59877  -1.39430  -1.19404  -1.08934  -1.08789
 Alpha  occ. eigenvalues --   -1.04812  -1.03952  -0.96408  -0.95625  -0.87418
 Alpha  occ. eigenvalues --   -0.86196  -0.82462  -0.80047  -0.78782  -0.77487
 Alpha  occ. eigenvalues --   -0.72072  -0.71199  -0.70494  -0.65561  -0.65047
 Alpha  occ. eigenvalues --   -0.64794  -0.62148  -0.61365  -0.59787  -0.58039
 Alpha  occ. eigenvalues --   -0.55704  -0.55291  -0.53254  -0.52996  -0.52925
 Alpha  occ. eigenvalues --   -0.52785  -0.50343  -0.48833  -0.48827  -0.48346
 Alpha  occ. eigenvalues --   -0.47079  -0.46290  -0.46220  -0.44831  -0.44223
 Alpha  occ. eigenvalues --   -0.37367  -0.36287
 Alpha virt. eigenvalues --    0.05000   0.11165   0.16465   0.20485   0.22678
 Alpha virt. eigenvalues --    0.23716   0.25348   0.26022   0.26935   0.28327
 Alpha virt. eigenvalues --    0.29077   0.30347   0.31183   0.31452   0.31931

 Mulliken charges:
               1
     1  C   -0.173142
     2  C   -0.217317
     3  C   -0.170278
     4  C    0.159191
     5  C   -0.171838
     6  C   -0.217979
     7  H    0.226223
     8  H    0.227050
     9  H    0.275853
    10  H    0.275622
    11  H    0.223605
    12  N    0.488128
    13  O   -0.460078
    14  O   -0.460507
    15  C   -0.297223
    16  C   -0.308475
    17  C   -0.476908
    18  H    0.151193
    19  H    0.151271
    20  H    0.142777
    21  H    0.162023
    22  H    0.156925
    23  H    0.155818
    24  H    0.164611
    25  C   -0.298113
    26  C   -0.299707
    27  C   -0.475661
    28  H    0.146412
    29  H    0.142947
    30  H    0.154467
    31  H    0.153539
    32  H    0.151953
    33  H    0.154911
    34  H    0.162706
 Sum of Mulliken charges =  -0.00000

 Dipole moment (field-independent basis, Debye):
    X=              3.9770    Y=             -3.3103    Z=              0.2686  Tot=              5.1814
 Quadrupole moment (field-independent basis, Debye-Ang):
   XX=           -116.7476   YY=            -91.6500   ZZ=            -91.6620
   XY=              9.6547   XZ=              1.1123   YZ=              2.4904

 Normal termination of Gaussian 16 at Thu May  6 09:12:04 2021.
