 Gaussian 16, Revision A.03,
 Gaussian 16:  EM64L-G16RevA.03 25-Dec-2016

 -------------
 #p 6-31g* mp2
 -------------

 ------------------------------------------------------
 Input file generated by CHIRIPA (05-May-2021 14:51:07)
 ------------------------------------------------------
 Symbolic Z-matrix:
 Charge =  0 Multiplicity = 1

                         Standard orientation:
 ---------------------------------------------------------------------
 Center     Atomic      Atomic             Coordinates (Angstroms)
 Number     Number       Type             X           Y           Z
 ---------------------------------------------------------------------
      1          6           0        3.252818    0.708228   -0.024730
      2          6           0        2.537915    1.797545   -0.824908
      3          6           0        2.780121    3.198858   -0.263256
      4          1           0        2.916269    0.749187    1.020259
      5          1           0        4.331233    0.918723   -0.014274
      6          1           0        1.461327    1.584304   -0.835018
      7          1           0        2.876063    1.753864   -1.868155
      8          1           0        3.848795    3.436576   -0.268485
      9          1           0        2.426021    3.266053    0.770523
     10          1           0        2.259910    3.962121   -0.850343
     11          6           0        3.020294   -0.698187   -0.573963
     12          6           0        3.735197   -1.787505    0.226215
     13          6           0        3.492991   -3.188818   -0.335437
     14          1           0        1.941879   -0.908682   -0.584419
     15          1           0        3.356843   -0.739147   -1.618952
     16          1           0        3.397050   -1.743824    1.269462
     17          1           0        4.811785   -1.574264    0.236325
     18          1           0        3.847091   -3.256012   -1.369216
     19          1           0        2.424318   -3.426536   -0.330209
     20          1           0        4.013202   -3.952081    0.251649
     21          6           0       -3.701890    0.198169   -0.172399
     22          6           0       -4.916091   -0.728212   -0.098123
     23          6           0       -6.038676   -0.308711   -1.047658
     24          1           0       -4.016909    1.224499    0.060746
     25          1           0       -3.324023    0.213929   -1.204079
     26          1           0       -5.290713   -0.743296    0.933403
     27          1           0       -4.598109   -1.752488   -0.331283
     28          1           0       -5.687390   -0.311612   -2.084571
     29          1           0       -6.383929    0.703313   -0.812699
     30          1           0       -6.896738   -0.984562   -0.978261
     31          6           0       -2.571222   -0.208210    0.771092
     32          6           0       -1.357021    0.718172    0.696816
     33          6           0       -0.234436    0.298672    1.646351
     34          1           0       -2.949089   -0.223968    1.802772
     35          1           0       -2.256204   -1.234539    0.537948
     36          1           0       -1.675004    1.742447    0.929977
     37          1           0       -0.982399    0.733256   -0.334710
     38          1           0        0.110816   -0.713354    1.411393
     39          1           0       -0.585722    0.301571    2.683265
     40          1           0        0.623625    0.974522    1.576955
 ---------------------------------------------------------------------

 SCF Done:  E(RHF) =  -470.732382371     A.U. after   11 cycles
 E2 =    -0.1584570598D+01 EUMP2 =    -0.47231695296971D+03

 The electronic state is 1-A.
 Alpha  occ. eigenvalues --  -11.21689 -11.21633 -11.21571 -11.21553 -11.21460
 Alpha  occ. eigenvalues --  -11.21396 -11.21350 -11.21287 -11.21133 -11.21093
 Alpha  occ. eigenvalues --  -11.21074 -11.21067  -1.08508  -1.08383  -1.03613
 Alpha  occ. eigenvalues --   -1.03493  -0.96059  -0.95944  -0.87075  -0.86966
 Alpha  occ. eigenvalues --   -0.79694  -0.79539  -0.78317  -0.78194  -0.65306
 Alpha  occ. eigenvalues --   -0.64951  -0.61065  -0.60953  -0.59327  -0.59312
 Alpha  occ. eigenvalues --   -0.57636  -0.57543  -0.55456  -0.55129  -0.52739
 Alpha  occ. eigenvalues --   -0.52656  -0.52466  -0.52380  -0.50007  -0.49857
 Alpha  occ. eigenvalues --   -0.47991  -0.47888  -0.46819  -0.46480  -0.45917
 Alpha  occ. eigenvalues --   -0.45777  -0.45737  -0.45551  -0.43789  -0.43753
 Alpha virt. eigenvalues --    0.19892   0.23021   0.23310   0.24554   0.25955
 Alpha virt. eigenvalues --    0.26226   0.27164   0.27613   0.27936   0.29845
 Alpha virt. eigenvalues --    0.30104   0.30877   0.31709   0.31994   0.32257

 Mulliken charges:
               1
     1  C   -0.300487
     2  C   -0.307320
     3  C   -0.476143
     4  H    0.152178
     5  H    0.149648
     6  H    0.158702
     7  H    0.152302
     8  H    0.155478
     9  H    0.154565
    10  H    0.160429
    11  C   -0.300244
    12  C   -0.300443
    13  C   -0.475483
    14  H    0.151947
    15  H    0.149313
    16  H    0.152840
    17  H    0.151948
    18  H    0.155129
    19  H    0.154320
    20  H    0.160302
    21  C   -0.298425
    22  C   -0.299695
    23  C   -0.475751
    24  H    0.149820
    25  H    0.149719
    26  H    0.151998
    27  H    0.152017
    28  H    0.155288
    29  H    0.155240
    30  H    0.160377
    31  C   -0.298326
    32  C   -0.303133
    33  C   -0.482986
    34  H    0.149874
    35  H    0.149522
    36  H    0.152681
    37  H    0.154083
    38  H    0.156009
    39  H    0.155667
    40  H    0.167043
 Sum of Mulliken charges =  -0.00000

 Dipole moment (field-independent basis, Debye):
    X=             -0.0300    Y=              0.0065    Z=              0.0106  Tot=              0.0325
 Quadrupole moment (field-independent basis, Debye-Ang):
   XX=            -84.7891   YY=            -85.6649   ZZ=            -84.3648
   XY=             -0.1068   XZ=             -1.3501   YZ=              0.1872

 Normal termination of Gaussian 16 at Thu May  6 02:04:28 2021.
