 Gaussian 16, Revision A.03,
 Gaussian 16:  EM64L-G16RevA.03 25-Dec-2016

 -------------
 #p 6-31g* mp2
 -------------

 ------------------------------------------------------
 Input file generated by CHIRIPA (05-May-2021 14:57:21)
 ------------------------------------------------------
 Symbolic Z-matrix:
 Charge =  0 Multiplicity = 1

                         Standard orientation:
 ---------------------------------------------------------------------
 Center     Atomic      Atomic             Coordinates (Angstroms)
 Number     Number       Type             X           Y           Z
 ---------------------------------------------------------------------
      1          6           0        0.595906   -0.144606   -0.461841
      2          6           0        1.157843   -0.921159    0.556842
      3          6           0        2.542406   -0.946125    0.748961
      4          6           0        3.338900   -0.178961   -0.099771
      5          6           0        2.809003    0.604816   -1.123584
      6          6           0        1.421824    0.614564   -1.297329
      7          1           0       -0.480671   -0.131123   -0.603947
      8          1           0        0.518865   -1.511739    1.207202
      9          1           0        3.003886   -1.538414    1.529760
     10          1           0        3.471684    1.183025   -1.755996
     11          1           0        0.988189    1.218578   -2.089272
     12          7           0        4.806060   -0.197336    0.093891
     13          8           0        5.486060    0.487410   -0.667265
     14          8           0        5.248238   -0.896136    1.003173
     15          6           0       -2.131554    2.361725    0.941605
     16          6           0       -2.496025    2.212012   -0.400508
     17          6           0       -3.031975    1.005421   -0.860343
     18          6           0       -3.190440   -0.035382    0.053389
     19          6           0       -2.836873    0.082950    1.396623
     20          6           0       -2.302838    1.298591    1.834313
     21          1           0       -1.715959    3.302548    1.290214
     22          1           0       -2.364131    3.035951   -1.096045
     23          1           0       -3.322579    0.862314   -1.894020
     24          1           0       -2.980233   -0.756349    2.066282
     25          1           0       -2.020669    1.412008    2.877175
     26          7           0       -3.756811   -1.317536   -0.421695
     27          8           0       -3.886389   -2.219327    0.403301
     28          8           0       -4.060433   -1.396419   -1.610068
 ---------------------------------------------------------------------

 SCF Done:  E(RHF) =  -868.336901972     A.U. after   16 cycles
 E2 =    -0.2603240771D+01 EUMP2 =    -0.87094014274305D+03

 The electronic state is 1-A.
 Alpha  occ. eigenvalues --  -20.61917 -20.61910 -20.60816 -20.60810 -15.86979
 Alpha  occ. eigenvalues --  -15.85871 -11.32530 -11.31195 -11.29072 -11.29068
 Alpha  occ. eigenvalues --  -11.28742 -11.28093 -11.28054 -11.27807 -11.27780
 Alpha  occ. eigenvalues --  -11.27341 -11.26772 -11.26718  -1.60999  -1.59894
 Alpha  occ. eigenvalues --   -1.40541  -1.39448  -1.20742  -1.19370  -1.10035
 Alpha  occ. eigenvalues --   -1.08749  -1.06111  -1.04783  -0.96843  -0.95595
 Alpha  occ. eigenvalues --   -0.87463  -0.86170  -0.83647  -0.82446  -0.78699
 Alpha  occ. eigenvalues --   -0.77510  -0.73168  -0.72396  -0.72087  -0.71697
 Alpha  occ. eigenvalues --   -0.71221  -0.70473  -0.66306  -0.66028  -0.65013
 Alpha  occ. eigenvalues --   -0.64805  -0.63411  -0.62143  -0.56491  -0.55992
 Alpha  occ. eigenvalues --   -0.54129  -0.53707  -0.53021  -0.52870  -0.49950
 Alpha  occ. eigenvalues --   -0.49927  -0.48846  -0.48842  -0.45896  -0.44864
 Alpha  occ. eigenvalues --   -0.38744  -0.37797  -0.37212  -0.36395
 Alpha virt. eigenvalues --    0.03794   0.05044   0.09829   0.11277   0.15272
 Alpha virt. eigenvalues --    0.16544   0.20221   0.21597   0.25832   0.27083
 Alpha virt. eigenvalues --    0.27521   0.28452   0.29946   0.30950   0.31869

 Mulliken charges:
               1
     1  C   -0.169500
     2  C   -0.224908
     3  C   -0.170898
     4  C    0.157037
     5  C   -0.170915
     6  C   -0.225149
     7  H    0.238558
     8  H    0.222761
     9  H    0.275242
    10  H    0.274435
    11  H    0.218852
    12  N    0.488058
    13  O   -0.461239
    14  O   -0.460639
    15  C   -0.168702
    16  C   -0.216310
    17  C   -0.188034
    18  C    0.153036
    19  C   -0.178677
    20  C   -0.214121
    21  H    0.232437
    22  H    0.227878
    23  H    0.279035
    24  H    0.278556
    25  H    0.229751
    26  N    0.488063
    27  O   -0.457779
    28  O   -0.456829
 Sum of Mulliken charges =  -0.00000

 Dipole moment (field-independent basis, Debye):
    X=             -3.5057    Y=              4.7205    Z=              1.1372  Tot=              5.9889
 Quadrupole moment (field-independent basis, Debye-Ang):
   XX=           -153.2838   YY=           -102.9045   ZZ=            -97.4608
   XY=            -13.4921   XZ=             -7.2415   YZ=             -4.2384

 Normal termination of Gaussian 16 at Wed May  5 22:32:16 2021.
