 Gaussian 16, Revision A.03,
 Gaussian 16:  EM64L-G16RevA.03 25-Dec-2016

 -------------
 #p 6-31g* mp2
 -------------

 ------------------------------------------------------
 Input file generated by CHIRIPA (05-May-2021 14:55:20)
 ------------------------------------------------------
 Symbolic Z-matrix:
 Charge =  0 Multiplicity = 1

                         Standard orientation:
 ---------------------------------------------------------------------
 Center     Atomic      Atomic             Coordinates (Angstroms)
 Number     Number       Type             X           Y           Z
 ---------------------------------------------------------------------
      1          6           0        1.536463    1.665475    1.671887
      2          6           0        1.649014    0.367126    2.179966
      3          6           0        2.199045   -0.655043    1.400745
      4          6           0        2.628326   -0.342156    0.111905
      5          6           0        2.529629    0.941533   -0.422597
      6          6           0        1.976354    1.948036    0.374515
      7          1           0        1.107926    2.453435    2.284154
      8          1           0        1.308221    0.144784    3.187175
      9          1           0        2.298039   -1.668905    1.769121
     10          1           0        2.878114    1.132609   -1.430300
     11          1           0        1.890189    2.955436   -0.022683
     12          7           0        3.212336   -1.415988   -0.722492
     13          8           0        3.583132   -1.114528   -1.854865
     14          8           0        3.288229   -2.538783   -0.228319
     15          6           0       -3.399886   -0.497735   -0.084109
     16          6           0       -4.898966   -0.782791    0.013303
     17          6           0       -5.200741   -2.205532    0.485040
     18          1           0       -2.939913   -1.219320   -0.773085
     19          1           0       -2.937296   -0.665115    0.898434
     20          1           0       -5.358821   -0.613587   -0.968796
     21          1           0       -5.355456   -0.060324    0.701980
     22          1           0       -4.768557   -2.382910    1.475169
     23          1           0       -4.771942   -2.939316   -0.205099
     24          1           0       -6.278125   -2.387730    0.547543
     25          6           0       -3.082223    0.920585   -0.554414
     26          6           0       -1.583143    1.205640   -0.651827
     27          6           0       -1.281368    2.628380   -1.123563
     28          1           0       -3.544812    1.087964   -1.536957
     29          1           0       -3.542196    1.642168    0.134562
     30          1           0       -1.126653    0.483174   -1.340502
     31          1           0       -1.123288    1.036436    0.330272
     32          1           0       -1.710167    3.362165   -0.433423
     33          1           0       -1.713552    2.805758   -2.113692
     34          1           0       -0.203983    2.810579   -1.186066
 ---------------------------------------------------------------------

 SCF Done:  E(RHF) =  -669.534115256     A.U. after   15 cycles
 E2 =    -0.2093948363D+01 EUMP2 =    -0.67162806361899D+03

 The electronic state is 1-A.
 Alpha  occ. eigenvalues --  -20.60808 -20.60803 -15.85862 -11.31253 -11.27815
 Alpha  occ. eigenvalues --  -11.27810 -11.27557 -11.26856 -11.26817 -11.21805
 Alpha  occ. eigenvalues --  -11.21770 -11.21629 -11.21556 -11.21534 -11.21200
 Alpha  occ. eigenvalues --   -1.59883  -1.39436  -1.19431  -1.08840  -1.08643
 Alpha  occ. eigenvalues --   -1.04848  -1.03772  -0.96256  -0.95650  -0.87285
 Alpha  occ. eigenvalues --   -0.86231  -0.82488  -0.79834  -0.78456  -0.77529
 Alpha  occ. eigenvalues --   -0.72081  -0.71206  -0.70534  -0.65297  -0.65083
 Alpha  occ. eigenvalues --   -0.64882  -0.62227  -0.61187  -0.59661  -0.57901
 Alpha  occ. eigenvalues --   -0.55551  -0.55339  -0.53329  -0.53041  -0.52765
 Alpha  occ. eigenvalues --   -0.52499  -0.50187  -0.48843  -0.48834  -0.48139
 Alpha  occ. eigenvalues --   -0.46858  -0.45990  -0.45925  -0.44837  -0.44037
 Alpha  occ. eigenvalues --   -0.37347  -0.36384
 Alpha virt. eigenvalues --    0.04986   0.11166   0.16385   0.20771   0.22778
 Alpha virt. eigenvalues --    0.24214   0.26286   0.26475   0.27269   0.28051
 Alpha virt. eigenvalues --    0.28541   0.30079   0.31147   0.31709   0.32278

 Mulliken charges:
               1
     1  C   -0.172286
     2  C   -0.218518
     3  C   -0.170373
     4  C    0.159499
     5  C   -0.171181
     6  C   -0.213247
     7  H    0.226305
     8  H    0.223732
     9  H    0.275915
    10  H    0.275904
    11  H    0.224618
    12  N    0.487957
    13  O   -0.460282
    14  O   -0.460190
    15  C   -0.298022
    16  C   -0.299751
    17  C   -0.475781
    18  H    0.152680
    19  H    0.146963
    20  H    0.152908
    21  H    0.150689
    22  H    0.154057
    23  H    0.157097
    24  H    0.160656
    25  C   -0.298548
    26  C   -0.301621
    27  C   -0.476768
    28  H    0.150498
    29  H    0.147023
    30  H    0.154948
    31  H    0.154011
    32  H    0.150913
    33  H    0.158060
    34  H    0.152135
 Sum of Mulliken charges =  -0.00000

 Dipole moment (field-independent basis, Debye):
    X=             -2.0023    Y=              3.7042    Z=              2.9532  Tot=              5.1432
 Quadrupole moment (field-independent basis, Debye-Ang):
   XX=           -106.4935   YY=            -96.7249   ZZ=            -90.7277
   XY=             11.0924   XZ=              7.2254   YZ=             -2.5821

 Normal termination of Gaussian 16 at Thu May  6 01:21:38 2021.
