 Gaussian 16, Revision A.03,
 Gaussian 16:  EM64L-G16RevA.03 25-Dec-2016

 -------------
 #p 6-31g* mp2
 -------------

 ------------------------------------------------------
 Input file generated by CHIRIPA (05-May-2021 14:53:16)
 ------------------------------------------------------
 Symbolic Z-matrix:
 Charge =  0 Multiplicity = 1

                         Standard orientation:
 ---------------------------------------------------------------------
 Center     Atomic      Atomic             Coordinates (Angstroms)
 Number     Number       Type             X           Y           Z
 ---------------------------------------------------------------------
      1          6           0       -4.543974    0.100164   -0.264382
      2          6           0       -5.273775   -1.147534    0.234239
      3          6           0       -6.426376   -1.563303   -0.680332
      4          1           0       -5.261980    0.927169   -0.350839
      5          1           0       -4.160444   -0.087914   -1.276769
      6          1           0       -5.654620   -0.957639    1.245928
      7          1           0       -4.553911   -1.971614    0.319702
      8          1           0       -6.059183   -1.779658   -1.688776
      9          1           0       -7.166146   -0.759922   -0.757288
     10          1           0       -6.934184   -2.457287   -0.305122
     11          6           0       -3.389119    0.528259    0.639373
     12          6           0       -2.659318    1.775958    0.140752
     13          6           0       -1.506716    2.191726    1.055323
     14          1           0       -3.772649    0.716338    1.651760
     15          1           0       -2.671113   -0.298746    0.725830
     16          1           0       -3.379182    2.600037    0.055289
     17          1           0       -2.278473    1.586062   -0.870936
     18          1           0       -0.766947    1.388346    1.132279
     19          1           0       -1.873910    2.408082    2.063768
     20          1           0       -0.998909    3.085711    0.680113
     21          6           0        5.591450   -0.424023    0.201462
     22          6           0        5.063753    0.628001   -0.554384
     23          6           0        3.684272    0.736864   -0.753707
     24          6           0        2.857890   -0.228217   -0.180119
     25          6           0        3.353339   -1.287981    0.577984
     26          6           0        4.736066   -1.376977    0.764240
     27          1           0        6.664324   -0.500874    0.351225
     28          1           0        5.725663    1.369523   -0.992636
     29          1           0        3.249002    1.541064   -1.334413
     30          1           0        2.668313   -2.011935    1.002308
     31          1           0        5.143080   -2.195066    1.351706
     32          7           0        1.395777   -0.123485   -0.384216
     33          8           0        0.689010   -0.986582    0.131710
     34          8           0        0.984225    0.819719   -1.056250
 ---------------------------------------------------------------------

 SCF Done:  E(RHF) =  -669.536610471     A.U. after   15 cycles
 E2 =    -0.2092179982D+01 EUMP2 =    -0.67162879045241D+03

 The electronic state is 1-A.
 Alpha  occ. eigenvalues --  -20.61121 -20.61111 -15.86102 -11.31378 -11.27930
 Alpha  occ. eigenvalues --  -11.27925 -11.27658 -11.26922 -11.26912 -11.20578
 Alpha  occ. eigenvalues --  -11.20239 -11.20138 -11.19901 -11.19789 -11.19337
 Alpha  occ. eigenvalues --   -1.60155  -1.39709  -1.19537  -1.08953  -1.07057
 Alpha  occ. eigenvalues --   -1.04923  -1.02166  -0.95804  -0.94641  -0.86326
 Alpha  occ. eigenvalues --   -0.85675  -0.82640  -0.78295  -0.77703  -0.76826
 Alpha  occ. eigenvalues --   -0.72323  -0.71477  -0.70645  -0.65192  -0.64929
 Alpha  occ. eigenvalues --   -0.63670  -0.62270  -0.59544  -0.58063  -0.56248
 Alpha  occ. eigenvalues --   -0.55434  -0.53939  -0.53246  -0.53013  -0.51384
 Alpha  occ. eigenvalues --   -0.51083  -0.49148  -0.49099  -0.48491  -0.46594
 Alpha  occ. eigenvalues --   -0.45319  -0.45107  -0.44375  -0.44214  -0.42430
 Alpha  occ. eigenvalues --   -0.37508  -0.36520
 Alpha virt. eigenvalues --    0.04788   0.11137   0.16296   0.21268   0.24207
 Alpha virt. eigenvalues --    0.25755   0.27200   0.27935   0.28278   0.28818
 Alpha virt. eigenvalues --    0.29290   0.30865   0.32371   0.32729   0.32908

 Mulliken charges:
               1
     1  C   -0.297547
     2  C   -0.299003
     3  C   -0.474930
     4  H    0.144936
     5  H    0.150907
     6  H    0.148935
     7  H    0.153371
     8  H    0.154606
     9  H    0.153052
    10  H    0.156830
    11  C   -0.302436
    12  C   -0.297601
    13  C   -0.473813
    14  H    0.141903
    15  H    0.164455
    16  H    0.142015
    17  H    0.163945
    18  H    0.166648
    19  H    0.142740
    20  H    0.154069
    21  C   -0.170297
    22  C   -0.218642
    23  C   -0.170503
    24  C    0.159897
    25  C   -0.170641
    26  C   -0.218631
    27  H    0.226337
    28  H    0.224160
    29  H    0.276123
    30  H    0.275977
    31  H    0.224138
    32  N    0.486551
    33  O   -0.460763
    34  O   -0.456787
 Sum of Mulliken charges =  -0.00000

 Dipole moment (field-independent basis, Debye):
    X=              5.6147    Y=             -0.5011    Z=              0.5793  Tot=              5.6667
 Quadrupole moment (field-independent basis, Debye-Ang):
   XX=            -67.5273   YY=            -91.8441   ZZ=            -94.4528
   XY=             -2.0832   XZ=              0.2240   YZ=             -3.0799

 Normal termination of Gaussian 16 at Thu May  6 02:44:01 2021.
