 Gaussian 16, Revision A.03,
 Gaussian 16:  EM64L-G16RevA.03 25-Dec-2016

 -------------
 #p 6-31g* mp2
 -------------

 ------------------------------------------------------
 Input file generated by CHIRIPA (05-May-2021 14:51:07)
 ------------------------------------------------------
 Symbolic Z-matrix:
 Charge =  0 Multiplicity = 1

                         Standard orientation:
 ---------------------------------------------------------------------
 Center     Atomic      Atomic             Coordinates (Angstroms)
 Number     Number       Type             X           Y           Z
 ---------------------------------------------------------------------
      1          6           0        2.701224    1.224299   -0.330871
      2          6           0        1.764326    1.985820    0.607369
      3          6           0        1.023753    3.125174   -0.093500
      4          1           0        3.428526    1.926125   -0.761472
      5          1           0        2.119337    0.822119   -1.171736
      6          1           0        2.347578    2.385270    1.446936
      7          1           0        1.039291    1.282065    1.035934
      8          1           0        0.417673    2.739888   -0.919831
      9          1           0        1.733394    3.849362   -0.506494
     10          1           0        0.359573    3.656104    0.595584
     11          6           0        3.448718    0.082249    0.355205
     12          6           0        4.385616   -0.679272   -0.583035
     13          6           0        5.126189   -1.818626    0.117835
     14          1           0        4.030605    0.484429    1.196070
     15          1           0        2.721416   -0.619577    0.785807
     16          1           0        5.110652    0.024483   -1.011600
     17          1           0        3.802364   -1.078722   -1.422602
     18          1           0        4.416548   -2.542813    0.530828
     19          1           0        5.732269   -1.433340    0.944165
     20          1           0        5.790370   -2.349556   -0.571249
     21          6           0       -3.762705   -0.590470    0.314193
     22          6           0       -4.774532    0.168553   -0.544919
     23          6           0       -6.145638    0.285924    0.121480
     24          1           0       -4.154209   -1.594017    0.529973
     25          1           0       -3.658574   -0.080805    1.282073
     26          1           0       -4.875691   -0.341610   -1.511416
     27          1           0       -4.380488    1.170343   -0.758841
     28          1           0       -6.065589    0.814282    1.077006
     29          1           0       -6.563605   -0.706262    0.320154
     30          1           0       -6.853452    0.832020   -0.509899
     31          6           0       -2.387238   -0.716078   -0.338527
     32          6           0       -1.375410   -1.475101    0.520585
     33          6           0       -0.004304   -1.592472   -0.145814
     34          1           0       -2.491369   -1.225744   -1.306408
     35          1           0       -1.995733    0.287469   -0.554308
     36          1           0       -1.769455   -2.476892    0.734506
     37          1           0       -1.274252   -0.964937    1.487082
     38          1           0        0.413663   -0.600287   -0.344488
     39          1           0       -0.084353   -2.120831   -1.101340
     40          1           0        0.703509   -2.138569    0.485565
 ---------------------------------------------------------------------

 SCF Done:  E(RHF) =  -470.731836052     A.U. after   11 cycles
 E2 =    -0.1584832333D+01 EUMP2 =    -0.47231666838481D+03

 The electronic state is 1-A.
 Alpha  occ. eigenvalues --  -11.21670 -11.21623 -11.21619 -11.21528 -11.21453
 Alpha  occ. eigenvalues --  -11.21389 -11.21359 -11.21241 -11.21124 -11.21103
 Alpha  occ. eigenvalues --  -11.21087 -11.21026  -1.08503  -1.08385  -1.03593
 Alpha  occ. eigenvalues --   -1.03507  -0.96080  -0.95924  -0.87066  -0.86979
 Alpha  occ. eigenvalues --   -0.79667  -0.79568  -0.78291  -0.78211  -0.65412
 Alpha  occ. eigenvalues --   -0.64866  -0.61179  -0.60723  -0.59404  -0.59325
 Alpha  occ. eigenvalues --   -0.57663  -0.57549  -0.55554  -0.55039  -0.52751
 Alpha  occ. eigenvalues --   -0.52663  -0.52456  -0.52366  -0.50083  -0.49772
 Alpha  occ. eigenvalues --   -0.48023  -0.47827  -0.46718  -0.46601  -0.45905
 Alpha  occ. eigenvalues --   -0.45772  -0.45658  -0.45561  -0.43804  -0.43745
 Alpha virt. eigenvalues --    0.20121   0.22776   0.23649   0.24321   0.26209
 Alpha virt. eigenvalues --    0.26630   0.26868   0.27791   0.28303   0.29673
 Alpha virt. eigenvalues --    0.30247   0.30928   0.31668   0.31807   0.32585

 Mulliken charges:
               1
     1  C   -0.303046
     2  C   -0.303857
     3  C   -0.476207
     4  H    0.151304
     5  H    0.150367
     6  H    0.152951
     7  H    0.154121
     8  H    0.154758
     9  H    0.155925
    10  H    0.160124
    11  C   -0.302259
    12  C   -0.299739
    13  C   -0.475575
    14  H    0.148723
    15  H    0.156432
    16  H    0.151455
    17  H    0.152705
    18  H    0.154723
    19  H    0.154938
    20  H    0.160067
    21  C   -0.298304
    22  C   -0.299788
    23  C   -0.475741
    24  H    0.149789
    25  H    0.149725
    26  H    0.151920
    27  H    0.152242
    28  H    0.155272
    29  H    0.155182
    30  H    0.160379
    31  C   -0.299389
    32  C   -0.300147
    33  C   -0.485402
    34  H    0.149698
    35  H    0.150129
    36  H    0.152341
    37  H    0.152135
    38  H    0.166060
    39  H    0.155191
    40  H    0.160799
 Sum of Mulliken charges =  -0.00000

 Dipole moment (field-independent basis, Debye):
    X=             -0.0227    Y=             -0.0071    Z=             -0.0012  Tot=              0.0238
 Quadrupole moment (field-independent basis, Debye-Ang):
   XX=            -85.6811   YY=            -84.3943   ZZ=            -84.8125
   XY=              1.4453   XZ=              0.4409   YZ=              0.7994

 Normal termination of Gaussian 16 at Thu May  6 03:38:06 2021.
