 Gaussian 16, Revision A.03,
 Gaussian 16:  EM64L-G16RevA.03 25-Dec-2016

 -------------
 #p 6-31g* mp2
 -------------

 ------------------------------------------------------
 Input file generated by CHIRIPA (05-May-2021 14:57:26)
 ------------------------------------------------------
 Symbolic Z-matrix:
 Charge =  0 Multiplicity = 1

                         Standard orientation:
 ---------------------------------------------------------------------
 Center     Atomic      Atomic             Coordinates (Angstroms)
 Number     Number       Type             X           Y           Z
 ---------------------------------------------------------------------
      1          6           0        3.601840    2.447479    0.319665
      2          6           0        3.177374    1.693037    1.418377
      3          6           0        2.831819    0.347120    1.264595
      4          6           0        2.922854   -0.214847   -0.007881
      5          6           0        3.342216    0.510570   -1.121970
      6          6           0        3.682763    1.854883   -0.944772
      7          1           0        3.868330    3.492397    0.448222
      8          1           0        3.113565    2.150623    2.401529
      9          1           0        2.500086   -0.260109    2.098049
     10          1           0        3.395681    0.026698   -2.089661
     11          1           0        4.012081    2.438365   -1.799841
     12          7           0        2.559681   -1.638860   -0.183077
     13          8           0        2.648447   -2.110544   -1.314568
     14          8           0        2.193138   -2.256353    0.814412
     15          6           0       -4.201357    2.179596   -0.229001
     16          6           0       -4.920757    0.997039   -0.027647
     17          6           0       -4.256002   -0.227311    0.089030
     18          6           0       -2.864895   -0.232482   -0.000885
     19          6           0       -2.120043    0.928723   -0.201107
     20          6           0       -2.805756    2.141730   -0.314937
     21          1           0       -4.725896    3.126296   -0.318533
     22          1           0       -6.004659    1.023435    0.039489
     23          1           0       -4.788146   -1.157812    0.245259
     24          1           0       -1.040175    0.870682   -0.263846
     25          1           0       -2.244463    3.058547   -0.471275
     26          7           0       -2.150054   -1.522643    0.121130
     27          8           0       -0.923965   -1.500410    0.038381
     28          8           0       -2.829387   -2.531673    0.297203
 ---------------------------------------------------------------------

 SCF Done:  E(RHF) =  -868.335862908     A.U. after   16 cycles
 E2 =    -0.2601245497D+01 EUMP2 =    -0.87093710840481D+03

 The electronic state is 1-A.
 Alpha  occ. eigenvalues --  -20.60314 -20.60284 -20.59790 -20.59694 -15.85369
 Alpha  occ. eigenvalues --  -15.84819 -11.30987 -11.30727 -11.27606 -11.27572
 Alpha  occ. eigenvalues --  -11.27384 -11.27352 -11.27325 -11.27206 -11.26684
 Alpha  occ. eigenvalues --  -11.26644 -11.26496 -11.26481  -1.59367  -1.58779
 Alpha  occ. eigenvalues --   -1.38920  -1.38332  -1.19186  -1.18946  -1.08532
 Alpha  occ. eigenvalues --   -1.08237  -1.04630  -1.04424  -0.95323  -0.94982
 Alpha  occ. eigenvalues --   -0.86017  -0.85790  -0.82164  -0.81820  -0.77176
 Alpha  occ. eigenvalues --   -0.76762  -0.71658  -0.71047  -0.70706  -0.70313
 Alpha  occ. eigenvalues --   -0.70042  -0.69977  -0.64834  -0.64639  -0.64579
 Alpha  occ. eigenvalues --   -0.64426  -0.61978  -0.61753  -0.55124  -0.54914
 Alpha  occ. eigenvalues --   -0.52944  -0.52791  -0.52679  -0.52513  -0.48340
 Alpha  occ. eigenvalues --   -0.48320  -0.47820  -0.47758  -0.44304  -0.43561
 Alpha  occ. eigenvalues --   -0.37182  -0.36962  -0.36248  -0.36066
 Alpha virt. eigenvalues --    0.05369   0.05823   0.11400   0.11589   0.16810
 Alpha virt. eigenvalues --    0.17204   0.21473   0.21687   0.27339   0.27573
 Alpha virt. eigenvalues --    0.28325   0.28636   0.30874   0.31251   0.32504

 Mulliken charges:
               1
     1  C   -0.174447
     2  C   -0.220928
     3  C   -0.171617
     4  C    0.161735
     5  C   -0.173427
     6  C   -0.220238
     7  H    0.222218
     8  H    0.221196
     9  H    0.278338
    10  H    0.275814
    11  H    0.220900
    12  N    0.493259
    13  O   -0.462840
    14  O   -0.449059
    15  C   -0.171616
    16  C   -0.218453
    17  C   -0.170949
    18  C    0.159487
    19  C   -0.171725
    20  C   -0.218714
    21  H    0.224027
    22  H    0.222911
    23  H    0.276368
    24  H    0.273394
    25  H    0.220389
    26  N    0.489521
    27  O   -0.456674
    28  O   -0.458870
 Sum of Mulliken charges =  -0.00000

 Dipole moment (field-independent basis, Debye):
    X=             -1.3150    Y=              9.1565    Z=              0.2504  Tot=              9.2538
 Quadrupole moment (field-independent basis, Debye-Ang):
   XX=            -80.5773   YY=           -109.2797   ZZ=           -100.9804
   XY=              3.9930   XZ=              1.3680   YZ=             -0.9296

 Normal termination of Gaussian 16 at Thu May  6 02:00:17 2021.
