 Gaussian 16, Revision A.03,
 Gaussian 16:  EM64L-G16RevA.03 25-Dec-2016

 -------------
 #p 6-31g* mp2
 -------------

 ------------------------------------------------------
 Input file generated by CHIRIPA (05-May-2021 14:57:23)
 ------------------------------------------------------
 Symbolic Z-matrix:
 Charge =  0 Multiplicity = 1

                         Standard orientation:
 ---------------------------------------------------------------------
 Center     Atomic      Atomic             Coordinates (Angstroms)
 Number     Number       Type             X           Y           Z
 ---------------------------------------------------------------------
      1          6           0        1.376614   -1.046876   -0.196070
      2          6           0        2.499500   -1.765119   -0.620068
      3          6           0        3.771690   -1.187405   -0.571828
      4          6           0        3.885026    0.116427   -0.091757
      5          6           0        2.785404    0.857736    0.337873
      6          6           0        1.522892    0.259955    0.280707
      7          1           0        0.392105   -1.503453   -0.237011
      8          1           0        2.388896   -2.780188   -0.990806
      9          1           0        4.657877   -1.720762   -0.893730
     10          1           0        2.927240    1.867850    0.702525
     11          1           0        0.652613    0.820129    0.610655
     12          7           0        5.226714    0.738649   -0.035963
     13          8           0        5.299902    1.888810    0.391133
     14          8           0        6.179737    0.064404   -0.420384
     15          6           0       -4.758635    2.133685   -0.644335
     16          6           0       -3.921623    2.126872    0.476328
     17          6           0       -3.309761    0.942776    0.898337
     18          6           0       -3.558065   -0.221496    0.173004
     19          6           0       -4.386911   -0.246905   -0.947557
     20          6           0       -4.988203    0.948864   -1.351454
     21          1           0       -5.229837    3.058054   -0.965126
     22          1           0       -3.741525    3.045522    1.027410
     23          1           0       -2.657283    0.909091    1.762371
     24          1           0       -4.547359   -1.178444   -1.476622
     25          1           0       -5.637767    0.951178   -2.222147
     26          7           0       -2.915910   -1.481224    0.610179
     27          8           0       -3.150775   -2.493623   -0.045964
     28          8           0       -2.189884   -1.432346    1.600700
 ---------------------------------------------------------------------

 SCF Done:  E(RHF) =  -868.339361947     A.U. after   16 cycles
 E2 =    -0.2598996354D+01 EUMP2 =    -0.87093835830076D+03

 The electronic state is 1-A.
 Alpha  occ. eigenvalues --  -20.62009 -20.61994 -20.60383 -20.60375 -15.87025
 Alpha  occ. eigenvalues --  -15.85433 -11.32173 -11.30662 -11.28727 -11.28673
 Alpha  occ. eigenvalues --  -11.28356 -11.27655 -11.27623 -11.27262 -11.27221
 Alpha  occ. eigenvalues --  -11.26806 -11.26201 -11.26132  -1.61087  -1.59461
 Alpha  occ. eigenvalues --   -1.40637  -1.39019  -1.20312  -1.18817  -1.09742
 Alpha  occ. eigenvalues --   -1.08204  -1.05672  -1.04216  -0.96612  -0.95066
 Alpha  occ. eigenvalues --   -0.87078  -0.85600  -0.83442  -0.81920  -0.78532
 Alpha  occ. eigenvalues --   -0.77013  -0.73225  -0.72437  -0.71653  -0.71393
 Alpha  occ. eigenvalues --   -0.70784  -0.69827  -0.65954  -0.65655  -0.64458
 Alpha  occ. eigenvalues --   -0.64211  -0.63019  -0.61581  -0.56152  -0.54607
 Alpha  occ. eigenvalues --   -0.54013  -0.53748  -0.52533  -0.52303  -0.50011
 Alpha  occ. eigenvalues --   -0.49975  -0.48417  -0.48398  -0.46073  -0.44456
 Alpha  occ. eigenvalues --   -0.38266  -0.37269  -0.36729  -0.35834
 Alpha virt. eigenvalues --    0.03942   0.05544   0.10342   0.11838   0.15506
 Alpha virt. eigenvalues --    0.17087   0.20386   0.21912   0.26093   0.27038
 Alpha virt. eigenvalues --    0.28169   0.28690   0.30437   0.30808   0.32218

 Mulliken charges:
               1
     1  C   -0.169945
     2  C   -0.220102
     3  C   -0.171299
     4  C    0.157469
     5  C   -0.171906
     6  C   -0.217545
     7  H    0.237293
     8  H    0.225138
     9  H    0.274080
    10  H    0.271931
    11  H    0.217753
    12  N    0.488296
    13  O   -0.462975
    14  O   -0.461510
    15  C   -0.169598
    16  C   -0.217986
    17  C   -0.175681
    18  C    0.156464
    19  C   -0.170611
    20  C   -0.217912
    21  H    0.229486
    22  H    0.226469
    23  H    0.274489
    24  H    0.277099
    25  H    0.226950
    26  N    0.484935
    27  O   -0.457718
    28  O   -0.463064
 Sum of Mulliken charges =  -0.00000

 Dipole moment (field-independent basis, Debye):
    X=             -7.4427    Y=              2.2054    Z=             -1.8156  Tot=              7.9721
 Quadrupole moment (field-independent basis, Debye-Ang):
   XX=           -124.3857   YY=           -102.9210   ZZ=           -102.8119
   XY=            -25.9982   XZ=              6.2719   YZ=              5.1886

 Normal termination of Gaussian 16 at Fri May  7 09:27:39 2021.
