 Gaussian 16, Revision A.03,
 Gaussian 16:  EM64L-G16RevA.03 25-Dec-2016

 -------------
 #p 6-31g* mp2
 -------------

 ------------------------------------------------------
 Input file generated by CHIRIPA (05-May-2021 14:51:10)
 ------------------------------------------------------
 Symbolic Z-matrix:
 Charge =  0 Multiplicity = 1

                         Standard orientation:
 ---------------------------------------------------------------------
 Center     Atomic      Atomic             Coordinates (Angstroms)
 Number     Number       Type             X           Y           Z
 ---------------------------------------------------------------------
      1          6           0        2.096783   -1.278677    0.427341
      2          6           0        1.181524   -2.164980   -0.418090
      3          6           0        0.256800   -3.038801    0.429917
      4          1           0        2.698006   -1.912933    1.093070
      5          1           0        1.480711   -0.640526    1.075888
      6          1           0        1.799110   -2.800289   -1.065846
      7          1           0        0.582547   -1.528553   -1.082020
      8          1           0       -0.383573   -2.418528    1.065358
      9          1           0        0.839903   -3.697490    1.081624
     10          1           0       -0.388698   -3.664238   -0.194598
     11          6           0        3.027171   -0.399254   -0.406158
     12          6           0        3.942429    0.487049    0.439273
     13          6           0        4.867153    1.360870   -0.408734
     14          1           0        3.643242   -1.037405   -1.054705
     15          1           0        2.425947    0.235002   -1.071886
     16          1           0        4.541407   -0.149378    1.103203
     17          1           0        3.324844    1.122358    1.087029
     18          1           0        4.284051    2.019559   -1.060441
     19          1           0        5.507526    0.740597   -1.044175
     20          1           0        5.512652    1.986307    0.215781
     21          6           0       -1.982415    1.304024    0.166215
     22          6           0       -2.282181    2.777996   -0.108616
     23          6           0       -1.113180    3.695877    0.250166
     24          1           0       -1.729234    1.179698    1.228000
     25          1           0       -1.092108    1.005523   -0.404438
     26          1           0       -3.172472    3.073261    0.461310
     27          1           0       -2.534864    2.898796   -1.169830
     28          1           0       -0.222577    3.429372   -0.328110
     29          1           0       -0.863808    3.604828    1.312299
     30          1           0       -1.349034    4.744902    0.045771
     31          6           0       -3.141538    0.373907   -0.187398
     32          6           0       -2.841773   -1.100065    0.087434
     33          6           0       -4.010774   -2.017946   -0.271350
     34          1           0       -4.031845    0.672408    0.383255
     35          1           0       -3.394720    0.498233   -1.249184
     36          1           0       -2.589090   -1.220865    1.148647
     37          1           0       -1.951482   -1.395331   -0.482493
     38          1           0       -4.260146   -1.926897   -1.333482
     39          1           0       -4.901376   -1.751441    0.306926
     40          1           0       -3.774920   -3.066972   -0.066953
 ---------------------------------------------------------------------

 SCF Done:  E(RHF) =  -470.732058719     A.U. after   11 cycles
 E2 =    -0.1584513415D+01 EUMP2 =    -0.47231657213440D+03

 The electronic state is 1-A.
 Alpha  occ. eigenvalues --  -11.21660 -11.21590 -11.21586 -11.21550 -11.21465
 Alpha  occ. eigenvalues --  -11.21390 -11.21378 -11.21326 -11.21132 -11.21065
 Alpha  occ. eigenvalues --  -11.21060 -11.20928  -1.08495  -1.08391  -1.03613
 Alpha  occ. eigenvalues --   -1.03455  -0.96039  -0.95924  -0.87056  -0.86941
 Alpha  occ. eigenvalues --   -0.79708  -0.79506  -0.78310  -0.78220  -0.65226
 Alpha  occ. eigenvalues --   -0.64938  -0.61118  -0.60815  -0.59423  -0.59259
 Alpha  occ. eigenvalues --   -0.57647  -0.57556  -0.55330  -0.55203  -0.52709
 Alpha  occ. eigenvalues --   -0.52630  -0.52460  -0.52342  -0.49974  -0.49922
 Alpha  occ. eigenvalues --   -0.48024  -0.47740  -0.46729  -0.46557  -0.45966
 Alpha  occ. eigenvalues --   -0.45869  -0.45543  -0.45506  -0.43811  -0.43758
 Alpha virt. eigenvalues --    0.20109   0.22905   0.23663   0.24680   0.25264
 Alpha virt. eigenvalues --    0.26014   0.27007   0.27929   0.28541   0.29870
 Alpha virt. eigenvalues --    0.30048   0.31196   0.31409   0.32076   0.32520

 Mulliken charges:
               1
     1  C   -0.298824
     2  C   -0.303157
     3  C   -0.481102
     4  H    0.149695
     5  H    0.151076
     6  H    0.152034
     7  H    0.152427
     8  H    0.162689
     9  H    0.154803
    10  H    0.159057
    11  C   -0.298245
    12  C   -0.299808
    13  C   -0.475624
    14  H    0.149478
    15  H    0.148789
    16  H    0.151910
    17  H    0.152448
    18  H    0.155002
    19  H    0.155080
    20  H    0.160326
    21  C   -0.300463
    22  C   -0.299551
    23  C   -0.475678
    24  H    0.149208
    25  H    0.150020
    26  H    0.152403
    27  H    0.152199
    28  H    0.154655
    29  H    0.155168
    30  H    0.160664
    31  C   -0.297467
    32  C   -0.307061
    33  C   -0.476014
    34  H    0.149415
    35  H    0.149413
    36  H    0.151357
    37  H    0.162870
    38  H    0.154881
    39  H    0.155021
    40  H    0.160907
 Sum of Mulliken charges =  -0.00000

 Dipole moment (field-independent basis, Debye):
    X=             -0.0276    Y=              0.0047    Z=              0.0155  Tot=              0.0320
 Quadrupole moment (field-independent basis, Debye-Ang):
   XX=            -85.2958   YY=            -85.4007   ZZ=            -84.1515
   XY=             -1.6133   XZ=             -0.1412   YZ=              0.2475

 Normal termination of Gaussian 16 at Thu May  6 03:47:02 2021.
