 Gaussian 16, Revision A.03,
 Gaussian 16:  EM64L-G16RevA.03 25-Dec-2016

 -------------
 #p 6-31g* mp2
 -------------

 ------------------------------------------------------
 Input file generated by CHIRIPA (05-May-2021 14:57:25)
 ------------------------------------------------------
 Symbolic Z-matrix:
 Charge =  0 Multiplicity = 1

                         Standard orientation:
 ---------------------------------------------------------------------
 Center     Atomic      Atomic             Coordinates (Angstroms)
 Number     Number       Type             X           Y           Z
 ---------------------------------------------------------------------
      1          6           0       -2.532088    2.640073   -0.076941
      2          6           0       -3.560904    2.234267   -0.933317
      3          6           0       -4.049230    0.925128   -0.885999
      4          6           0       -3.483151    0.044029    0.034060
      5          6           0       -2.457179    0.418263    0.900444
      6          6           0       -1.984475    1.732377    0.835597
      7          1           0       -2.158812    3.658976   -0.120508
      8          1           0       -3.988082    2.937045   -1.643013
      9          1           0       -4.844879    0.584425   -1.537369
     10          1           0       -2.051305   -0.304971    1.597305
     11          1           0       -1.185396    2.044749    1.501887
     12          7           0       -3.991851   -1.344531    0.093432
     13          8           0       -3.476285   -2.101641    0.912953
     14          8           0       -4.896503   -1.649483   -0.680677
     15          6           0        5.632295    0.894146   -0.157518
     16          6           0        4.516764    1.572523    0.344394
     17          6           0        3.274586    0.935822    0.422829
     18          6           0        3.183434   -0.385704   -0.011394
     19          6           0        4.276444   -1.088351   -0.516276
     20          6           0        5.508793   -0.431788   -0.585496
     21          1           0        6.593431    1.396465   -0.214870
     22          1           0        4.609728    2.602305    0.677490
     23          1           0        2.394725    1.437385    0.807145
     24          1           0        4.152688   -2.114435   -0.840705
     25          1           0        6.373424   -0.961101   -0.975733
     26          7           0        1.873599   -1.070265    0.066765
     27          8           0        1.819539   -2.234913   -0.322217
     28          8           0        0.925811   -0.429211    0.515529
 ---------------------------------------------------------------------

 SCF Done:  E(RHF) =  -868.337894224     A.U. after   16 cycles
 E2 =    -0.2599872362D+01 EUMP2 =    -0.87093776658656D+03

 The electronic state is 1-A.
 Alpha  occ. eigenvalues --  -20.61221 -20.61169 -20.59684 -20.59642 -15.86244
 Alpha  occ. eigenvalues --  -15.84719 -11.31591 -11.30039 -11.28210 -11.28112
 Alpha  occ. eigenvalues --  -11.27874 -11.27186 -11.27125 -11.26730 -11.26534
 Alpha  occ. eigenvalues --  -11.26523 -11.25773 -11.25651  -1.60253  -1.58739
 Alpha  occ. eigenvalues --   -1.39816  -1.38292  -1.19754  -1.18257  -1.09148
 Alpha  occ. eigenvalues --   -1.07692  -1.05159  -1.03649  -0.95992  -0.94514
 Alpha  occ. eigenvalues --   -0.86557  -0.85078  -0.82838  -0.81339  -0.77888
 Alpha  occ. eigenvalues --   -0.76361  -0.72480  -0.71568  -0.70949  -0.70864
 Alpha  occ. eigenvalues --   -0.70053  -0.69422  -0.65413  -0.65162  -0.63928
 Alpha  occ. eigenvalues --   -0.63703  -0.62515  -0.60989  -0.55649  -0.54261
 Alpha  occ. eigenvalues --   -0.53481  -0.53255  -0.51991  -0.51779  -0.49225
 Alpha  occ. eigenvalues --   -0.49185  -0.47716  -0.47684  -0.45224  -0.43705
 Alpha  occ. eigenvalues --   -0.37723  -0.36760  -0.36306  -0.35192
 Alpha virt. eigenvalues --    0.04654   0.06181   0.10896   0.12409   0.16152
 Alpha virt. eigenvalues --    0.17612   0.20780   0.22283   0.26317   0.27354
 Alpha virt. eigenvalues --    0.28749   0.29267   0.30540   0.31472   0.32824

 Mulliken charges:
               1
     1  C   -0.172723
     2  C   -0.219963
     3  C   -0.171825
     4  C    0.154593
     5  C   -0.153297
     6  C   -0.214741
     7  H    0.218250
     8  H    0.218127
     9  H    0.272219
    10  H    0.283367
    11  H    0.218343
    12  N    0.488545
    13  O   -0.456458
    14  O   -0.465906
    15  C   -0.170550
    16  C   -0.218159
    17  C   -0.170034
    18  C    0.159104
    19  C   -0.170193
    20  C   -0.218279
    21  H    0.226723
    22  H    0.222638
    23  H    0.268711
    24  H    0.277871
    25  H    0.225264
    26  N    0.491829
    27  O   -0.452632
    28  O   -0.470822
 Sum of Mulliken charges =  -0.00000

 Dipole moment (field-independent basis, Debye):
    X=              6.7934    Y=              6.9818    Z=             -0.4154  Tot=              9.7503
 Quadrupole moment (field-independent basis, Debye-Ang):
   XX=            -86.4215   YY=           -103.8902   ZZ=           -102.6458
   XY=            -13.4706   XZ=              1.0795   YZ=              1.2744

 Normal termination of Gaussian 16 at Wed May  5 22:48:26 2021.
