 Gaussian 16, Revision A.03,
 Gaussian 16:  EM64L-G16RevA.03 25-Dec-2016

 -------------
 #p 6-31g* mp2
 -------------

 ------------------------------------------------------
 Input file generated by CHIRIPA (05-May-2021 14:51:12)
 ------------------------------------------------------
 Symbolic Z-matrix:
 Charge =  0 Multiplicity = 1

                         Standard orientation:
 ---------------------------------------------------------------------
 Center     Atomic      Atomic             Coordinates (Angstroms)
 Number     Number       Type             X           Y           Z
 ---------------------------------------------------------------------
      1          6           0        2.264028    1.107736    0.090484
      2          6           0        2.755582    2.530956    0.356577
      3          6           0        1.633787    3.470678    0.799622
      4          1           0        1.481035    1.135035   -0.679660
      5          1           0        1.792745    0.713702    1.001541
      6          1           0        3.227032    2.921683   -0.554293
      7          1           0        3.537631    2.500244    1.126040
      8          1           0        1.168289    3.107179    1.721458
      9          1           0        0.855925    3.531012    0.031578
     10          1           0        2.007335    4.482696    0.984395
     11          6           0        3.373961    0.156490   -0.353259
     12          6           0        2.882406   -1.266730   -0.619351
     13          6           0        4.004202   -2.206452   -1.062397
     14          1           0        3.845244    0.550524   -1.264316
     15          1           0        4.156954    0.129190    0.416885
     16          1           0        2.100358   -1.236018   -1.388814
     17          1           0        2.410957   -1.657457    0.291519
     18          1           0        4.782064   -2.266786   -0.294352
     19          1           0        4.469700   -1.842953   -1.984232
     20          1           0        3.630654   -3.218470   -1.247170
     21          6           0       -2.302240   -1.184994    0.027853
     22          6           0       -1.665532   -1.671476    1.330129
     23          6           0       -0.633847   -2.777578    1.106610
     24          1           0       -2.778084   -2.034995   -0.480102
     25          1           0       -1.512962   -0.821085   -0.644461
     26          1           0       -2.455908   -2.033078    2.000327
     27          1           0       -1.191314   -0.820184    1.835135
     28          1           0        0.174844   -2.424824    0.458394
     29          1           0       -1.096935   -3.644610    0.624524
     30          1           0       -0.191249   -3.110472    2.050616
     31          6           0       -3.335749   -0.079232    0.234922
     32          6           0       -3.972457    0.407251   -1.067354
     33          6           0       -5.004141    1.513352   -0.843836
     34          1           0       -4.125027   -0.443140    0.907235
     35          1           0       -2.859905    0.770768    0.742876
     36          1           0       -4.446675   -0.444043   -1.572361
     37          1           0       -3.182081    0.768852   -1.737553
     38          1           0       -4.541054    2.380384   -0.361750
     39          1           0       -5.812833    1.160597   -0.195619
     40          1           0       -5.446740    1.846246   -1.787842
 ---------------------------------------------------------------------

 SCF Done:  E(RHF) =  -470.733241433     A.U. after   11 cycles
 E2 =    -0.1583181373D+01 EUMP2 =    -0.47231642280621D+03

 The electronic state is 1-A.
 Alpha  occ. eigenvalues --  -11.21663 -11.21640 -11.21581 -11.21549 -11.21475
 Alpha  occ. eigenvalues --  -11.21411 -11.21364 -11.21304 -11.21132 -11.21098
 Alpha  occ. eigenvalues --  -11.21052 -11.20955  -1.08497  -1.08386  -1.03591
 Alpha  occ. eigenvalues --   -1.03481  -0.96032  -0.95934  -0.87057  -0.86945
 Alpha  occ. eigenvalues --   -0.79706  -0.79510  -0.78331  -0.78185  -0.65137
 Alpha  occ. eigenvalues --   -0.65007  -0.61024  -0.60856  -0.59410  -0.59300
 Alpha  occ. eigenvalues --   -0.57675  -0.57520  -0.55324  -0.55223  -0.52726
 Alpha  occ. eigenvalues --   -0.52631  -0.52476  -0.52344  -0.50030  -0.49865
 Alpha  occ. eigenvalues --   -0.48068  -0.47778  -0.46764  -0.46505  -0.45945
 Alpha  occ. eigenvalues --   -0.45780  -0.45683  -0.45499  -0.43838  -0.43744
 Alpha virt. eigenvalues --    0.20904   0.23403   0.23647   0.24358   0.25384
 Alpha virt. eigenvalues --    0.26184   0.27329   0.27806   0.28326   0.29333
 Alpha virt. eigenvalues --    0.30832   0.31152   0.31770   0.31914   0.31939

 Mulliken charges:
               1
     1  C   -0.299596
     2  C   -0.299620
     3  C   -0.475763
     4  H    0.149209
     5  H    0.150024
     6  H    0.152247
     7  H    0.152297
     8  H    0.155059
     9  H    0.154933
    10  H    0.160646
    11  C   -0.297685
    12  C   -0.306037
    13  C   -0.475438
    14  H    0.149736
    15  H    0.149930
    16  H    0.151677
    17  H    0.158236
    18  H    0.155315
    19  H    0.155214
    20  H    0.160950
    21  C   -0.298656
    22  C   -0.299184
    23  C   -0.484008
    24  H    0.149368
    25  H    0.150053
    26  H    0.151526
    27  H    0.151714
    28  H    0.164851
    29  H    0.154584
    30  H    0.158717
    31  C   -0.298432
    32  C   -0.299513
    33  C   -0.475727
    34  H    0.149386
    35  H    0.150069
    36  H    0.151839
    37  H    0.151501
    38  H    0.155314
    39  H    0.155173
    40  H    0.160089
 Sum of Mulliken charges =  -0.00000

 Dipole moment (field-independent basis, Debye):
    X=              0.0544    Y=              0.0097    Z=             -0.0089  Tot=              0.0559
 Quadrupole moment (field-independent basis, Debye-Ang):
   XX=            -85.2352   YY=            -85.5353   ZZ=            -83.9730
   XY=              1.6053   XZ=              0.3668   YZ=             -0.5121

 Normal termination of Gaussian 16 at Thu May  6 02:20:08 2021.
