 Gaussian 16, Revision A.03,
 Gaussian 16:  EM64L-G16RevA.03 25-Dec-2016

 -------------
 #p 6-31g* mp2
 -------------

 ------------------------------------------------------
 Input file generated by CHIRIPA (05-May-2021 14:51:12)
 ------------------------------------------------------
 Symbolic Z-matrix:
 Charge =  0 Multiplicity = 1

                         Standard orientation:
 ---------------------------------------------------------------------
 Center     Atomic      Atomic             Coordinates (Angstroms)
 Number     Number       Type             X           Y           Z
 ---------------------------------------------------------------------
      1          6           0       -4.040646    0.423530   -0.223700
      2          6           0       -4.774674   -0.554624    0.694125
      3          6           0       -6.134432   -0.979411    0.138781
      4          1           0       -4.668332    1.311601   -0.379534
      5          1           0       -3.905905   -0.041033   -1.210320
      6          1           0       -4.906764   -0.088880    1.679138
      7          1           0       -4.145086   -1.440386    0.847947
      8          1           0       -6.017711   -1.467804   -0.834075
      9          1           0       -6.783717   -0.108620    0.001838
     10          1           0       -6.641852   -1.678624    0.810708
     11          6           0       -2.679714    0.857442    0.317884
     12          6           0       -1.945686    1.835596   -0.599941
     13          6           0       -0.585927    2.260383   -0.044597
     14          1           0       -2.814454    1.322006    1.304504
     15          1           0       -2.052027   -0.030629    0.473718
     16          1           0       -2.575274    2.721358   -0.753763
     17          1           0       -1.813595    1.369852   -1.584954
     18          1           0        0.063357    1.389592    0.092346
     19          1           0       -0.702649    2.748776    0.928259
     20          1           0       -0.078507    2.959596   -0.716524
     21          6           0        4.039545   -0.578374    0.296475
     22          6           0        4.845739    0.634665   -0.168898
     23          6           0        6.202434    0.745304    0.527472
     24          1           0        3.891515   -0.517221    1.383347
     25          1           0        4.623237   -1.490751    0.111362
     26          1           0        4.260126    1.544375    0.015765
     27          1           0        4.991702    0.570714   -1.254819
     28          1           0        6.808932   -0.145211    0.333198
     29          1           0        6.073201    0.833982    1.611001
     30          1           0        6.762012    1.619330    0.179891
     31          6           0        2.680816   -0.702598   -0.390658
     32          6           0        1.874620   -1.915637    0.074715
     33          6           0        0.517925   -2.026277   -0.621655
     34          1           0        2.097124    0.209779   -0.205546
     35          1           0        2.828843   -0.763751   -1.477532
     36          1           0        1.728659   -1.851687    1.160635
     37          1           0        2.460233   -2.825347   -0.109950
     38          1           0        0.647158   -2.114954   -1.705186
     39          1           0       -0.088573   -1.135761   -0.427382
     40          1           0       -0.041653   -2.900302   -0.274075
 ---------------------------------------------------------------------

 SCF Done:  E(RHF) =  -470.732578373     A.U. after   11 cycles
 E2 =    -0.1584012893D+01 EUMP2 =    -0.47231659126589D+03

 The electronic state is 1-A.
 Alpha  occ. eigenvalues --  -11.21636 -11.21615 -11.21585 -11.21584 -11.21399
 Alpha  occ. eigenvalues --  -11.21394 -11.21340 -11.21335 -11.21125 -11.21097
 Alpha  occ. eigenvalues --  -11.21057 -11.21056  -1.08459  -1.08414  -1.03578
 Alpha  occ. eigenvalues --   -1.03510  -0.96010  -0.95979  -0.87054  -0.86975
 Alpha  occ. eigenvalues --   -0.79666  -0.79555  -0.78307  -0.78189  -0.65251
 Alpha  occ. eigenvalues --   -0.64932  -0.61165  -0.60738  -0.59389  -0.59330
 Alpha  occ. eigenvalues --   -0.57618  -0.57587  -0.55420  -0.55179  -0.52706
 Alpha  occ. eigenvalues --   -0.52680  -0.52492  -0.52350  -0.50119  -0.49785
 Alpha  occ. eigenvalues --   -0.48087  -0.47829  -0.46895  -0.46509  -0.45926
 Alpha  occ. eigenvalues --   -0.45760  -0.45732  -0.45258  -0.43798  -0.43784
 Alpha virt. eigenvalues --    0.20399   0.22949   0.23757   0.24958   0.25914
 Alpha virt. eigenvalues --    0.26226   0.27157   0.27415   0.28696   0.29300
 Alpha virt. eigenvalues --    0.30730   0.31566   0.31727   0.31818   0.31898

 Mulliken charges:
               1
     1  C   -0.297898
     2  C   -0.299809
     3  C   -0.475738
     4  H    0.149549
     5  H    0.150002
     6  H    0.151739
     7  H    0.152378
     8  H    0.155329
     9  H    0.155086
    10  H    0.160184
    11  C   -0.304510
    12  C   -0.299384
    13  C   -0.484832
    14  H    0.149492
    15  H    0.154751
    16  H    0.152337
    17  H    0.152773
    18  H    0.162212
    19  H    0.155321
    20  H    0.160735
    21  C   -0.297607
    22  C   -0.299885
    23  C   -0.475723
    24  H    0.149674
    25  H    0.149445
    26  H    0.152607
    27  H    0.151845
    28  H    0.155075
    29  H    0.155226
    30  H    0.160256
    31  C   -0.306751
    32  C   -0.299022
    33  C   -0.485041
    34  H    0.157460
    35  H    0.149656
    36  H    0.151895
    37  H    0.152304
    38  H    0.155581
    39  H    0.163064
    40  H    0.160220
 Sum of Mulliken charges =  -0.00000

 Dipole moment (field-independent basis, Debye):
    X=              0.0020    Y=              0.0043    Z=             -0.0061  Tot=              0.0077
 Quadrupole moment (field-independent basis, Debye-Ang):
   XX=            -86.4604   YY=            -84.0819   ZZ=            -84.2427
   XY=             -1.1757   XZ=             -1.2017   YZ=              0.6021

 Normal termination of Gaussian 16 at Wed May  5 19:53:53 2021.
