 Gaussian 16, Revision A.03,
 Gaussian 16:  EM64L-G16RevA.03 25-Dec-2016

 -------------
 #p 6-31g* mp2
 -------------

 ------------------------------------------------------
 Input file generated by CHIRIPA (05-May-2021 14:53:13)
 ------------------------------------------------------
 Symbolic Z-matrix:
 Charge =  0 Multiplicity = 1

                         Standard orientation:
 ---------------------------------------------------------------------
 Center     Atomic      Atomic             Coordinates (Angstroms)
 Number     Number       Type             X           Y           Z
 ---------------------------------------------------------------------
      1          6           0        3.372357   -0.525636    0.239608
      2          6           0        3.576872   -1.915259   -0.364633
      3          6           0        3.879888   -2.979803    0.690223
      4          1           0        4.272364   -0.241124    0.801735
      5          1           0        2.549698   -0.567124    0.966867
      6          1           0        4.397990   -1.870854   -1.091551
      7          1           0        2.676347   -2.196415   -0.925546
      8          1           0        3.058514   -3.053369    1.410316
      9          1           0        4.789939   -2.725959    1.243368
     10          1           0        4.022524   -3.965491    0.236421
     11          6           0        3.068601    0.549358   -0.802431
     12          6           0        2.864087    1.938981   -0.198190
     13          6           0        2.561071    3.003526   -1.253046
     14          1           0        3.891260    0.590846   -1.529690
     15          1           0        2.168594    0.264847   -1.364558
     16          1           0        3.764611    2.220137    0.362723
     17          1           0        2.042969    1.894576    0.528728
     18          1           0        1.651019    2.749681   -1.806192
     19          1           0        3.382444    3.077092   -1.973140
     20          1           0        2.418435    3.989213   -0.799244
     21          6           0       -1.001859    1.607953    1.427290
     22          6           0       -0.626299    0.267703    1.288710
     23          6           0       -1.457377   -0.637210    0.621632
     24          6           0       -2.662381   -0.165613    0.103122
     25          6           0       -3.064430    1.163602    0.224922
     26          6           0       -2.217583    2.050844    0.895891
     27          1           0       -0.350134    2.304048    1.947003
     28          1           0        0.317270   -0.079057    1.700389
     29          1           0       -1.191220   -1.680177    0.499990
     30          1           0       -4.011117    1.479708   -0.196119
     31          1           0       -2.511826    3.091134    1.002010
     32          7           0       -3.550552   -1.114250   -0.605143
     33          8           0       -4.607018   -0.673817   -1.052953
     34          8           0       -3.173418   -2.280263   -0.699059
 ---------------------------------------------------------------------

 SCF Done:  E(RHF) =  -669.535209542     A.U. after   15 cycles
 E2 =    -0.2092883180D+01 EUMP2 =    -0.67162809272212D+03

 The electronic state is 1-A.
 Alpha  occ. eigenvalues --  -20.60809 -20.60803 -15.85863 -11.31247 -11.27816
 Alpha  occ. eigenvalues --  -11.27812 -11.27554 -11.26826 -11.26813 -11.22351
 Alpha  occ. eigenvalues --  -11.22215 -11.22153 -11.22010 -11.21679 -11.21597
 Alpha  occ. eigenvalues --   -1.59884  -1.39437  -1.19421  -1.09128  -1.08806
 Alpha  occ. eigenvalues --   -1.04825  -1.04166  -0.96608  -0.95643  -0.87619
 Alpha  occ. eigenvalues --   -0.86225  -0.82475  -0.80237  -0.78962  -0.77517
 Alpha  occ. eigenvalues --   -0.72080  -0.71207  -0.70528  -0.65875  -0.65072
 Alpha  occ. eigenvalues --   -0.64744  -0.62164  -0.61568  -0.59979  -0.58226
 Alpha  occ. eigenvalues --   -0.55919  -0.55299  -0.53291  -0.53145  -0.53068
 Alpha  occ. eigenvalues --   -0.52877  -0.50543  -0.48844  -0.48835  -0.48549
 Alpha  occ. eigenvalues --   -0.47277  -0.46478  -0.46390  -0.44838  -0.44437
 Alpha  occ. eigenvalues --   -0.37374  -0.36416
 Alpha virt. eigenvalues --    0.04989   0.11097   0.16404   0.19258   0.22932
 Alpha virt. eigenvalues --    0.23346   0.24998   0.26408   0.26882   0.27909
 Alpha virt. eigenvalues --    0.29311   0.30692   0.31106   0.31313   0.31891

 Mulliken charges:
               1
     1  C   -0.300747
     2  C   -0.301027
     3  C   -0.475392
     4  H    0.152046
     5  H    0.139323
     6  H    0.155405
     7  H    0.154219
     8  H    0.151391
     9  H    0.156194
    10  H    0.164376
    11  C   -0.299381
    12  C   -0.300550
    13  C   -0.476512
    14  H    0.153181
    15  H    0.153999
    16  H    0.152609
    17  H    0.143051
    18  H    0.158883
    19  H    0.158220
    20  H    0.158134
    21  C   -0.171833
    22  C   -0.221140
    23  C   -0.173797
    24  C    0.158611
    25  C   -0.170890
    26  C   -0.219107
    27  H    0.226952
    28  H    0.230709
    29  H    0.275688
    30  H    0.275892
    31  H    0.223924
    32  N    0.488109
    33  O   -0.460231
    34  O   -0.460307
 Sum of Mulliken charges =  -0.00000

 Dipole moment (field-independent basis, Debye):
    X=              3.2077    Y=              3.3170    Z=              2.3673  Tot=              5.1861
 Quadrupole moment (field-independent basis, Debye-Ang):
   XX=           -108.2030   YY=            -94.0048   ZZ=            -95.2410
   XY=            -12.1533   XZ=             -6.3623   YZ=             -0.1855

 Normal termination of Gaussian 16 at Wed May  5 20:12:27 2021.
