 Gaussian 16, Revision A.03,
 Gaussian 16:  EM64L-G16RevA.03 25-Dec-2016

 -------------
 #p 6-31g* mp2
 -------------

 ------------------------------------------------------
 Input file generated by CHIRIPA (05-May-2021 14:57:25)
 ------------------------------------------------------
 Symbolic Z-matrix:
 Charge =  0 Multiplicity = 1

                         Standard orientation:
 ---------------------------------------------------------------------
 Center     Atomic      Atomic             Coordinates (Angstroms)
 Number     Number       Type             X           Y           Z
 ---------------------------------------------------------------------
      1          6           0        1.289521    0.302995    2.349031
      2          6           0        1.953383    1.357404    1.713397
      3          6           0        2.750550    1.119984    0.589697
      4          6           0        2.862102   -0.190048    0.126378
      5          6           0        2.213222   -1.261665    0.737837
      6          6           0        1.421327   -1.000875    1.860084
      7          1           0        0.672310    0.496506    3.221384
      8          1           0        1.852849    2.371021    2.090916
      9          1           0        3.275556    1.917668    0.078341
     10          1           0        2.332706   -2.261414    0.338282
     11          1           0        0.906923   -1.821693    2.351705
     12          7           0        3.703236   -0.453764   -1.062465
     13          8           0        3.785247   -1.616915   -1.451041
     14          8           0        4.264580    0.507679   -1.583192
     15          6           0       -1.501373    2.333283   -0.623551
     16          6           0       -2.891773    2.323657   -0.471185
     17          6           0       -3.579338    1.117956   -0.303592
     18          6           0       -2.841620   -0.064818   -0.293191
     19          6           0       -1.455818   -0.087975   -0.442538
     20          6           0       -0.789088    1.129558   -0.608767
     21          1           0       -0.975349    3.274496   -0.753213
     22          1           0       -3.447536    3.256957   -0.482266
     23          1           0       -4.655287    1.081609   -0.183466
     24          1           0       -0.929143   -1.034442   -0.427273
     25          1           0        0.290762    1.134004   -0.726870
     26          7           0       -3.558486   -1.347503   -0.116489
     27          8           0       -2.885476   -2.375930   -0.110887
     28          8           0       -4.779801   -1.300155    0.013062
 ---------------------------------------------------------------------

 SCF Done:  E(RHF) =  -868.336489268     A.U. after   16 cycles
 E2 =    -0.2604360688D+01 EUMP2 =    -0.87094084995562D+03

 The electronic state is 1-A.
 Alpha  occ. eigenvalues --  -20.61553 -20.61531 -20.61036 -20.61020 -15.86606
 Alpha  occ. eigenvalues --  -15.86076 -11.32163 -11.31358 -11.28680 -11.28642
 Alpha  occ. eigenvalues --  -11.28311 -11.27895 -11.27817 -11.27684 -11.27613
 Alpha  occ. eigenvalues --  -11.27605 -11.26946 -11.26735  -1.60625  -1.60107
 Alpha  occ. eigenvalues --   -1.40169  -1.39663  -1.20338  -1.19505  -1.09635
 Alpha  occ. eigenvalues --   -1.08929  -1.05715  -1.04879  -0.96448  -0.95779
 Alpha  occ. eigenvalues --   -0.87058  -0.86295  -0.83256  -0.82606  -0.78310
 Alpha  occ. eigenvalues --   -0.77674  -0.72798  -0.72296  -0.71976  -0.71432
 Alpha  occ. eigenvalues --   -0.71297  -0.70636  -0.65905  -0.65619  -0.65151
 Alpha  occ. eigenvalues --   -0.64927  -0.63005  -0.62311  -0.56087  -0.55499
 Alpha  occ. eigenvalues --   -0.54240  -0.53717  -0.53183  -0.52665  -0.49579
 Alpha  occ. eigenvalues --   -0.49555  -0.49058  -0.49038  -0.45529  -0.45085
 Alpha  occ. eigenvalues --   -0.38479  -0.37701  -0.37120  -0.36237
 Alpha virt. eigenvalues --    0.04154   0.04835   0.09924   0.11495   0.15611
 Alpha virt. eigenvalues --    0.16359   0.20597   0.21555   0.26327   0.27240
 Alpha virt. eigenvalues --    0.27744   0.28281   0.30115   0.31216   0.31831

 Mulliken charges:
               1
     1  C   -0.166335
     2  C   -0.214962
     3  C   -0.190685
     4  C    0.159385
     5  C   -0.178912
     6  C   -0.219858
     7  H    0.231452
     8  H    0.225142
     9  H    0.276524
    10  H    0.282084
    11  H    0.234363
    12  N    0.487668
    13  O   -0.455459
    14  O   -0.459768
    15  C   -0.177734
    16  C   -0.218449
    17  C   -0.173017
    18  C    0.157618
    19  C   -0.175029
    20  C   -0.216672
    21  H    0.223503
    22  H    0.222858
    23  H    0.274999
    24  H    0.272852
    25  H    0.232870
    26  N    0.488037
    27  O   -0.462668
    28  O   -0.459808
 Sum of Mulliken charges =  -0.00000

 Dipole moment (field-independent basis, Debye):
    X=             -0.2122    Y=              5.3044    Z=              3.7676  Tot=              6.5097
 Quadrupole moment (field-independent basis, Debye-Ang):
   XX=           -133.1386   YY=           -100.2642   ZZ=           -104.2849
   XY=            -11.3356   XZ=             12.4818   YZ=             -2.2131

 Normal termination of Gaussian 16 at Thu May  6 08:19:52 2021.
