 Gaussian 16, Revision A.03,
 Gaussian 16:  EM64L-G16RevA.03 25-Dec-2016

 -------------
 #p 6-31g* mp2
 -------------

 ------------------------------------------------------
 Input file generated by CHIRIPA (05-May-2021 14:53:14)
 ------------------------------------------------------
 Symbolic Z-matrix:
 Charge =  0 Multiplicity = 1

                         Standard orientation:
 ---------------------------------------------------------------------
 Center     Atomic      Atomic             Coordinates (Angstroms)
 Number     Number       Type             X           Y           Z
 ---------------------------------------------------------------------
      1          6           0       -4.509137    0.454018    0.130579
      2          6           0       -5.936930    0.593735   -0.398451
      3          6           0       -6.718282    1.709317    0.296359
      4          1           0       -4.542657    0.261685    1.211703
      5          1           0       -3.981774    1.409017   -0.000799
      6          1           0       -6.461014   -0.361656   -0.267379
      7          1           0       -5.900013    0.785568   -1.478476
      8          1           0       -6.220590    2.674117    0.154708
      9          1           0       -6.784779    1.520375    1.372686
     10          1           0       -7.736231    1.791675   -0.097159
     11          6           0       -3.715345   -0.657117   -0.554257
     12          6           0       -2.287553   -0.796834   -0.025227
     13          6           0       -1.506200   -1.912415   -0.720037
     14          1           0       -4.242708   -1.612116   -0.422879
     15          1           0       -3.681825   -0.464784   -1.635381
     16          1           0       -2.324470   -0.988666    1.054798
     17          1           0       -1.763469    0.158557   -0.156299
     18          1           0       -1.439704   -1.723473   -1.796364
     19          1           0       -2.003892   -2.877215   -0.578386
     20          1           0       -0.488251   -1.994773   -0.326519
     21          6           0        4.607277    2.025063   -0.631490
     22          6           0        3.755430    2.178011    0.467366
     23          6           0        2.978102    1.106778    0.917662
     24          6           0        3.077865   -0.108770    0.242549
     25          6           0        3.917185   -0.292491   -0.855211
     26          6           0        4.685298    0.792472   -1.288114
     27          1           0        5.207546    2.862555   -0.974535
     28          1           0        3.692799    3.134101    0.979242
     29          1           0        2.310338    1.197540    1.765762
     30          1           0        3.958149   -1.257761   -1.345104
     31          1           0        5.345986    0.670792   -2.141772
     32          7           0        2.259820   -1.250105    0.710051
     33          8           0        2.365836   -2.310710    0.098076
     34          8           0        1.528109   -1.062466    1.679602
 ---------------------------------------------------------------------

 SCF Done:  E(RHF) =  -669.536336325     A.U. after   15 cycles
 E2 =    -0.2091483465D+01 EUMP2 =    -0.67162781978986D+03

 The electronic state is 1-A.
 Alpha  occ. eigenvalues --  -20.60986 -20.60981 -15.85993 -11.31305 -11.27865
 Alpha  occ. eigenvalues --  -11.27861 -11.27603 -11.26867 -11.26857 -11.21183
 Alpha  occ. eigenvalues --  -11.20844 -11.20748 -11.20664 -11.20590 -11.19761
 Alpha  occ. eigenvalues --   -1.60041  -1.39591  -1.19471  -1.08879  -1.07770
 Alpha  occ. eigenvalues --   -1.04863  -1.02794  -0.95723  -0.95236  -0.86264
 Alpha  occ. eigenvalues --   -0.86256  -0.82557  -0.78888  -0.77616  -0.77552
 Alpha  occ. eigenvalues --   -0.72205  -0.71375  -0.70580  -0.65124  -0.64866
 Alpha  occ. eigenvalues --   -0.64414  -0.62209  -0.60207  -0.58631  -0.56819
 Alpha  occ. eigenvalues --   -0.55369  -0.54550  -0.53202  -0.52954  -0.51887
 Alpha  occ. eigenvalues --   -0.51668  -0.49215  -0.48977  -0.48952  -0.47175
 Alpha  occ. eigenvalues --   -0.45953  -0.45112  -0.45022  -0.44991  -0.43017
 Alpha  occ. eigenvalues --   -0.37447  -0.36463
 Alpha virt. eigenvalues --    0.04861   0.11193   0.16362   0.21326   0.23461
 Alpha virt. eigenvalues --    0.25079   0.27229   0.27278   0.28038   0.28249
 Alpha virt. eigenvalues --    0.28816   0.30861   0.32069   0.32319   0.32530

 Mulliken charges:
               1
     1  C   -0.297330
     2  C   -0.299013
     3  C   -0.475236
     4  H    0.149932
     5  H    0.146670
     6  H    0.151906
     7  H    0.150585
     8  H    0.153592
     9  H    0.155046
    10  H    0.158857
    11  C   -0.297707
    12  C   -0.297034
    13  C   -0.484566
    14  H    0.149007
    15  H    0.146422
    16  H    0.157229
    17  H    0.144881
    18  H    0.146315
    19  H    0.153502
    20  H    0.181796
    21  C   -0.170432
    22  C   -0.218716
    23  C   -0.170792
    24  C    0.159901
    25  C   -0.170621
    26  C   -0.218696
    27  H    0.226067
    28  H    0.223912
    29  H    0.276131
    30  H    0.276117
    31  H    0.223913
    32  N    0.486507
    33  O   -0.459120
    34  O   -0.459026
 Sum of Mulliken charges =  -0.00000

 Dipole moment (field-independent basis, Debye):
    X=              3.1708    Y=              3.9618    Z=             -1.5471  Tot=              5.3051
 Quadrupole moment (field-independent basis, Debye-Ang):
   XX=            -77.9309   YY=            -94.4924   ZZ=            -93.1013
   XY=             11.9974   XZ=             -6.3631   YZ=              2.6369

 Normal termination of Gaussian 16 at Thu May  6 05:49:26 2021.
