 Gaussian 16, Revision A.03,
 Gaussian 16:  EM64L-G16RevA.03 25-Dec-2016

 -------------
 #p 6-31g* mp2
 -------------

 ------------------------------------------------------
 Input file generated by CHIRIPA (05-May-2021 14:53:12)
 ------------------------------------------------------
 Symbolic Z-matrix:
 Charge =  0 Multiplicity = 1

                         Standard orientation:
 ---------------------------------------------------------------------
 Center     Atomic      Atomic             Coordinates (Angstroms)
 Number     Number       Type             X           Y           Z
 ---------------------------------------------------------------------
      1          6           0       -4.090585    0.714421   -0.431968
      2          6           0       -3.631040    1.884001    0.439173
      3          6           0       -4.109741    3.237230   -0.087524
      4          1           0       -3.722411    0.861793   -1.456505
      5          1           0       -5.187833    0.718836   -0.490469
      6          1           0       -2.535048    1.876562    0.497144
      7          1           0       -4.000189    1.733731    1.461799
      8          1           0       -5.203285    3.269530   -0.128974
      9          1           0       -3.729819    3.413172   -1.099109
     10          1           0       -3.769982    4.059244    0.550220
     11          6           0       -3.619868   -0.645112    0.081670
     12          6           0       -4.079413   -1.814692   -0.789471
     13          6           0       -3.600713   -3.167922   -0.262775
     14          1           0       -2.522620   -0.649527    0.140170
     15          1           0       -3.988042   -0.792484    1.106206
     16          1           0       -3.710264   -1.664422   -1.812097
     17          1           0       -5.175406   -1.807253   -0.847443
     18          1           0       -3.980635   -3.343864    0.748811
     19          1           0       -2.507168   -3.200221   -0.221325
     20          1           0       -3.940471   -3.989936   -0.900519
     21          6           0        1.036623   -0.396042    1.662640
     22          6           0        0.841524   -0.268155    0.283473
     23          6           0        1.928630   -0.063461   -0.571424
     24          6           0        3.202858    0.008597   -0.010674
     25          6           0        3.429589   -0.115011    1.359218
     26          6           0        2.327756   -0.319198    2.195172
     27          1           0        0.186413   -0.554856    2.319387
     28          1           0       -0.160062   -0.327417   -0.132890
     29          1           0        1.806137    0.038908   -1.642842
     30          1           0        4.439872   -0.051546    1.744861
     31          1           0        2.482263   -0.418165    3.265863
     32          7           0        4.361524    0.225028   -0.905688
     33          8           0        5.474115    0.284806   -0.386838
     34          8           0        4.135156    0.330792   -2.109103
 ---------------------------------------------------------------------

 SCF Done:  E(RHF) =  -669.535548561     A.U. after   15 cycles
 E2 =    -0.2091352599D+01 EUMP2 =    -0.67162690115983D+03

 The electronic state is 1-A.
 Alpha  occ. eigenvalues --  -20.60755 -20.60750 -15.85808 -11.31173 -11.27748
 Alpha  occ. eigenvalues --  -11.27744 -11.27479 -11.26754 -11.26740 -11.22491
 Alpha  occ. eigenvalues --  -11.22418 -11.22405 -11.22218 -11.21842 -11.21673
 Alpha  occ. eigenvalues --   -1.59830  -1.39384  -1.19347  -1.09324  -1.08740
 Alpha  occ. eigenvalues --   -1.04753  -1.04318  -0.96768  -0.95574  -0.87777
 Alpha  occ. eigenvalues --   -0.86154  -0.82409  -0.80387  -0.79164  -0.77457
 Alpha  occ. eigenvalues --   -0.72027  -0.71154  -0.70448  -0.66020  -0.64998
 Alpha  occ. eigenvalues --   -0.64731  -0.62111  -0.61706  -0.60131  -0.58379
 Alpha  occ. eigenvalues --   -0.56067  -0.55241  -0.53417  -0.53203  -0.53079
 Alpha  occ. eigenvalues --   -0.52844  -0.50705  -0.48794  -0.48782  -0.48693
 Alpha  occ. eigenvalues --   -0.47430  -0.46670  -0.46609  -0.44790  -0.44606
 Alpha  occ. eigenvalues --   -0.37324  -0.36357
 Alpha virt. eigenvalues --    0.05082   0.11257   0.16571   0.18637   0.22751
 Alpha virt. eigenvalues --    0.23592   0.24741   0.26282   0.27216   0.28136
 Alpha virt. eigenvalues --    0.29561   0.30553   0.31084   0.31351   0.31755

 Mulliken charges:
               1
     1  C   -0.298690
     2  C   -0.300579
     3  C   -0.476068
     4  H    0.150848
     5  H    0.153700
     6  H    0.147740
     7  H    0.152412
     8  H    0.157092
     9  H    0.157056
    10  H    0.162481
    11  C   -0.303325
    12  C   -0.300068
    13  C   -0.476235
    14  H    0.140025
    15  H    0.151866
    16  H    0.153377
    17  H    0.155958
    18  H    0.155904
    19  H    0.152461
    20  H    0.164504
    21  C   -0.173092
    22  C   -0.226546
    23  C   -0.172075
    24  C    0.159016
    25  C   -0.171127
    26  C   -0.218672
    27  H    0.226466
    28  H    0.233512
    29  H    0.276002
    30  H    0.275602
    31  H    0.223479
    32  N    0.487926
    33  O   -0.460463
    34  O   -0.460488
 Sum of Mulliken charges =  -0.00000

 Dipole moment (field-independent basis, Debye):
    X=             -4.3008    Y=             -0.7500    Z=              3.1334  Tot=              5.3738
 Quadrupole moment (field-independent basis, Debye-Ang):
   XX=           -117.7768   YY=            -96.3472   ZZ=            -91.6068
   XY=             -2.2139   XZ=             12.6399   YZ=              0.1706

 Normal termination of Gaussian 16 at Thu May  6 02:31:28 2021.
