 Gaussian 16, Revision A.03,
 Gaussian 16:  EM64L-G16RevA.03 25-Dec-2016

 -------------
 #p 6-31g* mp2
 -------------

 ------------------------------------------------------
 Input file generated by CHIRIPA (05-May-2021 14:57:24)
 ------------------------------------------------------
 Symbolic Z-matrix:
 Charge =  0 Multiplicity = 1

                         Standard orientation:
 ---------------------------------------------------------------------
 Center     Atomic      Atomic             Coordinates (Angstroms)
 Number     Number       Type             X           Y           Z
 ---------------------------------------------------------------------
      1          6           0        1.857829    2.341594    0.849440
      2          6           0        2.664815    2.097169   -0.266603
      3          6           0        3.099749    0.800858   -0.558075
      4          6           0        2.707063   -0.232114    0.291663
      5          6           0        1.903724   -0.020554    1.411118
      6          6           0        1.480525    1.283817    1.683268
      7          1           0        1.524519    3.351731    1.068358
      8          1           0        2.959385    2.916718   -0.915920
      9          1           0        3.725091    0.583427   -1.415449
     10          1           0        1.626424   -0.857906    2.039898
     11          1           0        0.853872    1.470684    2.550697
     12          7           0        3.161297   -1.608728   -0.006678
     13          8           0        2.801543   -2.501567    0.757555
     14          8           0        3.868479   -1.768811   -0.999101
     15          6           0       -0.578985    1.089124   -1.328462
     16          6           0       -1.583894    1.879855   -0.761521
     17          6           0       -2.725863    1.290102   -0.211389
     18          6           0       -2.830697   -0.099555   -0.245353
     19          6           0       -1.846702   -0.914418   -0.803062
     20          6           0       -0.713359   -0.303035   -1.347390
     21          1           0        0.304773    1.555660   -1.753564
     22          1           0       -1.482224    2.961266   -0.745425
     23          1           0       -3.519025    1.878402    0.233826
     24          1           0       -1.976358   -1.989874   -0.804385
     25          1           0        0.065474   -0.919629   -1.787022
     26          7           0       -4.035082   -0.735349    0.333976
     27          8           0       -4.103542   -1.961790    0.291622
     28          8           0       -4.887814    0.004794    0.819436
 ---------------------------------------------------------------------

 SCF Done:  E(RHF) =  -868.335352940     A.U. after   16 cycles
 E2 =    -0.2605465452D+01 EUMP2 =    -0.87094081839161D+03

 The electronic state is 1-A.
 Alpha  occ. eigenvalues --  -20.61647 -20.61627 -20.60879 -20.60863 -15.86692
 Alpha  occ. eigenvalues --  -15.85932 -11.32144 -11.31285 -11.28763 -11.28628
 Alpha  occ. eigenvalues --  -11.28436 -11.27950 -11.27850 -11.27770 -11.27615
 Alpha  occ. eigenvalues --  -11.27534 -11.26936 -11.26785  -1.60723  -1.59954
 Alpha  occ. eigenvalues --   -1.40268  -1.39507  -1.20343  -1.19480  -1.09718
 Alpha  occ. eigenvalues --   -1.08862  -1.05726  -1.04899  -0.96521  -0.95703
 Alpha  occ. eigenvalues --   -0.87114  -0.86296  -0.83335  -0.82542  -0.78371
 Alpha  occ. eigenvalues --   -0.77594  -0.72893  -0.72152  -0.72072  -0.71410
 Alpha  occ. eigenvalues --   -0.71286  -0.70616  -0.65958  -0.65699  -0.65131
 Alpha  occ. eigenvalues --   -0.64921  -0.63041  -0.62250  -0.56215  -0.55681
 Alpha  occ. eigenvalues --   -0.54343  -0.53784  -0.52989  -0.52666  -0.49668
 Alpha  occ. eigenvalues --   -0.49651  -0.48910  -0.48899  -0.45647  -0.44915
 Alpha  occ. eigenvalues --   -0.38616  -0.37516  -0.36997  -0.36362
 Alpha virt. eigenvalues --    0.04086   0.04973   0.10096   0.11239   0.15531
 Alpha virt. eigenvalues --    0.16443   0.20207   0.21555   0.26294   0.26482
 Alpha virt. eigenvalues --    0.27800   0.28697   0.29655   0.31475   0.31782

 Mulliken charges:
               1
     1  C   -0.170049
     2  C   -0.230982
     3  C   -0.178140
     4  C    0.157965
     5  C   -0.166474
     6  C   -0.211216
     7  H    0.226199
     8  H    0.224369
     9  H    0.277060
    10  H    0.280214
    11  H    0.228843
    12  N    0.485895
    13  O   -0.455893
    14  O   -0.460280
    15  C   -0.160433
    16  C   -0.223780
    17  C   -0.172853
    18  C    0.156116
    19  C   -0.171247
    20  C   -0.223921
    21  H    0.225541
    22  H    0.216046
    23  H    0.273862
    24  H    0.279274
    25  H    0.226671
    26  N    0.487948
    27  O   -0.458490
    28  O   -0.462244
 Sum of Mulliken charges =  -0.00000

 Dipole moment (field-independent basis, Debye):
    X=              2.8025    Y=              6.9195    Z=             -0.7828  Tot=              7.5064
 Quadrupole moment (field-independent basis, Debye-Ang):
   XX=           -137.3846   YY=           -103.6783   ZZ=           -100.4373
   XY=              5.9756   XZ=              4.7228   YZ=              0.7364

 Normal termination of Gaussian 16 at Fri May  7 01:55:15 2021.
