 Gaussian 16, Revision A.03,
 Gaussian 16:  EM64L-G16RevA.03 25-Dec-2016

 -------------
 #p 6-31g* mp2
 -------------

 ------------------------------------------------------
 Input file generated by CHIRIPA (05-May-2021 14:53:13)
 ------------------------------------------------------
 Symbolic Z-matrix:
 Charge =  0 Multiplicity = 1

                         Standard orientation:
 ---------------------------------------------------------------------
 Center     Atomic      Atomic             Coordinates (Angstroms)
 Number     Number       Type             X           Y           Z
 ---------------------------------------------------------------------
      1          6           0        4.110321    0.001367   -0.120456
      2          6           0        2.967916   -0.699041    0.615970
      3          6           0        1.589185   -0.264086    0.118265
      4          1           0        4.002367    1.088262   -0.002340
      5          1           0        4.025544   -0.206089   -1.196174
      6          1           0        3.055621   -0.491461    1.690137
      7          1           0        3.078709   -1.784402    0.496248
      8          1           0        1.476679   -0.486382   -0.947815
      9          1           0        1.453460    0.813905    0.252857
     10          1           0        0.787216   -0.777031    0.658259
     11          6           0        5.494897   -0.423026    0.365923
     12          6           0        6.637302    0.277383   -0.370503
     13          6           0        8.016033   -0.157573    0.127202
     14          1           0        5.579674   -0.215569    1.441642
     15          1           0        5.602851   -1.509921    0.247807
     16          1           0        6.526509    1.362743   -0.250780
     17          1           0        6.549597    0.069802   -1.444669
     18          1           0        8.151758   -1.235564   -0.007390
     19          1           0        8.128539    0.064723    1.193283
     20          1           0        8.818002    0.355372   -0.412791
     21          6           0       -5.697737   -1.399588    0.269010
     22          6           0       -5.736018   -0.101641    0.788997
     23          6           0       -4.663664    0.773675    0.592968
     24          6           0       -3.563936    0.315941   -0.131162
     25          6           0       -3.496020   -0.971348   -0.661788
     26          6           0       -4.579831   -1.829542   -0.453448
     27          1           0       -6.535217   -2.072904    0.426071
     28          1           0       -6.602897    0.234983    1.350468
     29          1           0       -4.667027    1.783700    0.984451
     30          1           0       -2.618160   -1.278297   -1.217272
     31          1           0       -4.547348   -2.837001   -0.858437
     32          7           0       -2.422617    1.233535   -0.345205
     33          8           0       -1.465331    0.806113   -0.986726
     34          8           0       -2.506950    2.362794    0.132602
 ---------------------------------------------------------------------

 SCF Done:  E(RHF) =  -669.535724207     A.U. after   15 cycles
 E2 =    -0.2090960934D+01 EUMP2 =    -0.67162668514095D+03

 The electronic state is 1-A.
 Alpha  occ. eigenvalues --  -20.60842 -20.60810 -15.85856 -11.31225 -11.27793
 Alpha  occ. eigenvalues --  -11.27789 -11.27539 -11.26812 -11.26802 -11.21088
 Alpha  occ. eigenvalues --  -11.20782 -11.20671 -11.20656 -11.20581 -11.19720
 Alpha  occ. eigenvalues --   -1.59888  -1.39442  -1.19398  -1.08794  -1.07720
 Alpha  occ. eigenvalues --   -1.04800  -1.02758  -0.95633  -0.95171  -0.86206
 Alpha  occ. eigenvalues --   -0.86171  -0.82459  -0.78831  -0.77547  -0.77469
 Alpha  occ. eigenvalues --   -0.72073  -0.71201  -0.70506  -0.65051  -0.64804
 Alpha  occ. eigenvalues --   -0.64360  -0.62147  -0.60160  -0.58602  -0.56796
 Alpha  occ. eigenvalues --   -0.55304  -0.54460  -0.53132  -0.52893  -0.51874
 Alpha  occ. eigenvalues --   -0.51584  -0.49135  -0.48838  -0.48818  -0.47120
 Alpha  occ. eigenvalues --   -0.45884  -0.45089  -0.44981  -0.44783  -0.42992
 Alpha  occ. eigenvalues --   -0.37379  -0.36404
 Alpha virt. eigenvalues --    0.05006   0.11246   0.16483   0.21357   0.23523
 Alpha virt. eigenvalues --    0.25024   0.27234   0.27353   0.28005   0.28175
 Alpha virt. eigenvalues --    0.28951   0.30926   0.32096   0.32274   0.32542

 Mulliken charges:
               1
     1  C   -0.297541
     2  C   -0.302522
     3  C   -0.465831
     4  H    0.151425
     5  H    0.148859
     6  H    0.148204
     7  H    0.145713
     8  H    0.156347
     9  H    0.165798
    10  H    0.151254
    11  C   -0.297440
    12  C   -0.299204
    13  C   -0.475290
    14  H    0.148284
    15  H    0.147413
    16  H    0.152338
    17  H    0.151376
    18  H    0.153955
    19  H    0.154488
    20  H    0.159024
    21  C   -0.170769
    22  C   -0.218559
    23  C   -0.170911
    24  C    0.158178
    25  C   -0.171068
    26  C   -0.218550
    27  H    0.225710
    28  H    0.223550
    29  H    0.275679
    30  H    0.276074
    31  H    0.223586
    32  N    0.489148
    33  O   -0.458313
    34  O   -0.460404
 Sum of Mulliken charges =  -0.00000

 Dipole moment (field-independent basis, Debye):
    X=             -4.2616    Y=             -3.1222    Z=              0.6835  Tot=              5.3270
 Quadrupole moment (field-independent basis, Debye-Ang):
   XX=            -67.6633   YY=            -94.1611   ZZ=            -93.9774
   XY=              9.0492   XZ=             -4.1110   YZ=              3.4752

 Normal termination of Gaussian 16 at Wed May  5 20:08:54 2021.
