 Gaussian 16, Revision A.03,
 Gaussian 16:  EM64L-G16RevA.03 25-Dec-2016

 -------------
 #p 6-31g* mp2
 -------------

 ------------------------------------------------------
 Input file generated by CHIRIPA (05-May-2021 14:57:21)
 ------------------------------------------------------
 Symbolic Z-matrix:
 Charge =  0 Multiplicity = 1

                         Standard orientation:
 ---------------------------------------------------------------------
 Center     Atomic      Atomic             Coordinates (Angstroms)
 Number     Number       Type             X           Y           Z
 ---------------------------------------------------------------------
      1          6           0       -1.606570   -2.223388    0.561481
      2          6           0       -1.053263   -0.947733    0.409572
      3          6           0       -1.863777    0.143380    0.082330
      4          6           0       -3.229690   -0.078171   -0.086451
      5          6           0       -3.810733   -1.337055    0.058080
      6          6           0       -2.981116   -2.413643    0.385560
      7          1           0       -0.969524   -3.065349    0.815783
      8          1           0        0.013896   -0.797020    0.545594
      9          1           0       -1.461693    1.141611   -0.041291
     10          1           0       -4.878020   -1.456112   -0.083842
     11          1           0       -3.413575   -3.403216    0.502904
     12          7           0       -4.097857    1.069252   -0.433014
     13          8           0       -5.298281    0.847739   -0.576367
     14          8           0       -3.561462    2.168390   -0.554734
     15          6           0        2.337773    2.523279    0.875292
     16          6           0        2.939822    2.411835   -0.382340
     17          6           0        3.358646    1.166918   -0.861210
     18          6           0        3.159000    0.049179   -0.052451
     19          6           0        2.562245    0.127806    1.204924
     20          6           0        2.151235    1.382918    1.663520
     21          1           0        2.015456    3.494321    1.239416
     22          1           0        3.085966    3.295749   -0.996655
     23          1           0        3.827450    1.052048   -1.830975
     24          1           0        2.430003   -0.771284    1.794473
     25          1           0        1.683961    1.466470    2.640618
     26          7           0        3.598253   -1.274156   -0.548677
     27          8           0        3.411016   -2.243722    0.183115
     28          8           0        4.121461   -1.316763   -1.660017
 ---------------------------------------------------------------------

 SCF Done:  E(RHF) =  -868.338252474     A.U. after   16 cycles
 E2 =    -0.2601052203D+01 EUMP2 =    -0.87093930467706D+03

 The electronic state is 1-A.
 Alpha  occ. eigenvalues --  -20.61667 -20.61627 -20.60859 -20.60841 -15.86703
 Alpha  occ. eigenvalues --  -15.85902 -11.32133 -11.31169 -11.28707 -11.28591
 Alpha  occ. eigenvalues --  -11.28314 -11.27731 -11.27718 -11.27698 -11.27589
 Alpha  occ. eigenvalues --  -11.27373 -11.26688 -11.26606  -1.60725  -1.59929
 Alpha  occ. eigenvalues --   -1.40277  -1.39487  -1.20290  -1.19320  -1.09638
 Alpha  occ. eigenvalues --   -1.08721  -1.05687  -1.04705  -0.96474  -0.95576
 Alpha  occ. eigenvalues --   -0.87056  -0.86106  -0.83293  -0.82415  -0.78360
 Alpha  occ. eigenvalues --   -0.77494  -0.72908  -0.72125  -0.72059  -0.71321
 Alpha  occ. eigenvalues --   -0.71251  -0.70397  -0.65904  -0.65630  -0.64962
 Alpha  occ. eigenvalues --   -0.64723  -0.63005  -0.62078  -0.56089  -0.55193
 Alpha  occ. eigenvalues --   -0.54068  -0.53720  -0.53047  -0.52691  -0.49681
 Alpha  occ. eigenvalues --   -0.49660  -0.48886  -0.48867  -0.45667  -0.44915
 Alpha  occ. eigenvalues --   -0.38230  -0.37312  -0.37248  -0.36310
 Alpha virt. eigenvalues --    0.04134   0.05041   0.10247   0.11322   0.15648
 Alpha virt. eigenvalues --    0.16584   0.20515   0.21764   0.26265   0.27302
 Alpha virt. eigenvalues --    0.27818   0.28575   0.30385   0.31234   0.31689

 Mulliken charges:
               1
     1  C   -0.173374
     2  C   -0.225440
     3  C   -0.176208
     4  C    0.158851
     5  C   -0.171462
     6  C   -0.218548
     7  H    0.231837
     8  H    0.231385
     9  H    0.272128
    10  H    0.275232
    11  H    0.224251
    12  N    0.488335
    13  O   -0.460013
    14  O   -0.463545
    15  C   -0.172374
    16  C   -0.216870
    17  C   -0.170441
    18  C    0.162880
    19  C   -0.191707
    20  C   -0.218281
    21  H    0.232346
    22  H    0.229425
    23  H    0.279227
    24  H    0.274625
    25  H    0.228595
    26  N    0.488472
    27  O   -0.464214
    28  O   -0.455111
 Sum of Mulliken charges =  -0.00000

 Dipole moment (field-independent basis, Debye):
    X=              1.7971    Y=              0.7462    Z=              2.8976  Tot=              3.4903
 Quadrupole moment (field-independent basis, Debye-Ang):
   XX=           -131.1528   YY=           -101.1208   ZZ=           -102.5106
   XY=             31.9915   XZ=             -0.4163   YZ=             -1.8427

 Normal termination of Gaussian 16 at Thu May  6 11:12:17 2021.
