 Gaussian 16, Revision A.03,
 Gaussian 16:  EM64L-G16RevA.03 25-Dec-2016

 -------------
 #p 6-31g* mp2
 -------------

 ------------------------------------------------------
 Input file generated by CHIRIPA (05-May-2021 14:51:12)
 ------------------------------------------------------
 Symbolic Z-matrix:
 Charge =  0 Multiplicity = 1

                         Standard orientation:
 ---------------------------------------------------------------------
 Center     Atomic      Atomic             Coordinates (Angstroms)
 Number     Number       Type             X           Y           Z
 ---------------------------------------------------------------------
      1          6           0       -2.868909    0.390341   -0.056847
      2          6           0       -4.149483    0.785616    0.679273
      3          6           0       -4.281431    2.297427    0.865857
      4          1           0       -2.001329    0.769568    0.500321
      5          1           0       -2.850753    0.884779   -1.037966
      6          1           0       -4.165880    0.289484    1.658150
      7          1           0       -5.014109    0.405239    0.120389
      8          1           0       -4.290678    2.805889   -0.103670
      9          1           0       -3.437629    2.689476    1.442828
     10          1           0       -5.203866    2.557729    1.394267
     11          6           0       -2.722704   -1.117853   -0.251023
     12          6           0       -1.442130   -1.513128   -0.987142
     13          6           0       -1.310182   -3.024939   -1.173726
     14          1           0       -2.740861   -1.612291    0.730097
     15          1           0       -3.590284   -1.497080   -0.808190
     16          1           0       -0.577504   -1.132751   -0.428259
     17          1           0       -1.425733   -1.016996   -1.966019
     18          1           0       -2.153984   -3.416988   -1.750698
     19          1           0       -1.300935   -3.533401   -0.204200
     20          1           0       -0.387747   -3.285241   -1.702136
     21          6           0        2.703037    0.882534   -0.398962
     22          6           0        2.878597    2.322354    0.084859
     23          6           0        2.689978    3.348666   -1.032684
     24          1           0        3.420987    0.683654   -1.206390
     25          1           0        1.701425    0.769668   -0.836487
     26          1           0        3.879076    2.432111    0.522593
     27          1           0        2.160275    2.517771    0.891359
     28          1           0        1.687122    3.268157   -1.464425
     29          1           0        3.415689    3.182011   -1.835287
     30          1           0        2.819870    4.371232   -0.664790
     31          6           0        2.888576   -0.155022    0.706831
     32          6           0        2.713016   -1.594842    0.223011
     33          6           0        2.901636   -2.621154    1.340553
     34          1           0        3.890189   -0.042156    1.144357
     35          1           0        2.170626    0.043858    1.514259
     36          1           0        3.431338   -1.790258   -0.583489
     37          1           0        1.712538   -1.704599   -0.214724
     38          1           0        2.175925   -2.454498    2.143156
     39          1           0        3.904491   -2.540644    1.772295
     40          1           0        2.771744   -3.643721    0.972660
 ---------------------------------------------------------------------

 SCF Done:  E(RHF) =  -470.733265379     A.U. after   11 cycles
 E2 =    -0.1583338237D+01 EUMP2 =    -0.47231660361580D+03

 The electronic state is 1-A.
 Alpha  occ. eigenvalues --  -11.21665 -11.21648 -11.21594 -11.21562 -11.21467
 Alpha  occ. eigenvalues --  -11.21407 -11.21399 -11.21337 -11.21122 -11.21109
 Alpha  occ. eigenvalues --  -11.21064 -11.21056  -1.08498  -1.08417  -1.03599
 Alpha  occ. eigenvalues --   -1.03507  -0.96034  -0.95966  -0.87046  -0.86984
 Alpha  occ. eigenvalues --   -0.79681  -0.79561  -0.78354  -0.78188  -0.65252
 Alpha  occ. eigenvalues --   -0.64952  -0.61137  -0.60785  -0.59438  -0.59293
 Alpha  occ. eigenvalues --   -0.57662  -0.57557  -0.55339  -0.55235  -0.52728
 Alpha  occ. eigenvalues --   -0.52656  -0.52456  -0.52391  -0.49997  -0.49893
 Alpha  occ. eigenvalues --   -0.48018  -0.47884  -0.46873  -0.46498  -0.46044
 Alpha  occ. eigenvalues --   -0.45792  -0.45755  -0.45351  -0.43839  -0.43772
 Alpha virt. eigenvalues --    0.20336   0.23281   0.23428   0.24972   0.25578
 Alpha virt. eigenvalues --    0.26824   0.26948   0.27296   0.28424   0.29337
 Alpha virt. eigenvalues --    0.31145   0.31195   0.31572   0.31766   0.32418

 Mulliken charges:
               1
     1  C   -0.298446
     2  C   -0.299685
     3  C   -0.475758
     4  H    0.149022
     5  H    0.149628
     6  H    0.152030
     7  H    0.152188
     8  H    0.155299
     9  H    0.155120
    10  H    0.160474
    11  C   -0.297696
    12  C   -0.306999
    13  C   -0.476599
    14  H    0.149619
    15  H    0.150046
    16  H    0.157284
    17  H    0.152315
    18  H    0.155651
    19  H    0.155593
    20  H    0.161401
    21  C   -0.300747
    22  C   -0.299401
    23  C   -0.475792
    24  H    0.149700
    25  H    0.151709
    26  H    0.151889
    27  H    0.151551
    28  H    0.155573
    29  H    0.155104
    30  H    0.160185
    31  C   -0.297666
    32  C   -0.308893
    33  C   -0.475099
    34  H    0.149691
    35  H    0.148537
    36  H    0.151916
    37  H    0.161224
    38  H    0.154402
    39  H    0.155154
    40  H    0.160474
 Sum of Mulliken charges =  -0.00000

 Dipole moment (field-independent basis, Debye):
    X=             -0.0297    Y=             -0.0138    Z=             -0.0208  Tot=              0.0388
 Quadrupole moment (field-independent basis, Debye-Ang):
   XX=            -83.5891   YY=            -86.6339   ZZ=            -84.4721
   XY=              0.2794   XZ=              0.1790   YZ=              0.3538

 Normal termination of Gaussian 16 at Thu May  6 03:53:35 2021.
