 Gaussian 16, Revision A.03,
 Gaussian 16:  EM64L-G16RevA.03 25-Dec-2016

 -------------
 #p 6-31g* mp2
 -------------

 ------------------------------------------------------
 Input file generated by CHIRIPA (05-May-2021 14:57:23)
 ------------------------------------------------------
 Symbolic Z-matrix:
 Charge =  0 Multiplicity = 1

                         Standard orientation:
 ---------------------------------------------------------------------
 Center     Atomic      Atomic             Coordinates (Angstroms)
 Number     Number       Type             X           Y           Z
 ---------------------------------------------------------------------
      1          6           0        2.600974    2.308056   -0.870452
      2          6           0        1.391755    1.605016   -0.877119
      3          6           0        1.336802    0.282639   -0.426733
      4          6           0        2.515500   -0.308460    0.025553
      5          6           0        3.735530    0.365674    0.044571
      6          6           0        3.766946    1.687236   -0.410439
      7          1           0        2.634521    3.334994   -1.222119
      8          1           0        0.484672    2.084615   -1.233813
      9          1           0        0.414126   -0.284858   -0.420975
     10          1           0        4.623176   -0.139156    0.406023
     11          1           0        4.707452    2.230792   -0.404117
     12          7           0        2.469782   -1.707970    0.504805
     13          8           0        3.522213   -2.206151    0.898304
     14          8           0        1.382384   -2.280224    0.477868
     15          6           0       -2.319573    2.156206    1.469331
     16          6           0       -2.454886    0.904498    2.078788
     17          6           0       -2.568403   -0.253803    1.304192
     18          6           0       -2.542705   -0.123128   -0.083451
     19          6           0       -2.409110    1.109732   -0.720236
     20          6           0       -2.297156    2.254656    0.074223
     21          1           0       -2.231998    3.050806    2.078772
     22          1           0       -2.472606    0.825028    3.162032
     23          1           0       -2.674236   -1.235404    1.749924
     24          1           0       -2.394724    1.157193   -1.802345
     25          1           0       -2.192183    3.225431   -0.401824
     26          7           0       -2.662052   -1.342289   -0.913996
     27          8           0       -2.636645   -1.200351   -2.134588
     28          8           0       -2.778745   -2.416719   -0.328658
 ---------------------------------------------------------------------

 SCF Done:  E(RHF) =  -868.335798375     A.U. after   16 cycles
 E2 =    -0.2603775230D+01 EUMP2 =    -0.87093957360450D+03

 The electronic state is 1-A.
 Alpha  occ. eigenvalues --  -20.61002 -20.60932 -20.60616 -20.60591 -15.86038
 Alpha  occ. eigenvalues --  -15.85657 -11.31711 -11.31105 -11.28400 -11.28214
 Alpha  occ. eigenvalues --  -11.28071 -11.27704 -11.27646 -11.27495 -11.27461
 Alpha  occ. eigenvalues --  -11.27269 -11.26754 -11.26710  -1.60045  -1.59681
 Alpha  occ. eigenvalues --   -1.39584  -1.39231  -1.19942  -1.19297  -1.09250
 Alpha  occ. eigenvalues --   -1.08691  -1.05374  -1.04704  -0.96024  -0.95505
 Alpha  occ. eigenvalues --   -0.86726  -0.86123  -0.82849  -0.82329  -0.77854
 Alpha  occ. eigenvalues --   -0.77366  -0.72236  -0.71883  -0.71412  -0.71009
 Alpha  occ. eigenvalues --   -0.70965  -0.70418  -0.65556  -0.65329  -0.64954
 Alpha  occ. eigenvalues --   -0.64745  -0.62686  -0.62102  -0.55798  -0.55295
 Alpha  occ. eigenvalues --   -0.53635  -0.53417  -0.52992  -0.52837  -0.49030
 Alpha  occ. eigenvalues --   -0.48972  -0.48643  -0.48626  -0.44902  -0.44616
 Alpha  occ. eigenvalues --   -0.37913  -0.37329  -0.36965  -0.36269
 Alpha virt. eigenvalues --    0.04633   0.05173   0.10595   0.11360   0.15981
 Alpha virt. eigenvalues --    0.16639   0.20309   0.21717   0.25805   0.27519
 Alpha virt. eigenvalues --    0.27884   0.28362   0.30217   0.31486   0.32169

 Mulliken charges:
               1
     1  C   -0.172264
     2  C   -0.219033
     3  C   -0.170121
     4  C    0.157204
     5  C   -0.170618
     6  C   -0.219025
     7  H    0.222641
     8  H    0.217011
     9  H    0.279073
    10  H    0.275526
    11  H    0.222518
    12  N    0.487162
    13  O   -0.461458
    14  O   -0.456754
    15  C   -0.169674
    16  C   -0.216963
    17  C   -0.167095
    18  C    0.150662
    19  C   -0.183570
    20  C   -0.220272
    21  H    0.227448
    22  H    0.228082
    23  H    0.283924
    24  H    0.275667
    25  H    0.221146
    26  N    0.490513
    27  O   -0.462713
    28  O   -0.449016
 Sum of Mulliken charges =  -0.00000

 Dipole moment (field-independent basis, Debye):
    X=              0.3273    Y=              8.9211    Z=              1.4986  Tot=              9.0520
 Quadrupole moment (field-independent basis, Debye-Ang):
   XX=           -101.8407   YY=           -108.3903   ZZ=           -102.5565
   XY=              2.0825   XZ=            -11.5746   YZ=             -2.4870

 Normal termination of Gaussian 16 at Thu May  6 16:17:01 2021.
