 Gaussian 16, Revision A.03,
 Gaussian 16:  EM64L-G16RevA.03 25-Dec-2016

 -------------
 #p 6-31g* mp2
 -------------

 ------------------------------------------------------
 Input file generated by CHIRIPA (05-May-2021 14:51:12)
 ------------------------------------------------------
 Symbolic Z-matrix:
 Charge =  0 Multiplicity = 1

                         Standard orientation:
 ---------------------------------------------------------------------
 Center     Atomic      Atomic             Coordinates (Angstroms)
 Number     Number       Type             X           Y           Z
 ---------------------------------------------------------------------
      1          6           0       -2.509882    1.045658   -0.420503
      2          6           0       -2.591758    2.445344    0.189548
      3          6           0       -2.220775    3.546145   -0.804636
      4          1           0       -1.491441    0.875036   -0.795483
      5          1           0       -3.176747    0.993639   -1.292272
      6          1           0       -1.925983    2.494285    1.060733
      7          1           0       -3.610072    2.612582    0.563291
      8          1           0       -2.891575    3.526074   -1.669637
      9          1           0       -1.197916    3.407106   -1.169369
     10          1           0       -2.286053    4.538496   -0.347648
     11          6           0       -2.877886   -0.065513    0.561128
     12          6           0       -2.796010   -1.465199   -0.048922
     13          6           0       -3.166994   -2.566000    0.945262
     14          1           0       -2.211022   -0.013494    1.432897
     15          1           0       -3.896328    0.105109    0.936108
     16          1           0       -1.777696   -1.632437   -0.422666
     17          1           0       -3.461786   -1.514140   -0.920107
     18          1           0       -4.189852   -2.426961    1.309994
     19          1           0       -2.496194   -2.545930    1.810262
     20          1           0       -3.101716   -3.558351    0.488273
     21          6           0        3.336601   -0.124430    0.121139
     22          6           0        3.152098    1.385531    0.275930
     23          6           0        4.446744    2.103067    0.659111
     24          1           0        3.722243   -0.538718    1.062728
     25          1           0        4.103250   -0.316773   -0.642175
     26          1           0        2.385034    1.574948    1.037738
     27          1           0        2.766669    1.796243   -0.666077
     28          1           0        5.215857    1.943519   -0.103524
     29          1           0        4.832053    1.720966    1.609972
     30          1           0        4.292029    3.181405    0.764514
     31          6           0        2.051168   -0.855715   -0.261764
     32          6           0        2.235670   -2.365676   -0.416555
     33          6           0        0.941025   -3.083212   -0.799736
     34          1           0        1.284519   -0.663372    0.501549
     35          1           0        1.665526   -0.441427   -1.203354
     36          1           0        2.621099   -2.776388    0.525451
     37          1           0        3.002735   -2.555093   -1.178363
     38          1           0        0.555715   -2.701111   -1.750597
     39          1           0        0.171912   -2.923664   -0.037101
     40          1           0        1.095740   -4.161550   -0.905140
 ---------------------------------------------------------------------

 SCF Done:  E(RHF) =  -470.733157118     A.U. after   11 cycles
 E2 =    -0.1583503891D+01 EUMP2 =    -0.47231666100888D+03

 The electronic state is 1-A.
 Alpha  occ. eigenvalues --  -11.21673 -11.21670 -11.21560 -11.21496 -11.21466
 Alpha  occ. eigenvalues --  -11.21431 -11.21344 -11.21285 -11.21118 -11.21114
 Alpha  occ. eigenvalues --  -11.21037 -11.21034  -1.08512  -1.08367  -1.03607
 Alpha  occ. eigenvalues --   -1.03467  -0.96057  -0.95924  -0.87068  -0.86945
 Alpha  occ. eigenvalues --   -0.79703  -0.79503  -0.78355  -0.78150  -0.65171
 Alpha  occ. eigenvalues --   -0.64981  -0.61084  -0.60819  -0.59420  -0.59291
 Alpha  occ. eigenvalues --   -0.57710  -0.57490  -0.55397  -0.55160  -0.52734
 Alpha  occ. eigenvalues --   -0.52627  -0.52486  -0.52343  -0.49990  -0.49874
 Alpha  occ. eigenvalues --   -0.48135  -0.47755  -0.46733  -0.46499  -0.46055
 Alpha  occ. eigenvalues --   -0.45793  -0.45688  -0.45385  -0.43855  -0.43724
 Alpha virt. eigenvalues --    0.20484   0.22968   0.23677   0.24628   0.25864
 Alpha virt. eigenvalues --    0.26330   0.27004   0.27606   0.28337   0.29757
 Alpha virt. eigenvalues --    0.31080   0.31341   0.31768   0.31800   0.32249

 Mulliken charges:
               1
     1  C   -0.299741
     2  C   -0.299331
     3  C   -0.475729
     4  H    0.151529
     5  H    0.149205
     6  H    0.151611
     7  H    0.151736
     8  H    0.154975
     9  H    0.155351
    10  H    0.160040
    11  C   -0.297402
    12  C   -0.307996
    13  C   -0.475802
    14  H    0.148222
    15  H    0.149285
    16  H    0.160896
    17  H    0.151463
    18  H    0.155148
    19  H    0.153756
    20  H    0.160792
    21  C   -0.298265
    22  C   -0.299713
    23  C   -0.475763
    24  H    0.149960
    25  H    0.149990
    26  H    0.151686
    27  H    0.151795
    28  H    0.155383
    29  H    0.155321
    30  H    0.160561
    31  C   -0.299995
    32  C   -0.299704
    33  C   -0.480931
    34  H    0.149564
    35  H    0.149982
    36  H    0.152166
    37  H    0.152290
    38  H    0.155810
    39  H    0.160992
    40  H    0.160864
 Sum of Mulliken charges =  -0.00000

 Dipole moment (field-independent basis, Debye):
    X=              0.0575    Y=             -0.0288    Z=             -0.0203  Tot=              0.0674
 Quadrupole moment (field-independent basis, Debye-Ang):
   XX=            -84.5925   YY=            -85.9830   ZZ=            -84.1675
   XY=             -0.8200   XZ=              0.0145   YZ=              0.2470

 Normal termination of Gaussian 16 at Thu May  6 00:42:27 2021.
