 Gaussian 16, Revision A.03,
 Gaussian 16:  EM64L-G16RevA.03 25-Dec-2016

 -------------
 #p 6-31g* mp2
 -------------

 ------------------------------------------------------
 Input file generated by CHIRIPA (05-May-2021 14:53:12)
 ------------------------------------------------------
 Symbolic Z-matrix:
 Charge =  0 Multiplicity = 1

                         Standard orientation:
 ---------------------------------------------------------------------
 Center     Atomic      Atomic             Coordinates (Angstroms)
 Number     Number       Type             X           Y           Z
 ---------------------------------------------------------------------
      1          6           0        3.541405    0.848240    0.200329
      2          6           0        2.724768    2.011287   -0.363949
      3          6           0        3.463194    3.347524   -0.280337
      4          1           0        3.797723    1.062289    1.246957
      5          1           0        4.492075    0.777694   -0.346154
      6          1           0        1.775325    2.078753    0.182514
      7          1           0        2.470201    1.794358   -1.409298
      8          1           0        4.402496    3.304345   -0.841095
      9          1           0        3.703671    3.590355    0.759762
     10          1           0        2.861289    4.165104   -0.689157
     11          6           0        2.816554   -0.494316    0.123772
     12          6           0        3.633191   -1.657363    0.688051
     13          6           0        2.894764   -2.993600    0.604438
     14          1           0        1.865883   -0.423769    0.670255
     15          1           0        2.560236   -0.708365   -0.922856
     16          1           0        3.887757   -1.440434    1.733399
     17          1           0        4.582633   -1.724829    0.141587
     18          1           0        2.654287   -3.236431   -0.435661
     19          1           0        1.955463   -2.950420    1.165196
     20          1           0        3.496670   -3.811179    1.013258
     21          6           0       -3.975775    1.745122    0.642923
     22          6           0       -2.680789    2.018327    0.190275
     23          6           0       -1.845255    0.982662   -0.238478
     24          6           0       -2.339317   -0.320330   -0.200997
     25          6           0       -3.624699   -0.624558    0.244567
     26          6           0       -4.442775    0.426876    0.668580
     27          1           0       -4.618057    2.555777    0.974148
     28          1           0       -2.315449    3.041132    0.169248
     29          1           0       -0.838444    1.165906   -0.593687
     30          1           0       -3.960840   -1.654287    0.253912
     31          1           0       -5.448030    0.211740    1.019611
     32          7           0       -1.464017   -1.425089   -0.652389
     33          8           0       -1.922967   -2.564461   -0.609561
     34          8           0       -0.335580   -1.130709   -1.040471
 ---------------------------------------------------------------------

 SCF Done:  E(RHF) =  -669.535565764     A.U. after   15 cycles
 E2 =    -0.2092519999D+01 EUMP2 =    -0.67162808576270D+03

 The electronic state is 1-A.
 Alpha  occ. eigenvalues --  -20.60878 -20.60855 -15.85893 -11.31237 -11.27807
 Alpha  occ. eigenvalues --  -11.27783 -11.27547 -11.26819 -11.26805 -11.21441
 Alpha  occ. eigenvalues --  -11.21001 -11.20801 -11.20607 -11.20202 -11.19832
 Alpha  occ. eigenvalues --   -1.59934  -1.39489  -1.19409  -1.08813  -1.07721
 Alpha  occ. eigenvalues --   -1.04806  -1.02866  -0.95654  -0.95275  -0.86297
 Alpha  occ. eigenvalues --   -0.86203  -0.82491  -0.79018  -0.77691  -0.77239
 Alpha  occ. eigenvalues --   -0.72110  -0.71249  -0.70516  -0.65064  -0.64813
 Alpha  occ. eigenvalues --   -0.64369  -0.62151  -0.60277  -0.58730  -0.56866
 Alpha  occ. eigenvalues --   -0.55312  -0.54557  -0.53141  -0.52900  -0.52052
 Alpha  occ. eigenvalues --   -0.51663  -0.49224  -0.48890  -0.48877  -0.47291
 Alpha  occ. eigenvalues --   -0.46077  -0.45366  -0.44818  -0.44410  -0.43076
 Alpha  occ. eigenvalues --   -0.37392  -0.36410
 Alpha virt. eigenvalues --    0.04968   0.11219   0.16451   0.20693   0.23294
 Alpha virt. eigenvalues --    0.24785   0.25663   0.27417   0.27718   0.28654
 Alpha virt. eigenvalues --    0.29407   0.31269   0.31842   0.32123   0.32309

 Mulliken charges:
               1
     1  C   -0.298461
     2  C   -0.300078
     3  C   -0.474666
     4  H    0.145800
     5  H    0.148156
     6  H    0.142235
     7  H    0.154850
     8  H    0.157070
     9  H    0.154535
    10  H    0.155189
    11  C   -0.295212
    12  C   -0.301086
    13  C   -0.472256
    14  H    0.150156
    15  H    0.163758
    16  H    0.145558
    17  H    0.147538
    18  H    0.164074
    19  H    0.156901
    20  H    0.153168
    21  C   -0.170592
    22  C   -0.219552
    23  C   -0.175847
    24  C    0.157407
    25  C   -0.170592
    26  C   -0.218727
    27  H    0.225787
    28  H    0.223934
    29  H    0.281857
    30  H    0.275647
    31  H    0.223602
    32  N    0.490700
    33  O   -0.459876
    34  O   -0.460976
 Sum of Mulliken charges =  -0.00000

 Dipole moment (field-independent basis, Debye):
    X=             -3.2420    Y=              3.7322    Z=              1.4433  Tot=              5.1501
 Quadrupole moment (field-independent basis, Debye-Ang):
   XX=            -78.5959   YY=            -96.8968   ZZ=            -95.2774
   XY=             -6.1561   XZ=             -4.9189   YZ=             -1.6287

 Normal termination of Gaussian 16 at Wed May  5 23:20:30 2021.
