 Gaussian 16, Revision A.03,
 Gaussian 16:  EM64L-G16RevA.03 25-Dec-2016

 -------------
 #p 6-31g* mp2
 -------------

 ------------------------------------------------------
 Input file generated by CHIRIPA (05-May-2021 14:51:14)
 ------------------------------------------------------
 Symbolic Z-matrix:
 Charge =  0 Multiplicity = 1

                         Standard orientation:
 ---------------------------------------------------------------------
 Center     Atomic      Atomic             Coordinates (Angstroms)
 Number     Number       Type             X           Y           Z
 ---------------------------------------------------------------------
      1          6           0       -3.126795   -0.074963   -0.021148
      2          6           0       -3.004885   -1.170123   -1.081217
      3          6           0       -3.744796   -2.451317   -0.695383
      4          1           0       -2.735825   -0.452511    0.933601
      5          1           0       -4.189738    0.149751    0.143324
      6          1           0       -1.942435   -1.391730   -1.244640
      7          1           0       -3.396015   -0.789859   -2.033599
      8          1           0       -4.811634   -2.251705   -0.551809
      9          1           0       -3.349795   -2.856996    0.241633
     10          1           0       -3.644487   -3.220793   -1.467202
     11          6           0       -2.392342    1.212056   -0.392481
     12          6           0       -2.514252    2.307216    0.667588
     13          6           0       -1.774341    3.588410    0.281754
     14          1           0       -1.329399    0.987342   -0.556953
     15          1           0       -2.783313    1.589604   -1.347229
     16          1           0       -2.123122    1.926952    1.619971
     17          1           0       -3.576702    2.528823    0.831011
     18          1           0       -2.169342    3.994089   -0.655262
     19          1           0       -0.707503    3.388798    0.138180
     20          1           0       -1.874651    4.357886    1.053573
     21          6           0        3.126449    0.056160   -0.035201
     22          6           0        4.600314   -0.192791   -0.357277
     23          6           0        5.320765    1.066398   -0.840172
     24          1           0        2.623308    0.447914   -0.929808
     25          1           0        3.053235    0.838835    0.732559
     26          1           0        4.670778   -0.975740   -1.123202
     27          1           0        5.099963   -0.584177    0.538147
     28          1           0        5.280127    1.850160   -0.076846
     29          1           0        4.848503    1.456373   -1.747634
     30          1           0        6.372992    0.865737   -1.064705
     31          6           0        2.392688   -1.193254    0.448829
     32          6           0        0.918823   -0.944302    0.770905
     33          6           0        0.198372   -2.203491    1.253801
     34          1           0        2.465902   -1.975929   -0.318930
     35          1           0        2.895831   -1.585006    1.343437
     36          1           0        0.419174   -0.552915   -0.124518
     37          1           0        0.848359   -0.161353    1.536830
     38          1           0        0.670635   -2.593466    2.161263
     39          1           0        0.239011   -2.987253    0.490475
     40          1           0       -0.853853   -2.002829    1.478334
 ---------------------------------------------------------------------

 SCF Done:  E(RHF) =  -470.732550624     A.U. after   11 cycles
 E2 =    -0.1584792762D+01 EUMP2 =    -0.47231734338666D+03

 The electronic state is 1-A.
 Alpha  occ. eigenvalues --  -11.21693 -11.21645 -11.21571 -11.21564 -11.21473
 Alpha  occ. eigenvalues --  -11.21413 -11.21361 -11.21287 -11.21154 -11.21101
 Alpha  occ. eigenvalues --  -11.21042 -11.21038  -1.08524  -1.08379  -1.03612
 Alpha  occ. eigenvalues --   -1.03488  -0.96050  -0.95944  -0.87074  -0.86954
 Alpha  occ. eigenvalues --   -0.79685  -0.79561  -0.78374  -0.78160  -0.65305
 Alpha  occ. eigenvalues --   -0.64945  -0.61103  -0.60827  -0.59395  -0.59289
 Alpha  occ. eigenvalues --   -0.57645  -0.57559  -0.55330  -0.55227  -0.52747
 Alpha  occ. eigenvalues --   -0.52642  -0.52482  -0.52373  -0.49996  -0.49891
 Alpha  occ. eigenvalues --   -0.48076  -0.47841  -0.46809  -0.46592  -0.46105
 Alpha  occ. eigenvalues --   -0.45800  -0.45729  -0.45222  -0.43822  -0.43747
 Alpha virt. eigenvalues --    0.19696   0.23036   0.23433   0.24709   0.25386
 Alpha virt. eigenvalues --    0.26082   0.27126   0.27775   0.28218   0.29628
 Alpha virt. eigenvalues --    0.30310   0.31089   0.31736   0.31943   0.32384

 Mulliken charges:
               1
     1  C   -0.301382
     2  C   -0.302905
     3  C   -0.476733
     4  H    0.152001
     5  H    0.149755
     6  H    0.155166
     7  H    0.151930
     8  H    0.155012
     9  H    0.156361
    10  H    0.160010
    11  C   -0.303659
    12  C   -0.299328
    13  C   -0.475982
    14  H    0.155689
    15  H    0.149102
    16  H    0.151800
    17  H    0.151679
    18  H    0.154998
    19  H    0.155644
    20  H    0.159988
    21  C   -0.298544
    22  C   -0.299676
    23  C   -0.475806
    24  H    0.149405
    25  H    0.149542
    26  H    0.152089
    27  H    0.152111
    28  H    0.155280
    29  H    0.155341
    30  H    0.160437
    31  C   -0.297525
    32  C   -0.307503
    33  C   -0.480791
    34  H    0.149730
    35  H    0.150009
    36  H    0.158528
    37  H    0.151799
    38  H    0.155696
    39  H    0.155797
    40  H    0.164936
 Sum of Mulliken charges =  -0.00000

 Dipole moment (field-independent basis, Debye):
    X=              0.0405    Y=             -0.0150    Z=              0.0019  Tot=              0.0432
 Quadrupole moment (field-independent basis, Debye-Ang):
   XX=            -84.7350   YY=            -86.3066   ZZ=            -83.7829
   XY=             -1.2377   XZ=              0.9168   YZ=              0.4855

 Normal termination of Gaussian 16 at Wed May  5 21:39:25 2021.
