 Gaussian 16, Revision A.03,
 Gaussian 16:  EM64L-G16RevA.03 25-Dec-2016

 -------------
 #p 6-31g* mp2
 -------------

 ------------------------------------------------------
 Input file generated by CHIRIPA (05-May-2021 14:57:24)
 ------------------------------------------------------
 Symbolic Z-matrix:
 Charge =  0 Multiplicity = 1

                         Standard orientation:
 ---------------------------------------------------------------------
 Center     Atomic      Atomic             Coordinates (Angstroms)
 Number     Number       Type             X           Y           Z
 ---------------------------------------------------------------------
      1          6           0        4.624539   -1.947623   -0.250098
      2          6           0        3.491600   -1.894348    0.568517
      3          6           0        2.708240   -0.737626    0.622275
      4          6           0        3.088669    0.352191   -0.159302
      5          6           0        4.211778    0.329919   -0.984784
      6          6           0        4.980385   -0.837278   -1.022774
      7          1           0        5.227342   -2.850261   -0.285735
      8          1           0        3.212851   -2.755136    1.169672
      9          1           0        1.826156   -0.669198    1.247306
     10          1           0        4.464416    1.204024   -1.572603
     11          1           0        5.859717   -0.875803   -1.659434
     12          7           0        2.267170    1.582305   -0.110737
     13          8           0        2.623632    2.528903   -0.808967
     14          8           0        1.282373    1.576579    0.624640
     15          6           0       -4.919606   -0.599993   -1.645997
     16          6           0       -4.613456    0.716331   -1.285325
     17          6           0       -3.675609    0.977773   -0.282012
     18          6           0       -3.060143   -0.105898    0.342609
     19          6           0       -3.343833   -1.428490    0.005626
     20          6           0       -4.284936   -1.666323   -1.000509
     21          1           0       -5.649412   -0.793917   -2.426492
     22          1           0       -5.104789    1.546423   -1.784909
     23          1           0       -3.419773    1.987026    0.016943
     24          1           0       -2.837604   -2.235249    0.521663
     25          1           0       -4.520722   -2.689625   -1.278544
     26          7           0       -2.065563    0.158383    1.406266
     27          8           0       -1.537219   -0.813825    1.941339
     28          8           0       -1.833187    1.332728    1.684746
 ---------------------------------------------------------------------

 SCF Done:  E(RHF) =  -868.337538607     A.U. after   16 cycles
 E2 =    -0.2600199685D+01 EUMP2 =    -0.87093773829195D+03

 The electronic state is 1-A.
 Alpha  occ. eigenvalues --  -20.60277 -20.60098 -20.59922 -20.59849 -15.85220
 Alpha  occ. eigenvalues --  -15.84930 -11.30746 -11.30435 -11.27384 -11.27282
 Alpha  occ. eigenvalues --  -11.27125 -11.27098 -11.26910 -11.26864 -11.26426
 Alpha  occ. eigenvalues --  -11.26361 -11.26145 -11.26052  -1.59224  -1.58978
 Alpha  occ. eigenvalues --   -1.38783  -1.38517  -1.18935  -1.18645  -1.08303
 Alpha  occ. eigenvalues --   -1.08029  -1.04365  -1.04056  -0.95114  -0.94822
 Alpha  occ. eigenvalues --   -0.85756  -0.85452  -0.81950  -0.81638  -0.76965
 Alpha  occ. eigenvalues --   -0.76656  -0.71480  -0.71172  -0.70477  -0.70290
 Alpha  occ. eigenvalues --   -0.70052  -0.69747  -0.64592  -0.64378  -0.64284
 Alpha  occ. eigenvalues --   -0.64063  -0.61711  -0.61374  -0.54872  -0.54587
 Alpha  occ. eigenvalues --   -0.52683  -0.52464  -0.52406  -0.52140  -0.48242
 Alpha  occ. eigenvalues --   -0.48192  -0.47931  -0.47869  -0.44174  -0.43850
 Alpha  occ. eigenvalues --   -0.36927  -0.36671  -0.35975  -0.35675
 Alpha virt. eigenvalues --    0.05566   0.05856   0.11678   0.11971   0.17014
 Alpha virt. eigenvalues --    0.17299   0.21758   0.22119   0.27665   0.28009
 Alpha virt. eigenvalues --    0.28649   0.29088   0.31255   0.31643   0.32933

 Mulliken charges:
               1
     1  C   -0.171623
     2  C   -0.220464
     3  C   -0.176453
     4  C    0.156227
     5  C   -0.171917
     6  C   -0.219418
     7  H    0.222575
     8  H    0.223592
     9  H    0.291523
    10  H    0.273192
    11  H    0.220257
    12  N    0.486699
    13  O   -0.467334
    14  O   -0.449320
    15  C   -0.171429
    16  C   -0.218727
    17  C   -0.169064
    18  C    0.159752
    19  C   -0.172160
    20  C   -0.218677
    21  H    0.223917
    22  H    0.223328
    23  H    0.279815
    24  H    0.271597
    25  H    0.220751
    26  N    0.490266
    27  O   -0.474326
    28  O   -0.442578
 Sum of Mulliken charges =  -0.00000

 Dipole moment (field-independent basis, Debye):
    X=             -0.8168    Y=             -4.9958    Z=             -3.7218  Tot=              6.2831
 Quadrupole moment (field-independent basis, Debye-Ang):
   XX=            -66.2042   YY=           -102.6184   ZZ=           -106.4731
   XY=             -9.1309   XZ=              7.5487   YZ=             -1.2759

 Normal termination of Gaussian 16 at Thu May  6 14:39:49 2021.
