 Gaussian 16, Revision A.03,
 Gaussian 16:  EM64L-G16RevA.03 25-Dec-2016

 -------------
 #p 6-31g* mp2
 -------------

 ------------------------------------------------------
 Input file generated by CHIRIPA (05-May-2021 14:55:22)
 ------------------------------------------------------
 Symbolic Z-matrix:
 Charge =  0 Multiplicity = 1

                         Standard orientation:
 ---------------------------------------------------------------------
 Center     Atomic      Atomic             Coordinates (Angstroms)
 Number     Number       Type             X           Y           Z
 ---------------------------------------------------------------------
      1          6           0       -6.154407    0.490378    0.924367
      2          6           0       -5.560154   -0.755673    1.149631
      3          6           0       -4.297763   -1.045758    0.623545
      4          6           0       -3.655065   -0.062078   -0.126525
      5          6           0       -4.220940    1.188745   -0.368429
      6          6           0       -5.484085    1.456905    0.167391
      7          1           0       -7.135355    0.707207    1.336824
      8          1           0       -6.078408   -1.508206    1.737128
      9          1           0       -3.814599   -2.002156    0.782523
     10          1           0       -3.679798    1.918730   -0.958094
     11          1           0       -5.943166    2.425469   -0.009168
     12          7           0       -2.318229   -0.357573   -0.688621
     13          8           0       -1.772714    0.526085   -1.346039
     14          8           0       -1.841245   -1.467245   -0.461130
     15          6           0        5.521453    0.410482    0.381062
     16          6           0        6.903280   -0.213968    0.184591
     17          6           0        8.015080    0.584405    0.865982
     18          1           0        5.530816    1.436798   -0.010771
     19          1           0        5.311626    0.488523    1.456830
     20          1           0        7.109858   -0.292081   -0.890509
     21          1           0        6.890570   -1.238983    0.576763
     22          1           0        7.836132    0.651330    1.943989
     23          1           0        8.056666    1.603613    0.468379
     24          1           0        8.994354    0.120270    0.712808
     25          6           0        4.399551   -0.376237   -0.294318
     26          6           0        3.017724    0.248213   -0.097847
     27          6           0        1.905923   -0.550160   -0.779238
     28          1           0        4.609377   -0.454278   -1.370086
     29          1           0        4.390186   -1.402552    0.097515
     30          1           0        3.030433    1.273228   -0.490020
     31          1           0        2.811145    0.326326    0.977253
     32          1           0        1.864338   -1.569367   -0.381636
     33          1           0        2.084871   -0.617085   -1.857245
     34          1           0        0.926649   -0.086025   -0.626064
 ---------------------------------------------------------------------

 SCF Done:  E(RHF) =  -669.536380803     A.U. after   15 cycles
 E2 =    -0.2091300502D+01 EUMP2 =    -0.67162768130501D+03

 The electronic state is 1-A.
 Alpha  occ. eigenvalues --  -20.61009 -20.61004 -15.86015 -11.31331 -11.27887
 Alpha  occ. eigenvalues --  -11.27883 -11.27622 -11.26889 -11.26879 -11.20953
 Alpha  occ. eigenvalues --  -11.20580 -11.20546 -11.20340 -11.20235 -11.19048
 Alpha  occ. eigenvalues --   -1.60052  -1.39607  -1.19493  -1.08899  -1.07473
 Alpha  occ. eigenvalues --   -1.04886  -1.02450  -0.95743  -0.94854  -0.86286
 Alpha  occ. eigenvalues --   -0.85860  -0.82575  -0.78557  -0.77633  -0.77240
 Alpha  occ. eigenvalues --   -0.72218  -0.71367  -0.70601  -0.65146  -0.64888
 Alpha  occ. eigenvalues --   -0.64121  -0.62232  -0.59866  -0.58315  -0.56460
 Alpha  occ. eigenvalues --   -0.55388  -0.54168  -0.53220  -0.52976  -0.51538
 Alpha  occ. eigenvalues --   -0.51295  -0.49001  -0.48908  -0.48810  -0.46830
 Alpha  occ. eigenvalues --   -0.45640  -0.45024  -0.44767  -0.44697  -0.42627
 Alpha  occ. eigenvalues --   -0.37470  -0.36485
 Alpha virt. eigenvalues --    0.04870   0.11171   0.16375   0.21311   0.23734
 Alpha virt. eigenvalues --    0.25479   0.27229   0.27536   0.28190   0.28376
 Alpha virt. eigenvalues --    0.29248   0.30864   0.32406   0.32440   0.32615

 Mulliken charges:
               1
     1  C   -0.170483
     2  C   -0.218620
     3  C   -0.170800
     4  C    0.159846
     5  C   -0.170738
     6  C   -0.218594
     7  H    0.226127
     8  H    0.223958
     9  H    0.276005
    10  H    0.275944
    11  H    0.223959
    12  N    0.487302
    13  O   -0.459422
    14  O   -0.457556
    15  C   -0.297121
    16  C   -0.298848
    17  C   -0.475113
    18  H    0.148055
    19  H    0.147421
    20  H    0.151233
    21  H    0.150986
    22  H    0.154003
    23  H    0.154254
    24  H    0.158305
    25  C   -0.296868
    26  C   -0.300656
    27  C   -0.478535
    28  H    0.148130
    29  H    0.147842
    30  H    0.148365
    31  H    0.146300
    32  H    0.151852
    33  H    0.150510
    34  H    0.182956
 Sum of Mulliken charges =  -0.00000

 Dipole moment (field-independent basis, Debye):
    X=             -5.1747    Y=              1.0137    Z=              1.9352  Tot=              5.6170
 Quadrupole moment (field-independent basis, Debye-Ang):
   XX=            -63.1609   YY=            -90.7837   ZZ=            -94.6880
   XY=             -3.8549   XZ=             -7.5916   YZ=             -3.1568

 Normal termination of Gaussian 16 at Thu May  6 06:14:25 2021.
