 Gaussian 16, Revision A.03,
 Gaussian 16:  EM64L-G16RevA.03 25-Dec-2016

 -------------
 #p 6-31g* mp2
 -------------

 ------------------------------------------------------
 Input file generated by CHIRIPA (05-May-2021 14:57:22)
 ------------------------------------------------------
 Symbolic Z-matrix:
 Charge =  0 Multiplicity = 1

                         Standard orientation:
 ---------------------------------------------------------------------
 Center     Atomic      Atomic             Coordinates (Angstroms)
 Number     Number       Type             X           Y           Z
 ---------------------------------------------------------------------
      1          6           0        1.591653    0.799222   -0.407891
      2          6           0        2.661959    1.680067   -0.220600
      3          6           0        3.955517    1.191760   -0.013689
      4          6           0        4.143606   -0.189445   -0.000012
      5          6           0        3.097682   -1.092573   -0.183567
      6          6           0        1.812541   -0.581852   -0.388810
      7          1           0        0.590056    1.187257   -0.567976
      8          1           0        2.493373    2.753109   -0.234924
      9          1           0        4.802155    1.851162    0.133995
     10          1           0        3.296911   -2.157161   -0.164090
     11          1           0        0.983219   -1.268288   -0.533982
     12          7           0        5.508582   -0.718258    0.218152
     13          8           0        5.647970   -1.939385    0.225814
     14          8           0        6.413218    0.098397    0.377357
     15          6           0       -5.344361   -1.979005    0.074148
     16          6           0       -5.124863   -1.259152    1.253195
     17          6           0       -4.336637   -0.104526    1.243829
     18          6           0       -3.780808    0.303502    0.032277
     19          6           0       -3.981045   -0.392191   -1.159028
     20          6           0       -4.772759   -1.543995   -1.126084
     21          1           0       -5.958028   -2.874850    0.090582
     22          1           0       -5.567512   -1.594638    2.186766
     23          1           0       -4.150425    0.471745    2.141969
     24          1           0       -3.526465   -0.033022   -2.074327
     25          1           0       -4.941517   -2.101052   -2.043282
     26          7           0       -2.944502    1.524359    0.009881
     27          8           0       -2.466065    1.862945   -1.070440
     28          8           0       -2.783279    2.119563    1.073073
 ---------------------------------------------------------------------

 SCF Done:  E(RHF) =  -868.340024008     A.U. after   16 cycles
 E2 =    -0.2598352827D+01 EUMP2 =    -0.87093837683416D+03

 The electronic state is 1-A.
 Alpha  occ. eigenvalues --  -20.61974 -20.61942 -20.60298 -20.60289 -15.86973
 Alpha  occ. eigenvalues --  -15.85347 -11.32080 -11.30560 -11.28624 -11.28592
 Alpha  occ. eigenvalues --  -11.28285 -11.27559 -11.27536 -11.27169 -11.27109
 Alpha  occ. eigenvalues --  -11.26656 -11.26106 -11.25992  -1.61029  -1.59376
 Alpha  occ. eigenvalues --   -1.40583  -1.38934  -1.20225  -1.18712  -1.09665
 Alpha  occ. eigenvalues --   -1.08097  -1.05580  -1.04108  -0.96539  -0.94960
 Alpha  occ. eigenvalues --   -0.86988  -0.85492  -0.83374  -0.81814  -0.78459
 Alpha  occ. eigenvalues --   -0.76916  -0.73184  -0.72350  -0.71566  -0.71312
 Alpha  occ. eigenvalues --   -0.70699  -0.69704  -0.65870  -0.65567  -0.64349
 Alpha  occ. eigenvalues --   -0.64099  -0.62924  -0.61472  -0.56076  -0.54464
 Alpha  occ. eigenvalues --   -0.53928  -0.53658  -0.52432  -0.52188  -0.49967
 Alpha  occ. eigenvalues --   -0.49928  -0.48331  -0.48309  -0.46028  -0.44374
 Alpha  occ. eigenvalues --   -0.38187  -0.37175  -0.36628  -0.35733
 Alpha virt. eigenvalues --    0.04009   0.05636   0.10482   0.11937   0.15554
 Alpha virt. eigenvalues --    0.17183   0.20687   0.22220   0.26628   0.27523
 Alpha virt. eigenvalues --    0.27948   0.29100   0.30359   0.31651   0.31984

 Mulliken charges:
               1
     1  C   -0.176533
     2  C   -0.220022
     3  C   -0.171538
     4  C    0.157209
     5  C   -0.171699
     6  C   -0.220419
     7  H    0.243649
     8  H    0.227283
     9  H    0.273980
    10  H    0.272117
    11  H    0.218391
    12  N    0.488295
    13  O   -0.463157
    14  O   -0.461641
    15  C   -0.169792
    16  C   -0.218511
    17  C   -0.170524
    18  C    0.156211
    19  C   -0.172937
    20  C   -0.218711
    21  H    0.228879
    22  H    0.226644
    23  H    0.277334
    24  H    0.275344
    25  H    0.226032
    26  N    0.486571
    27  O   -0.466345
    28  O   -0.456107
 Sum of Mulliken charges =  -0.00000

 Dipole moment (field-independent basis, Debye):
    X=             -8.2343    Y=             -2.3762    Z=             -0.6284  Tot=              8.5933
 Quadrupole moment (field-independent basis, Debye-Ang):
   XX=           -122.7554   YY=           -104.2252   ZZ=           -100.7187
   XY=             26.8874   XZ=             -4.5744   YZ=              1.1277

 Normal termination of Gaussian 16 at Thu May  6 04:56:28 2021.
