 Gaussian 16, Revision A.03,
 Gaussian 16:  EM64L-G16RevA.03 25-Dec-2016

 -------------
 #p 6-31g* mp2
 -------------

 ------------------------------------------------------
 Input file generated by CHIRIPA (05-May-2021 14:51:11)
 ------------------------------------------------------
 Symbolic Z-matrix:
 Charge =  0 Multiplicity = 1

                         Standard orientation:
 ---------------------------------------------------------------------
 Center     Atomic      Atomic             Coordinates (Angstroms)
 Number     Number       Type             X           Y           Z
 ---------------------------------------------------------------------
      1          6           0       -3.357892    0.653562    0.399605
      2          6           0       -2.095092    0.547852    1.255260
      3          6           0       -1.323644    1.865486    1.335902
      4          1           0       -3.081326    0.980686   -0.612051
      5          1           0       -4.008794    1.435839    0.814049
      6          1           0       -1.447393   -0.234945    0.840133
      7          1           0       -2.374676    0.220758    2.264942
      8          1           0       -1.948961    2.652022    1.770576
      9          1           0       -1.016410    2.193730    0.337671
     10          1           0       -0.424661    1.767281    1.952380
     11          6           0       -4.139904   -0.655654    0.309395
     12          6           0       -5.402704   -0.549944   -0.546260
     13          6           0       -6.174151   -1.867578   -0.626903
     14          1           0       -3.489001   -1.437931   -0.105049
     15          1           0       -4.416470   -0.982778    1.321050
     16          1           0       -5.123120   -0.222850   -1.555942
     17          1           0       -6.050403    0.232853   -0.131133
     18          1           0       -6.481386   -2.195822    0.371328
     19          1           0       -5.548834   -2.654114   -1.061577
     20          1           0       -7.073134   -1.769373   -1.243381
     21          6           0        4.091921   -0.670943   -0.235347
     22          6           0        5.482071   -0.540065    0.387823
     23          6           0        6.155531   -1.892948    0.620107
     24          1           0        3.460885   -1.288895    0.418009
     25          1           0        4.174779   -1.209014   -1.189815
     26          1           0        5.396800   -0.001186    1.340165
     27          1           0        6.109814    0.077806   -0.266998
     28          1           0        6.269789   -2.433713   -0.324942
     29          1           0        5.552724   -2.513154    1.291351
     30          1           0        7.148091   -1.775984    1.066203
     31          6           0        3.405875    0.673035   -0.473652
     32          6           0        2.015724    0.542157   -1.096822
     33          6           0        1.342266    1.895039   -1.329106
     34          1           0        3.323018    1.211107    0.480815
     35          1           0        4.036911    1.290987   -1.127009
     36          1           0        1.387982   -0.075714   -0.442001
     37          1           0        2.100995    0.003279   -2.049164
     38          1           0        1.945072    2.515246   -2.000351
     39          1           0        1.228007    2.435805   -0.384057
     40          1           0        0.349704    1.778076   -1.775203
 ---------------------------------------------------------------------

 SCF Done:  E(RHF) =  -470.732384740     A.U. after   11 cycles
 E2 =    -0.1583242245D+01 EUMP2 =    -0.47231562698568D+03

 The electronic state is 1-A.
 Alpha  occ. eigenvalues --  -11.21622 -11.21609 -11.21598 -11.21584 -11.21417
 Alpha  occ. eigenvalues --  -11.21400 -11.21358 -11.21341 -11.21077 -11.21068
 Alpha  occ. eigenvalues --  -11.21043 -11.20946  -1.08450  -1.08410  -1.03584
 Alpha  occ. eigenvalues --   -1.03470  -0.96071  -0.95885  -0.87110  -0.86886
 Alpha  occ. eigenvalues --   -0.79687  -0.79501  -0.78269  -0.78217  -0.65162
 Alpha  occ. eigenvalues --   -0.64979  -0.61213  -0.60690  -0.59383  -0.59304
 Alpha  occ. eigenvalues --   -0.57615  -0.57559  -0.55622  -0.54922  -0.52744
 Alpha  occ. eigenvalues --   -0.52670  -0.52396  -0.52334  -0.50222  -0.49571
 Alpha  occ. eigenvalues --   -0.47926  -0.47875  -0.46831  -0.46389  -0.45821
 Alpha  occ. eigenvalues --   -0.45770  -0.45736  -0.45610  -0.43791  -0.43759
 Alpha virt. eigenvalues --    0.20680   0.23120   0.23615   0.25521   0.26090
 Alpha virt. eigenvalues --    0.26291   0.26745   0.27773   0.27981   0.29402
 Alpha virt. eigenvalues --    0.30117   0.30641   0.30999   0.32093   0.32274

 Mulliken charges:
               1
     1  C   -0.298384
     2  C   -0.301002
     3  C   -0.481083
     4  H    0.149329
     5  H    0.149700
     6  H    0.152294
     7  H    0.151638
     8  H    0.154274
     9  H    0.164834
    10  H    0.157894
    11  C   -0.298329
    12  C   -0.299645
    13  C   -0.475708
    14  H    0.149514
    15  H    0.149659
    16  H    0.151901
    17  H    0.151945
    18  H    0.155166
    19  H    0.155189
    20  H    0.160247
    21  C   -0.298371
    22  C   -0.299671
    23  C   -0.475721
    24  H    0.149640
    25  H    0.149507
    26  H    0.151970
    27  H    0.151981
    28  H    0.155172
    29  H    0.155205
    30  H    0.160297
    31  C   -0.298598
    32  C   -0.301494
    33  C   -0.478874
    34  H    0.149844
    35  H    0.149831
    36  H    0.153459
    37  H    0.151817
    38  H    0.155121
    39  H    0.160749
    40  H    0.158701
 Sum of Mulliken charges =  -0.00000

 Dipole moment (field-independent basis, Debye):
    X=              0.0191    Y=              0.0203    Z=             -0.0130  Tot=              0.0308
 Quadrupole moment (field-independent basis, Debye-Ang):
   XX=            -85.1806   YY=            -86.2635   ZZ=            -83.3899
   XY=             -0.1375   XZ=             -1.0406   YZ=              0.2260

 Normal termination of Gaussian 16 at Thu May  6 05:26:51 2021.
