 Gaussian 16, Revision A.03,
 Gaussian 16:  EM64L-G16RevA.03 25-Dec-2016

 -------------
 #p 6-31g* mp2
 -------------

 ------------------------------------------------------
 Input file generated by CHIRIPA (05-May-2021 14:55:25)
 ------------------------------------------------------
 Symbolic Z-matrix:
 Charge =  0 Multiplicity = 1

                         Standard orientation:
 ---------------------------------------------------------------------
 Center     Atomic      Atomic             Coordinates (Angstroms)
 Number     Number       Type             X           Y           Z
 ---------------------------------------------------------------------
      1          6           0        1.275595    0.995666    2.236494
      2          6           0        1.097668   -0.388220    2.137896
      3          6           0        1.682061   -1.106363    1.090372
      4          6           0        2.441532   -0.405532    0.154782
      5          6           0        2.637207    0.972857    0.225816
      6          6           0        2.043443    1.670598    1.281823
      7          1           0        0.817985    1.545612    3.053530
      8          1           0        0.501861   -0.915006    2.877866
      9          1           0        1.560553   -2.178084    0.990039
     10          1           0        3.236551    1.470325   -0.526999
     11          1           0        2.183326    2.745304    1.355879
     12          7           0        3.065162   -1.154998   -0.958675
     13          8           0        3.729687   -0.514215   -1.770118
     14          8           0        2.877631   -2.369021   -0.998875
     15          6           0       -2.295439    0.657256   -0.342347
     16          6           0       -2.017186    1.846372   -1.262437
     17          6           0       -0.616484    2.428202   -1.069288
     18          1           0       -2.168696    0.972620    0.702367
     19          1           0       -1.544485   -0.123488   -0.526466
     20          1           0       -2.769268    2.624078   -1.077614
     21          1           0       -2.144793    1.528190   -2.305075
     22          1           0        0.146924    1.670463   -1.273346
     23          1           0       -0.481099    2.772578   -0.038911
     24          1           0       -0.438832    3.277129   -1.736836
     25          6           0       -3.691760    0.064691   -0.523682
     26          6           0       -3.970015   -1.124424    0.396407
     27          6           0       -5.370715   -1.706253    0.203258
     28          1           0       -4.442715    0.845436   -0.339564
     29          1           0       -3.818504   -0.250672   -1.568396
     30          1           0       -3.842407   -0.806243    1.439045
     31          1           0       -3.217932   -1.902131    0.211584
     32          1           0       -5.506102   -2.050631   -0.827119
     33          1           0       -6.134125   -0.948515    0.407316
     34          1           0       -5.548369   -2.555182    0.870806
 ---------------------------------------------------------------------

 SCF Done:  E(RHF) =  -669.534535447     A.U. after   15 cycles
 E2 =    -0.2093854020D+01 EUMP2 =    -0.67162838946707D+03

 The electronic state is 1-A.
 Alpha  occ. eigenvalues --  -20.60809 -20.60804 -15.85862 -11.31233 -11.27780
 Alpha  occ. eigenvalues --  -11.27740 -11.27500 -11.26811 -11.26764 -11.21887
 Alpha  occ. eigenvalues --  -11.21772 -11.21613 -11.21554 -11.21290 -11.21210
 Alpha  occ. eigenvalues --   -1.59886  -1.39439  -1.19392  -1.08791  -1.08641
 Alpha  occ. eigenvalues --   -1.04793  -1.03741  -0.96191  -0.95623  -0.87217
 Alpha  occ. eigenvalues --   -0.86188  -0.82451  -0.79824  -0.78465  -0.77498
 Alpha  occ. eigenvalues --   -0.72078  -0.71213  -0.70492  -0.65281  -0.65040
 Alpha  occ. eigenvalues --   -0.64788  -0.62134  -0.61144  -0.59569  -0.57839
 Alpha  occ. eigenvalues --   -0.55485  -0.55287  -0.53394  -0.52903  -0.52867
 Alpha  occ. eigenvalues --   -0.52409  -0.50136  -0.48838  -0.48834  -0.48083
 Alpha  occ. eigenvalues --   -0.46858  -0.45985  -0.45909  -0.44842  -0.44003
 Alpha  occ. eigenvalues --   -0.37331  -0.36287
 Alpha virt. eigenvalues --    0.05004   0.11157   0.16469   0.21130   0.22709
 Alpha virt. eigenvalues --    0.24043   0.26259   0.26754   0.27181   0.28255
 Alpha virt. eigenvalues --    0.28315   0.30591   0.31254   0.31684   0.31737

 Mulliken charges:
               1
     1  C   -0.171668
     2  C   -0.215547
     3  C   -0.172438
     4  C    0.158895
     5  C   -0.173528
     6  C   -0.210963
     7  H    0.225259
     8  H    0.223948
     9  H    0.275567
    10  H    0.275893
    11  H    0.223965
    12  N    0.487831
    13  O   -0.460254
    14  O   -0.460447
    15  C   -0.297170
    16  C   -0.300395
    17  C   -0.475973
    18  H    0.143655
    19  H    0.151991
    20  H    0.150362
    21  H    0.154653
    22  H    0.160457
    23  H    0.147735
    24  H    0.158420
    25  C   -0.298577
    26  C   -0.299294
    27  C   -0.475694
    28  H    0.148997
    29  H    0.152149
    30  H    0.147639
    31  H    0.152144
    32  H    0.157228
    33  H    0.155194
    34  H    0.159968
 Sum of Mulliken charges =  -0.00000

 Dipole moment (field-independent basis, Debye):
    X=             -2.1412    Y=              2.6101    Z=              3.9089  Tot=              5.1650
 Quadrupole moment (field-independent basis, Debye-Ang):
   XX=           -106.2842   YY=            -93.5508   ZZ=            -92.9628
   XY=              8.7858   XZ=              8.4062   YZ=             -2.3619

 Normal termination of Gaussian 16 at Thu May  6 12:43:38 2021.
