 Gaussian 16, Revision A.03,
 Gaussian 16:  EM64L-G16RevA.03 25-Dec-2016

 -------------
 #p 6-31g* mp2
 -------------

 ------------------------------------------------------
 Input file generated by CHIRIPA (05-May-2021 14:55:18)
 ------------------------------------------------------
 Symbolic Z-matrix:
 Charge =  0 Multiplicity = 1

                         Standard orientation:
 ---------------------------------------------------------------------
 Center     Atomic      Atomic             Coordinates (Angstroms)
 Number     Number       Type             X           Y           Z
 ---------------------------------------------------------------------
      1          6           0       -4.835313    0.677638   -1.115730
      2          6           0       -4.983027   -0.355309   -0.184215
      3          6           0       -3.874525   -0.849469    0.509743
      4          6           0       -2.627452   -0.284948    0.246277
      5          6           0       -2.448004    0.745038   -0.675795
      6          6           0       -3.570503    1.223553   -1.358120
      7          1           0       -5.701861    1.055437   -1.650295
      8          1           0       -5.964085   -0.781180    0.006060
      9          1           0       -3.960400   -1.648406    1.236202
     10          1           0       -1.457281    1.149478   -0.844063
     11          1           0       -3.452801    2.025831   -2.080990
     12          7           0       -1.446521   -0.799812    0.974781
     13          8           0       -0.358618   -0.285507    0.724595
     14          8           0       -1.631173   -1.707917    1.782176
     15          6           0        3.997582   -0.394455   -0.053299
     16          6           0        3.663439   -1.475420   -1.081816
     17          6           0        4.442223   -2.770986   -0.852032
     18          1           0        5.075838   -0.186577   -0.086396
     19          1           0        3.783980   -0.778016    0.954000
     20          1           0        3.876304   -1.089442   -2.086966
     21          1           0        2.585823   -1.680613   -1.046400
     22          1           0        4.222301   -3.182142    0.138516
     23          1           0        5.520113   -2.587613   -0.907962
     24          1           0        4.188027   -3.529974   -1.598477
     25          6           0        3.226952    0.906691   -0.269802
     26          6           0        3.561095    1.987656    0.758716
     27          6           0        2.782310    3.283222    0.528932
     28          1           0        3.440554    1.290253   -1.277099
     29          1           0        2.148696    0.698813   -0.236704
     30          1           0        4.638712    2.192849    0.723300
     31          1           0        3.348231    1.601678    1.763865
     32          1           0        1.704420    3.099849    0.584862
     33          1           0        3.002234    3.694379   -0.461616
     34          1           0        3.036506    4.042210    1.275377
 ---------------------------------------------------------------------

 SCF Done:  E(RHF) =  -669.536386484     A.U. after   15 cycles
 E2 =    -0.2091123318D+01 EUMP2 =    -0.67162750980187D+03

 The electronic state is 1-A.
 Alpha  occ. eigenvalues --  -20.61010 -20.60994 -15.86048 -11.31329 -11.27889
 Alpha  occ. eigenvalues --  -11.27886 -11.27620 -11.26889 -11.26879 -11.20692
 Alpha  occ. eigenvalues --  -11.20605 -11.20417 -11.20316 -11.20225 -11.20203
 Alpha  occ. eigenvalues --   -1.60068  -1.39626  -1.19495  -1.08906  -1.07403
 Alpha  occ. eigenvalues --   -1.04886  -1.02628  -0.95755  -0.95086  -0.86289
 Alpha  occ. eigenvalues --   -0.86115  -0.82593  -0.78691  -0.77661  -0.77203
 Alpha  occ. eigenvalues --   -0.72277  -0.71380  -0.70605  -0.65157  -0.64889
 Alpha  occ. eigenvalues --   -0.63987  -0.62235  -0.60012  -0.58468  -0.56708
 Alpha  occ. eigenvalues --   -0.55392  -0.54359  -0.53220  -0.52978  -0.51832
 Alpha  occ. eigenvalues --   -0.51538  -0.49075  -0.49027  -0.48970  -0.47025
 Alpha  occ. eigenvalues --   -0.45690  -0.45068  -0.44773  -0.44585  -0.42842
 Alpha  occ. eigenvalues --   -0.37472  -0.36486
 Alpha virt. eigenvalues --    0.04877   0.11169   0.16377   0.21065   0.23717
 Alpha virt. eigenvalues --    0.24951   0.26545   0.27446   0.28079   0.28805
 Alpha virt. eigenvalues --    0.29085   0.30895   0.31769   0.32473   0.32751

 Mulliken charges:
               1
     1  C   -0.170507
     2  C   -0.218560
     3  C   -0.170749
     4  C    0.157467
     5  C   -0.170579
     6  C   -0.218557
     7  H    0.226184
     8  H    0.223943
     9  H    0.275872
    10  H    0.275830
    11  H    0.224253
    12  N    0.496799
    13  O   -0.470017
    14  O   -0.458626
    15  C   -0.296400
    16  C   -0.301164
    17  C   -0.475437
    18  H    0.143873
    19  H    0.155358
    20  H    0.145959
    21  H    0.160312
    22  H    0.157667
    23  H    0.151813
    24  H    0.156711
    25  C   -0.309035
    26  C   -0.297853
    27  C   -0.475694
    28  H    0.140711
    29  H    0.173517
    30  H    0.147508
    31  H    0.156414
    32  H    0.155248
    33  H    0.150361
    34  H    0.157379
 Sum of Mulliken charges =  -0.00000

 Dipole moment (field-independent basis, Debye):
    X=             -4.4783    Y=              1.7077    Z=             -2.4529  Tot=              5.3841
 Quadrupole moment (field-independent basis, Debye-Ang):
   XX=            -72.2467   YY=            -95.6301   ZZ=            -95.2301
   XY=             -0.9760   XZ=              4.2862   YZ=             -1.0518

 Normal termination of Gaussian 16 at Thu May  6 06:03:55 2021.
