 Gaussian 16, Revision A.03,
 Gaussian 16:  EM64L-G16RevA.03 25-Dec-2016

 -------------
 #p 6-31g* mp2
 -------------

 ------------------------------------------------------
 Input file generated by CHIRIPA (05-May-2021 14:57:21)
 ------------------------------------------------------
 Symbolic Z-matrix:
 Charge =  0 Multiplicity = 1

                         Standard orientation:
 ---------------------------------------------------------------------
 Center     Atomic      Atomic             Coordinates (Angstroms)
 Number     Number       Type             X           Y           Z
 ---------------------------------------------------------------------
      1          6           0        3.276518   -2.434769    0.688967
      2          6           0        4.466793   -1.712050    0.821037
      3          6           0        4.525778   -0.366513    0.446071
      4          6           0        3.370386    0.227427   -0.059491
      5          6           0        2.169602   -0.465954   -0.203131
      6          6           0        2.133736   -1.810515    0.178205
      7          1           0        3.239676   -3.479635    0.982724
      8          1           0        5.355847   -2.194262    1.217394
      9          1           0        5.434118    0.216535    0.537677
     10          1           0        1.299733    0.042046   -0.601478
     11          1           0        1.207976   -2.369320    0.074523
     12          7           0        3.420593    1.651370   -0.459822
     13          8           0        2.388859    2.151578   -0.902488
     14          8           0        4.490729    2.240287   -0.323356
     15          6           0       -3.574380    2.420725    0.697805
     16          6           0       -4.687099    1.574954    0.753026
     17          6           0       -4.581094    0.235941    0.365270
     18          6           0       -3.341589   -0.226069   -0.074578
     19          6           0       -2.214653    0.591794   -0.140934
     20          6           0       -2.343878    1.927316    0.251788
     21          1           0       -3.665747    3.459547    1.000951
     22          1           0       -5.643975    1.955406    1.098989
     23          1           0       -5.426370   -0.440709    0.398014
     24          1           0       -1.273972    0.183707   -0.490224
     25          1           0       -1.478032    2.581859    0.207854
     26          7           0       -3.217075   -1.641775   -0.487706
     27          8           0       -2.113943   -2.024464   -0.871484
     28          8           0       -4.224970   -2.341909   -0.419914
 ---------------------------------------------------------------------

 SCF Done:  E(RHF) =  -868.339808388     A.U. after   16 cycles
 E2 =    -0.2599198436D+01 EUMP2 =    -0.87093900682400D+03

 The electronic state is 1-A.
 Alpha  occ. eigenvalues --  -20.61290 -20.61237 -20.61042 -20.61002 -15.86302
 Alpha  occ. eigenvalues --  -15.86065 -11.31422 -11.31220 -11.27990 -11.27921
 Alpha  occ. eigenvalues --  -11.27773 -11.27720 -11.27566 -11.27349 -11.26894
 Alpha  occ. eigenvalues --  -11.26798 -11.26706 -11.26550  -1.60328  -1.60095
 Alpha  occ. eigenvalues --   -1.39895  -1.39660  -1.19543  -1.19335  -1.08972
 Alpha  occ. eigenvalues --   -1.08756  -1.04903  -1.04691  -0.95863  -0.95644
 Alpha  occ. eigenvalues --   -0.86313  -0.86095  -0.82701  -0.82474  -0.77816
 Alpha  occ. eigenvalues --   -0.77545  -0.72534  -0.72293  -0.71635  -0.71409
 Alpha  occ. eigenvalues --   -0.70688  -0.70418  -0.65193  -0.64985  -0.64888
 Alpha  occ. eigenvalues --   -0.64639  -0.62358  -0.61944  -0.55398  -0.55168
 Alpha  occ. eigenvalues --   -0.53245  -0.53049  -0.53000  -0.52713  -0.49303
 Alpha  occ. eigenvalues --   -0.49246  -0.49065  -0.49014  -0.45353  -0.45113
 Alpha  occ. eigenvalues --   -0.37490  -0.37284  -0.36492  -0.36282
 Alpha virt. eigenvalues --    0.04707   0.04939   0.11159   0.11367   0.16280
 Alpha virt. eigenvalues --    0.16512   0.19051   0.22288   0.24680   0.27676
 Alpha virt. eigenvalues --    0.28195   0.29722   0.31154   0.31505   0.31939

 Mulliken charges:
               1
     1  C   -0.171103
     2  C   -0.218203
     3  C   -0.171475
     4  C    0.160275
     5  C   -0.178474
     6  C   -0.224116
     7  H    0.228387
     8  H    0.223629
     9  H    0.274762
    10  H    0.272147
    11  H    0.241905
    12  N    0.488155
    13  O   -0.468037
    14  O   -0.458537
    15  C   -0.170498
    16  C   -0.218423
    17  C   -0.170675
    18  C    0.159033
    19  C   -0.176022
    20  C   -0.222099
    21  H    0.228621
    22  H    0.224401
    23  H    0.275376
    24  H    0.273411
    25  H    0.236308
    26  N    0.488983
    27  O   -0.470780
    28  O   -0.456951
 Sum of Mulliken charges =  -0.00000

 Dipole moment (field-independent basis, Debye):
    X=             -0.7154    Y=             -0.0452    Z=              2.9638  Tot=              3.0492
 Quadrupole moment (field-independent basis, Debye-Ang):
   XX=            -93.1307   YY=           -109.7683   ZZ=           -106.3287
   XY=            -33.5632   XZ=              0.2120   YZ=             -0.1570

 Normal termination of Gaussian 16 at Wed May  5 20:54:36 2021.
