 Gaussian 16, Revision A.03,
 Gaussian 16:  EM64L-G16RevA.03 25-Dec-2016

 -------------
 #p 6-31g* mp2
 -------------

 ------------------------------------------------------
 Input file generated by CHIRIPA (05-May-2021 14:57:21)
 ------------------------------------------------------
 Symbolic Z-matrix:
 Charge =  0 Multiplicity = 1

                         Standard orientation:
 ---------------------------------------------------------------------
 Center     Atomic      Atomic             Coordinates (Angstroms)
 Number     Number       Type             X           Y           Z
 ---------------------------------------------------------------------
      1          6           0        4.320780    1.968134    1.009620
      2          6           0        4.642744    0.664354    1.400796
      3          6           0        4.120079   -0.433479    0.710772
      4          6           0        3.274788   -0.189895   -0.370635
      5          6           0        2.935293    1.097217   -0.784611
      6          6           0        3.469583    2.180031   -0.079914
      7          1           0        4.731315    2.815123    1.551346
      8          1           0        5.303538    0.496789    2.246561
      9          1           0        4.352818   -1.453301    0.992221
     10          1           0        2.273874    1.232614   -1.631730
     11          1           0        3.217812    3.191465   -0.385949
     12          7           0        2.715312   -1.344171   -1.108898
     13          8           0        1.972896   -1.102861   -2.058227
     14          8           0        3.029805   -2.468347   -0.724242
     15          6           0       -1.216789   -0.837098    1.269928
     16          6           0       -1.180257    0.011493    0.158587
     17          6           0       -2.365381    0.481234   -0.415323
     18          6           0       -3.574870    0.080550    0.150256
     19          6           0       -3.644095   -0.763868    1.257260
     20          6           0       -2.446424   -1.221393    1.814757
     21          1           0       -0.291283   -1.197260    1.709380
     22          1           0       -0.226752    0.311586   -0.266638
     23          1           0       -2.366065    1.139114   -1.275910
     24          1           0       -4.609824   -1.045668    1.658971
     25          1           0       -2.477831   -1.880322    2.677816
     26          7           0       -4.836149    0.571378   -0.448629
     27          8           0       -5.888854    0.203728    0.068367
     28          8           0       -4.748153    1.314445   -1.423690
 ---------------------------------------------------------------------

 SCF Done:  E(RHF) =  -868.338281544     A.U. after   16 cycles
 E2 =    -0.2600181530D+01 EUMP2 =    -0.87093846307410D+03

 The electronic state is 1-A.
 Alpha  occ. eigenvalues --  -20.61825 -20.61814 -20.60468 -20.60462 -15.86851
 Alpha  occ. eigenvalues --  -15.85518 -11.32221 -11.30819 -11.28766 -11.28718
 Alpha  occ. eigenvalues --  -11.28403 -11.27724 -11.27707 -11.27383 -11.27364
 Alpha  occ. eigenvalues --  -11.27103 -11.26397 -11.26342  -1.60892  -1.59544
 Alpha  occ. eigenvalues --   -1.40444  -1.39099  -1.20359  -1.18979  -1.09740
 Alpha  occ. eigenvalues --   -1.08387  -1.05739  -1.04373  -0.96579  -0.95236
 Alpha  occ. eigenvalues --   -0.87134  -0.85779  -0.83398  -0.82071  -0.78473
 Alpha  occ. eigenvalues --   -0.77129  -0.73050  -0.72241  -0.71739  -0.71418
 Alpha  occ. eigenvalues --   -0.70864  -0.70098  -0.65988  -0.65708  -0.64636
 Alpha  occ. eigenvalues --   -0.64383  -0.63077  -0.61728  -0.56190  -0.54886
 Alpha  occ. eigenvalues --   -0.54087  -0.53804  -0.52697  -0.52468  -0.49825
 Alpha  occ. eigenvalues --   -0.49812  -0.48498  -0.48493  -0.45824  -0.44520
 Alpha  occ. eigenvalues --   -0.38316  -0.37346  -0.36946  -0.35961
 Alpha virt. eigenvalues --    0.04015   0.05407   0.10158   0.11689   0.15554
 Alpha virt. eigenvalues --    0.16926   0.20366   0.21650   0.25929   0.26954
 Alpha virt. eigenvalues --    0.28005   0.28553   0.30144   0.30765   0.32387

 Mulliken charges:
               1
     1  C   -0.170467
     2  C   -0.217704
     3  C   -0.173061
     4  C    0.156146
     5  C   -0.179257
     6  C   -0.217425
     7  H    0.229632
     8  H    0.226799
     9  H    0.277135
    10  H    0.275115
    11  H    0.227679
    12  N    0.486624
    13  O   -0.459644
    14  O   -0.456628
    15  C   -0.170385
    16  C   -0.215679
    17  C   -0.171804
    18  C    0.158602
    19  C   -0.171649
    20  C   -0.218253
    21  H    0.224450
    22  H    0.223499
    23  H    0.274154
    24  H    0.274396
    25  H    0.222287
    26  N    0.488184
    27  O   -0.461414
    28  O   -0.461333
 Sum of Mulliken charges =  -0.00000

 Dipole moment (field-independent basis, Debye):
    X=              6.7539    Y=              2.3586    Z=              4.7360  Tot=              8.5795
 Quadrupole moment (field-independent basis, Debye-Ang):
   XX=           -121.5030   YY=           -103.9731   ZZ=           -102.7202
   XY=             19.8423   XZ=              0.9877   YZ=             -6.2258

 Normal termination of Gaussian 16 at Thu May  6 12:48:27 2021.
