 Gaussian 16, Revision A.03,
 Gaussian 16:  EM64L-G16RevA.03 25-Dec-2016

 -------------
 #p 6-31g* mp2
 -------------

 ------------------------------------------------------
 Input file generated by CHIRIPA (05-May-2021 14:57:22)
 ------------------------------------------------------
 Symbolic Z-matrix:
 Charge =  0 Multiplicity = 1

                         Standard orientation:
 ---------------------------------------------------------------------
 Center     Atomic      Atomic             Coordinates (Angstroms)
 Number     Number       Type             X           Y           Z
 ---------------------------------------------------------------------
      1          6           0        4.026494    1.624153   -1.166976
      2          6           0        3.993462    0.306368   -1.634816
      3          6           0        3.348636   -0.692321   -0.899039
      4          6           0        2.744505   -0.336391    0.305797
      5          6           0        2.760287    0.967572    0.798464
      6          6           0        3.410886    1.949974    0.046032
      7          1           0        4.529653    2.393632   -1.745014
      8          1           0        4.470699    0.050435   -2.576510
      9          1           0        3.307951   -1.720428   -1.237800
     10          1           0        2.275575    1.192189    1.740811
     11          1           0        3.434955    2.972553    0.411817
     12          7           0        2.058800   -1.385038    1.093547
     13          8           0        1.534141   -1.045705    2.151952
     14          8           0        2.058988   -2.526443    0.637663
     15          6           0       -2.908565   -2.286983   -0.774420
     16          6           0       -1.683807   -1.626281   -0.633137
     17          6           0       -1.643526   -0.268660   -0.301787
     18          6           0       -2.852582    0.400471   -0.118109
     19          6           0       -4.088708   -0.229933   -0.251795
     20          6           0       -4.104997   -1.587933   -0.583634
     21          1           0       -2.930538   -3.341763   -1.032010
     22          1           0       -0.753068   -2.166642   -0.780711
     23          1           0       -0.709363    0.267426   -0.186165
     24          1           0       -4.999928    0.335381   -0.098441
     25          1           0       -5.057629   -2.098465   -0.692701
     26          7           0       -2.822638    1.837924    0.232934
     27          8           0       -3.901821    2.404927    0.389483
     28          8           0       -1.720550    2.370379    0.344886
 ---------------------------------------------------------------------

 SCF Done:  E(RHF) =  -868.339865864     A.U. after   16 cycles
 E2 =    -0.2599937731D+01 EUMP2 =    -0.87093980359573D+03

 The electronic state is 1-A.
 Alpha  occ. eigenvalues --  -20.61478 -20.61417 -20.60476 -20.60460 -15.86458
 Alpha  occ. eigenvalues --  -15.85516 -11.31576 -11.30681 -11.28136 -11.28025
 Alpha  occ. eigenvalues --  -11.27747 -11.27237 -11.27203 -11.27062 -11.26951
 Alpha  occ. eigenvalues --  -11.26891 -11.26227 -11.26077  -1.60523  -1.59544
 Alpha  occ. eigenvalues --   -1.40075  -1.39106  -1.19709  -1.18819  -1.09149
 Alpha  occ. eigenvalues --   -1.08247  -1.05041  -1.04192  -0.96020  -0.95126
 Alpha  occ. eigenvalues --   -0.86457  -0.85594  -0.82844  -0.81969  -0.77933
 Alpha  occ. eigenvalues --   -0.77048  -0.72665  -0.71879  -0.71740  -0.70856
 Alpha  occ. eigenvalues --   -0.70778  -0.69933  -0.65342  -0.65019  -0.64475
 Alpha  occ. eigenvalues --   -0.64179  -0.62379  -0.61541  -0.55540  -0.54695
 Alpha  occ. eigenvalues --   -0.53416  -0.53111  -0.52523  -0.52273  -0.49452
 Alpha  occ. eigenvalues --   -0.49405  -0.48508  -0.48479  -0.45502  -0.44557
 Alpha  occ. eigenvalues --   -0.37677  -0.36779  -0.36623  -0.35768
 Alpha virt. eigenvalues --    0.04529   0.05479   0.10972   0.11887   0.16057
 Alpha virt. eigenvalues --    0.17028   0.21198   0.21910   0.27159   0.27177
 Alpha virt. eigenvalues --    0.28248   0.28703   0.30878   0.31408   0.32215

 Mulliken charges:
               1
     1  C   -0.169544
     2  C   -0.218241
     3  C   -0.173835
     4  C    0.150511
     5  C   -0.170106
     6  C   -0.216012
     7  H    0.228405
     8  H    0.224266
     9  H    0.273112
    10  H    0.281697
    11  H    0.229746
    12  N    0.485603
    13  O   -0.453103
    14  O   -0.466567
    15  C   -0.170926
    16  C   -0.219294
    17  C   -0.168960
    18  C    0.157689
    19  C   -0.171870
    20  C   -0.218541
    21  H    0.226249
    22  H    0.233474
    23  H    0.269403
    24  H    0.273391
    25  H    0.221608
    26  N    0.488676
    27  O   -0.461560
    28  O   -0.465271
 Sum of Mulliken charges =  -0.00000

 Dipole moment (field-independent basis, Debye):
    X=              2.5691    Y=             -1.2689    Z=             -3.9279  Tot=              4.8620
 Quadrupole moment (field-independent basis, Debye-Ang):
   XX=            -86.0710   YY=           -109.8262   ZZ=           -104.8209
   XY=             23.9759   XZ=             -4.5347   YZ=              4.8943

 Normal termination of Gaussian 16 at Fri May  7 06:22:46 2021.
