 Gaussian 16, Revision A.03,
 Gaussian 16:  EM64L-G16RevA.03 25-Dec-2016

 -------------
 #p 6-31g* mp2
 -------------

 ------------------------------------------------------
 Input file generated by CHIRIPA (05-May-2021 14:55:20)
 ------------------------------------------------------
 Symbolic Z-matrix:
 Charge =  0 Multiplicity = 1

                         Standard orientation:
 ---------------------------------------------------------------------
 Center     Atomic      Atomic             Coordinates (Angstroms)
 Number     Number       Type             X           Y           Z
 ---------------------------------------------------------------------
      1          6           0       -0.920564    1.914454    1.280015
      2          6           0       -1.382817    2.307674    0.019768
      3          6           0       -2.302153    1.518171   -0.677408
      4          6           0       -2.740127    0.336283   -0.081916
      5          6           0       -2.298240   -0.082470    1.172146
      6          6           0       -1.378942    0.722739    1.851175
      7          1           0       -0.206417    2.533860    1.814549
      8          1           0       -1.028566    3.232672   -0.426247
      9          1           0       -2.676486    1.798782   -1.654419
     10          1           0       -2.669619   -1.009864    1.590997
     11          1           0       -1.021677    0.414864    2.829755
     12          7           0       -3.713366   -0.507842   -0.810379
     13          8           0       -4.083819   -1.544603   -0.264002
     14          8           0       -4.087310   -0.116722   -1.913932
     15          6           0        2.846803   -1.220057   -0.095781
     16          6           0        1.559890   -1.081922    0.718318
     17          6           0        0.659544   -2.313327    0.614316
     18          1           0        2.589606   -1.400131   -1.148572
     19          1           0        3.396378   -2.107329    0.247892
     20          1           0        1.013584   -0.194390    0.374148
     21          1           0        1.820181   -0.901966    1.769261
     22          1           0        1.182273   -3.204452    0.976602
     23          1           0        0.371094   -2.492856   -0.426437
     24          1           0       -0.254709   -2.193141    1.203855
     25          6           0        3.757294    0.003020   -0.001866
     26          6           0        5.044206   -0.135115   -0.815965
     27          6           0        5.944552    1.096289   -0.711964
     28          1           0        3.207718    0.890292   -0.345540
     29          1           0        4.014490    0.183094    1.050924
     30          1           0        4.783916   -0.315071   -1.866908
     31          1           0        5.590511   -1.022647   -0.471795
     32          1           0        6.233003    1.275819    0.328790
     33          1           0        5.421824    1.987414   -1.074250
     34          1           0        6.858806    0.976104   -1.301502
 ---------------------------------------------------------------------

 SCF Done:  E(RHF) =  -669.534010625     A.U. after   15 cycles
 E2 =    -0.2094283878D+01 EUMP2 =    -0.67162829450267D+03

 The electronic state is 1-A.
 Alpha  occ. eigenvalues --  -20.60803 -20.60796 -15.85858 -11.31248 -11.27828
 Alpha  occ. eigenvalues --  -11.27803 -11.27544 -11.26847 -11.26807 -11.21914
 Alpha  occ. eigenvalues --  -11.21801 -11.21761 -11.21621 -11.21408 -11.21239
 Alpha  occ. eigenvalues --   -1.59877  -1.39430  -1.19438  -1.08836  -1.08716
 Alpha  occ. eigenvalues --   -1.04854  -1.03800  -0.96264  -0.95648  -0.87279
 Alpha  occ. eigenvalues --   -0.86230  -0.82480  -0.79881  -0.78562  -0.77524
 Alpha  occ. eigenvalues --   -0.72075  -0.71202  -0.70535  -0.65368  -0.65082
 Alpha  occ. eigenvalues --   -0.64835  -0.62209  -0.61221  -0.59680  -0.57939
 Alpha  occ. eigenvalues --   -0.55565  -0.55326  -0.53314  -0.52943  -0.52776
 Alpha  occ. eigenvalues --   -0.52612  -0.50193  -0.48837  -0.48828  -0.48204
 Alpha  occ. eigenvalues --   -0.46902  -0.46099  -0.46010  -0.44830  -0.44081
 Alpha  occ. eigenvalues --   -0.37335  -0.36372
 Alpha virt. eigenvalues --    0.04983   0.11161   0.16389   0.20806   0.22686
 Alpha virt. eigenvalues --    0.24076   0.26118   0.26495   0.27015   0.28113
 Alpha virt. eigenvalues --    0.28464   0.30416   0.31276   0.31438   0.31908

 Mulliken charges:
               1
     1  C   -0.172167
     2  C   -0.218898
     3  C   -0.171710
     4  C    0.158576
     5  C   -0.169739
     6  C   -0.213386
     7  H    0.226629
     8  H    0.223776
     9  H    0.275850
    10  H    0.275659
    11  H    0.224449
    12  N    0.488105
    13  O   -0.459958
    14  O   -0.460503
    15  C   -0.298173
    16  C   -0.304635
    17  C   -0.474542
    18  H    0.151797
    19  H    0.150051
    20  H    0.159849
    21  H    0.142991
    22  H    0.155368
    23  H    0.159775
    24  H    0.154126
    25  C   -0.297560
    26  C   -0.299789
    27  C   -0.475663
    28  H    0.146016
    29  H    0.147269
    30  H    0.153379
    31  H    0.153204
    32  H    0.154480
    33  H    0.153653
    34  H    0.161719
 Sum of Mulliken charges =  -0.00000

 Dipole moment (field-independent basis, Debye):
    X=              3.3763    Y=              2.9899    Z=              2.5211  Tot=              5.1667
 Quadrupole moment (field-independent basis, Debye-Ang):
   XX=           -114.8252   YY=            -91.5021   ZZ=            -91.9989
   XY=             -7.8943   XZ=             -7.1355   YZ=             -2.3602

 Normal termination of Gaussian 16 at Wed May  5 23:46:30 2021.
