 Gaussian 16, Revision A.03,
 Gaussian 16:  EM64L-G16RevA.03 25-Dec-2016

 -------------
 #p 6-31g* mp2
 -------------

 ------------------------------------------------------
 Input file generated by CHIRIPA (05-May-2021 14:51:10)
 ------------------------------------------------------
 Symbolic Z-matrix:
 Charge =  0 Multiplicity = 1

                         Standard orientation:
 ---------------------------------------------------------------------
 Center     Atomic      Atomic             Coordinates (Angstroms)
 Number     Number       Type             X           Y           Z
 ---------------------------------------------------------------------
      1          6           0       -4.074704    0.526992   -0.454223
      2          6           0       -2.996591    1.175021    0.415095
      3          6           0       -2.080175    2.107967   -0.377109
      4          1           0       -3.593282   -0.033204   -1.267463
      5          1           0       -4.674851    1.314928   -0.930013
      6          1           0       -2.399531    0.386088    0.890194
      7          1           0       -3.480632    1.733581    1.226472
      8          1           0       -2.658103    2.915330   -0.838375
      9          1           0       -1.570860    1.560180   -1.176564
     10          1           0       -1.316951    2.560380    0.263728
     11          6           0       -4.998735   -0.408448    0.323497
     12          6           0       -6.076848   -1.056478   -0.545822
     13          6           0       -6.993264   -1.989424    0.246382
     14          1           0       -4.398588   -1.196384    0.799286
     15          1           0       -5.480157    0.151747    1.136736
     16          1           0       -5.592808   -1.615038   -1.357198
     17          1           0       -6.673908   -0.267544   -1.020921
     18          1           0       -7.502579   -1.441636    1.045837
     19          1           0       -6.415336   -2.796786    0.707649
     20          1           0       -7.756488   -2.441837   -0.394454
     21          6           0        5.188010   -0.156516   -0.321673
     22          6           0        6.146534   -1.145153    0.343017
     23          6           0        7.444981   -1.329081   -0.443113
     24          1           0        4.957056   -0.505973   -1.337293
     25          1           0        5.691548    0.813886   -0.431967
     26          1           0        5.640863   -2.113014    0.453282
     27          1           0        6.375082   -0.793400    1.357242
     28          1           0        7.974066   -0.375677   -0.541556
     29          1           0        7.235675   -1.702788   -1.450652
     30          1           0        8.115515   -2.039862    0.049872
     31          6           0        3.885430    0.037972    0.452399
     32          6           0        2.926905    1.026610   -0.212290
     33          6           0        1.628458    1.210537    0.573839
     34          1           0        3.381891   -0.932429    0.562694
     35          1           0        4.116383    0.387430    1.468019
     36          1           0        2.698357    0.674857   -1.226516
     37          1           0        3.432575    1.994471   -0.322556
     38          1           0        1.837763    1.584245    1.581378
     39          1           0        1.099373    0.257134    0.672282
     40          1           0        0.957924    1.921319    0.080854
 ---------------------------------------------------------------------

 SCF Done:  E(RHF) =  -470.732907616     A.U. after   11 cycles
 E2 =    -0.1582386365D+01 EUMP2 =    -0.47231529398141D+03

 The electronic state is 1-A.
 Alpha  occ. eigenvalues --  -11.21593 -11.21592 -11.21568 -11.21566 -11.21387
 Alpha  occ. eigenvalues --  -11.21387 -11.21327 -11.21327 -11.21065 -11.21064
 Alpha  occ. eigenvalues --  -11.21009 -11.20980  -1.08416  -1.08403  -1.03535
 Alpha  occ. eigenvalues --   -1.03477  -0.96024  -0.95892  -0.87076  -0.86879
 Alpha  occ. eigenvalues --   -0.79624  -0.79519  -0.78224  -0.78222  -0.65056
 Alpha  occ. eigenvalues --   -0.65026  -0.60961  -0.60858  -0.59610  -0.59105
 Alpha  occ. eigenvalues --   -0.57653  -0.57474  -0.55318  -0.55173  -0.53014
 Alpha  occ. eigenvalues --   -0.52459  -0.52376  -0.52185  -0.49940  -0.49842
 Alpha  occ. eigenvalues --   -0.47925  -0.47846  -0.46607  -0.46596  -0.45769
 Alpha  occ. eigenvalues --   -0.45763  -0.45696  -0.45682  -0.43958  -0.43521
 Alpha virt. eigenvalues --    0.22138   0.23025   0.23583   0.24944   0.26465
 Alpha virt. eigenvalues --    0.26749   0.27152   0.27285   0.27675   0.28977
 Alpha virt. eigenvalues --    0.30188   0.31077   0.31484   0.31740   0.32150

 Mulliken charges:
               1
     1  C   -0.298543
     2  C   -0.299793
     3  C   -0.478476
     4  H    0.149510
     5  H    0.149472
     6  H    0.152689
     7  H    0.151797
     8  H    0.154345
     9  H    0.155317
    10  H    0.164328
    11  C   -0.298262
    12  C   -0.299620
    13  C   -0.475686
    14  H    0.149450
    15  H    0.149664
    16  H    0.151850
    17  H    0.151915
    18  H    0.155188
    19  H    0.155142
    20  H    0.160200
    21  C   -0.298203
    22  C   -0.299591
    23  C   -0.475682
    24  H    0.149538
    25  H    0.149508
    26  H    0.151831
    27  H    0.151919
    28  H    0.155184
    29  H    0.155138
    30  H    0.160202
    31  C   -0.298433
    32  C   -0.299455
    33  C   -0.480760
    34  H    0.149234
    35  H    0.149564
    36  H    0.151599
    37  H    0.151765
    38  H    0.154155
    39  H    0.154466
    40  H    0.167537
 Sum of Mulliken charges =  -0.00000

 Dipole moment (field-independent basis, Debye):
    X=             -0.0128    Y=              0.0181    Z=              0.0010  Tot=              0.0222
 Quadrupole moment (field-independent basis, Debye-Ang):
   XX=            -85.9102   YY=            -84.1048   ZZ=            -84.8984
   XY=             -0.4427   XZ=              0.8346   YZ=              0.7865

 Normal termination of Gaussian 16 at Wed May  5 18:12:52 2021.
