 Gaussian 16, Revision A.03,
 Gaussian 16:  EM64L-G16RevA.03 25-Dec-2016

 -------------
 #p 6-31g* mp2
 -------------

 ------------------------------------------------------
 Input file generated by CHIRIPA (05-May-2021 14:53:11)
 ------------------------------------------------------
 Symbolic Z-matrix:
 Charge =  0 Multiplicity = 1

                         Standard orientation:
 ---------------------------------------------------------------------
 Center     Atomic      Atomic             Coordinates (Angstroms)
 Number     Number       Type             X           Y           Z
 ---------------------------------------------------------------------
      1          6           0       -2.469240    1.253620   -0.712859
      2          6           0       -0.982116    1.537209   -0.927396
      3          6           0       -0.734524    2.789111   -1.769557
      4          1           0       -2.959559    1.142998   -1.689739
      5          1           0       -2.934485    2.121989   -0.226158
      6          1           0       -0.519529    0.668013   -1.412295
      7          1           0       -0.495243    1.646980    0.050112
      8          1           0       -1.169752    3.670247   -1.287087
      9          1           0       -1.194176    2.685718   -2.757804
     10          1           0        0.335127    2.973086   -1.910477
     11          6           0       -2.732874    0.005225    0.127221
     12          6           0       -4.219997   -0.278364    0.341758
     13          6           0       -4.467589   -1.530265    1.183919
     14          1           0       -2.267629   -0.863143   -0.359480
     15          1           0       -2.242555    0.115848    1.104101
     16          1           0       -4.706870   -0.388134   -0.635750
     17          1           0       -4.682584    0.590833    0.826657
     18          1           0       -4.007938   -1.426872    2.172166
     19          1           0       -4.032361   -2.411401    0.701450
     20          1           0       -5.537241   -1.714241    1.324840
     21          6           0        1.491432   -2.244081   -1.504127
     22          6           0        2.610185   -1.420416   -1.666884
     23          6           0        2.919347   -0.446123   -0.713091
     24          6           0        2.084343   -0.322327    0.396294
     25          6           0        0.962634   -1.127806    0.586718
     26          6           0        0.672671   -2.095410   -0.379829
     27          1           0        1.258725   -2.998337   -2.250011
     28          1           0        3.247826   -1.533626   -2.539031
     29          1           0        3.779210    0.204908   -0.814149
     30          1           0        0.345764   -0.991243    1.466627
     31          1           0       -0.196820   -2.733678   -0.250816
     32          7           0        2.401476    0.705573    1.412783
     33          8           0        1.649997    0.794621    2.381281
     34          8           0        3.395519    1.402729    1.221762
 ---------------------------------------------------------------------

 SCF Done:  E(RHF) =  -669.534735597     A.U. after   15 cycles
 E2 =    -0.2095136884D+01 EUMP2 =    -0.67162987248128D+03

 The electronic state is 1-A.
 Alpha  occ. eigenvalues --  -20.60840 -20.60826 -15.85867 -11.31153 -11.27784
 Alpha  occ. eigenvalues --  -11.27722 -11.27538 -11.26787 -11.26744 -11.21902
 Alpha  occ. eigenvalues --  -11.21728 -11.21503 -11.21469 -11.21441 -11.20957
 Alpha  occ. eigenvalues --   -1.59898  -1.39455  -1.19375  -1.08780  -1.08620
 Alpha  occ. eigenvalues --   -1.04772  -1.03668  -0.96145  -0.95618  -0.87159
 Alpha  occ. eigenvalues --   -0.86174  -0.82455  -0.79761  -0.78490  -0.77474
 Alpha  occ. eigenvalues --   -0.72093  -0.71211  -0.70493  -0.65288  -0.65020
 Alpha  occ. eigenvalues --   -0.64748  -0.62128  -0.61055  -0.59536  -0.57757
 Alpha  occ. eigenvalues --   -0.55442  -0.55290  -0.53269  -0.52870  -0.52733
 Alpha  occ. eigenvalues --   -0.52557  -0.50085  -0.48857  -0.48846  -0.48054
 Alpha  occ. eigenvalues --   -0.46785  -0.45977  -0.45862  -0.44817  -0.43936
 Alpha  occ. eigenvalues --   -0.37336  -0.36273
 Alpha virt. eigenvalues --    0.05012   0.11177   0.16407   0.20497   0.22985
 Alpha virt. eigenvalues --    0.23959   0.25217   0.25973   0.27678   0.28257
 Alpha virt. eigenvalues --    0.29420   0.30442   0.31245   0.31696   0.32018

 Mulliken charges:
               1
     1  C   -0.296854
     2  C   -0.308708
     3  C   -0.475270
     4  H    0.148033
     5  H    0.152583
     6  H    0.154935
     7  H    0.157082
     8  H    0.157468
     9  H    0.152162
    10  H    0.161159
    11  C   -0.303162
    12  C   -0.299355
    13  C   -0.475937
    14  H    0.142482
    15  H    0.151958
    16  H    0.151935
    17  H    0.155614
    18  H    0.156590
    19  H    0.148864
    20  H    0.162716
    21  C   -0.171743
    22  C   -0.218993
    23  C   -0.171205
    24  C    0.161091
    25  C   -0.166639
    26  C   -0.219882
    27  H    0.225678
    28  H    0.223482
    29  H    0.275546
    30  H    0.277005
    31  H    0.223977
    32  N    0.488425
    33  O   -0.461209
    34  O   -0.459828
 Sum of Mulliken charges =  -0.00000

 Dipole moment (field-independent basis, Debye):
    X=             -1.0891    Y=             -3.5536    Z=             -3.5311  Tot=              5.1267
 Quadrupole moment (field-independent basis, Debye-Ang):
   XX=            -96.4851   YY=            -93.1470   ZZ=            -96.4445
   XY=             -6.4431   XZ=            -10.4003   YZ=              0.0382

 Normal termination of Gaussian 16 at Thu May  6 00:54:01 2021.
