 Gaussian 16, Revision A.03,
 Gaussian 16:  EM64L-G16RevA.03 25-Dec-2016

 -------------
 #p 6-31g* mp2
 -------------

 ------------------------------------------------------
 Input file generated by CHIRIPA (05-May-2021 14:57:22)
 ------------------------------------------------------
 Symbolic Z-matrix:
 Charge =  0 Multiplicity = 1

                         Standard orientation:
 ---------------------------------------------------------------------
 Center     Atomic      Atomic             Coordinates (Angstroms)
 Number     Number       Type             X           Y           Z
 ---------------------------------------------------------------------
      1          6           0       -1.760080    2.633235    0.353709
      2          6           0       -2.774676    2.202548    1.214886
      3          6           0       -3.388184    0.960840    1.024311
      4          6           0       -2.960427    0.171813   -0.042342
      5          6           0       -1.952235    0.573021   -0.917482
      6          6           0       -1.352816    1.818533   -0.707855
      7          1           0       -1.288965    3.599301    0.509153
      8          1           0       -3.092996    2.833158    2.040142
      9          1           0       -4.176010    0.602802    1.675892
     10          1           0       -1.656347   -0.077705   -1.731376
     11          1           0       -0.565115    2.150431   -1.378240
     12          7           0       -3.602463   -1.144741   -0.254180
     13          8           0       -3.207515   -1.821215   -1.201300
     14          8           0       -4.488481   -1.475254    0.530913
     15          6           0        4.065768    1.804038   -0.293406
     16          6           0        4.655506    0.774525    0.447428
     17          6           0        3.993595   -0.444665    0.620629
     18          6           0        2.737522   -0.600791    0.036512
     19          6           0        2.123730    0.405951   -0.707139
     20          6           0        2.803987    1.616795   -0.867313
     21          1           0        4.587082    2.747892   -0.422893
     22          1           0        5.635322    0.917125    0.894272
     23          1           0        4.427012   -1.258431    1.189270
     24          1           0        1.145958    0.234147   -1.140569
     25          1           0        2.343564    2.414573   -1.443167
     26          7           0        2.027075   -1.887076    0.212977
     27          8           0        0.921353   -1.999588   -0.311769
     28          8           0        2.589401   -2.758397    0.872693
 ---------------------------------------------------------------------

 SCF Done:  E(RHF) =  -868.335098703     A.U. after   16 cycles
 E2 =    -0.2602404914D+01 EUMP2 =    -0.87093750361710D+03

 The electronic state is 1-A.
 Alpha  occ. eigenvalues --  -20.60951 -20.60937 -20.60352 -20.60301 -15.86004
 Alpha  occ. eigenvalues --  -15.85399 -11.31570 -11.31061 -11.28233 -11.28143
 Alpha  occ. eigenvalues --  -11.27973 -11.27738 -11.27698 -11.27590 -11.27330
 Alpha  occ. eigenvalues --  -11.27183 -11.26936 -11.26763  -1.60014  -1.59393
 Alpha  occ. eigenvalues --   -1.39564  -1.38939  -1.19780  -1.19307  -1.09131
 Alpha  occ. eigenvalues --   -1.08650  -1.05250  -1.04784  -0.95932  -0.95424
 Alpha  occ. eigenvalues --   -0.86619  -0.86170  -0.82786  -0.82286  -0.77834
 Alpha  occ. eigenvalues --   -0.77223  -0.72216  -0.71624  -0.71344  -0.70905
 Alpha  occ. eigenvalues --   -0.70706  -0.70424  -0.65460  -0.65286  -0.64962
 Alpha  occ. eigenvalues --   -0.64847  -0.62738  -0.61974  -0.55719  -0.55293
 Alpha  occ. eigenvalues --   -0.53553  -0.53418  -0.52955  -0.52900  -0.48984
 Alpha  occ. eigenvalues --   -0.48963  -0.48408  -0.48346  -0.44926  -0.44278
 Alpha  occ. eigenvalues --   -0.37762  -0.37347  -0.36878  -0.36264
 Alpha virt. eigenvalues --    0.04746   0.05315   0.10768   0.11271   0.16180
 Alpha virt. eigenvalues --    0.16574   0.18841   0.22252   0.24982   0.26482
 Alpha virt. eigenvalues --    0.28032   0.29209   0.30454   0.31578   0.32800

 Mulliken charges:
               1
     1  C   -0.170213
     2  C   -0.218905
     3  C   -0.169073
     4  C    0.159656
     5  C   -0.163539
     6  C   -0.223034
     7  H    0.222332
     8  H    0.223239
     9  H    0.277076
    10  H    0.280133
    11  H    0.210895
    12  N    0.489047
    13  O   -0.453291
    14  O   -0.461957
    15  C   -0.170411
    16  C   -0.218836
    17  C   -0.169313
    18  C    0.157173
    19  C   -0.166772
    20  C   -0.222363
    21  H    0.225747
    22  H    0.224971
    23  H    0.277758
    24  H    0.272278
    25  H    0.215674
    26  N    0.488014
    27  O   -0.458228
    28  O   -0.458061
 Sum of Mulliken charges =  -0.00000

 Dipole moment (field-independent basis, Debye):
    X=              4.6829    Y=              8.8257    Z=              0.2624  Tot=              9.9946
 Quadrupole moment (field-independent basis, Debye-Ang):
   XX=            -99.8128   YY=           -109.4177   ZZ=           -101.3022
   XY=             -4.3624   XZ=             -4.0059   YZ=              0.4337

 Normal termination of Gaussian 16 at Thu May  6 03:21:28 2021.
