 Gaussian 16, Revision A.03,
 Gaussian 16:  EM64L-G16RevA.03 25-Dec-2016

 -------------
 #p 6-31g* mp2
 -------------

 ------------------------------------------------------
 Input file generated by CHIRIPA (05-May-2021 14:51:11)
 ------------------------------------------------------
 Symbolic Z-matrix:
 Charge =  0 Multiplicity = 1

                         Standard orientation:
 ---------------------------------------------------------------------
 Center     Atomic      Atomic             Coordinates (Angstroms)
 Number     Number       Type             X           Y           Z
 ---------------------------------------------------------------------
      1          6           0        2.178707   -0.824052   -0.401687
      2          6           0        1.363678   -2.037806    0.046102
      3          6           0       -0.005147   -2.113155   -0.630975
      4          1           0        1.610440    0.091074   -0.185905
      5          1           0        2.309486   -0.860976   -1.492067
      6          1           0        1.235656   -1.999334    1.135481
      7          1           0        1.934034   -2.950140   -0.170596
      8          1           0        0.105855   -2.176186   -1.718315
      9          1           0       -0.596491   -1.219978   -0.404817
     10          1           0       -0.570902   -2.988283   -0.296412
     11          6           0        3.549604   -0.734919    0.266463
     12          6           0        4.364632    0.478835   -0.181326
     13          6           0        5.733458    0.554184    0.495751
     14          1           0        3.418825   -0.697995    1.356843
     15          1           0        4.117871   -1.650045    0.050681
     16          1           0        3.794277    1.391169    0.035372
     17          1           0        4.492655    0.440363   -1.270705
     18          1           0        6.324802   -0.338993    0.269593
     19          1           0        5.622456    0.617216    1.583090
     20          1           0        6.299213    1.429312    0.161187
     21          6           0       -2.412847    1.308145    0.384270
     22          6           0       -1.761230    2.240186   -0.637826
     23          6           0       -0.861328    3.292337    0.010978
     24          1           0       -2.999308    1.906398    1.094974
     25          1           0       -1.627168    0.809830    0.968897
     26          1           0       -2.547874    2.735550   -1.221282
     27          1           0       -1.176406    1.639627   -1.346294
     28          1           0       -0.056232    2.813907    0.578010
     29          1           0       -1.435491    3.916057    0.703733
     30          1           0       -0.405777    3.947838   -0.737789
     31          6           0       -3.315464    0.250826   -0.249045
     32          6           0       -3.967081   -0.681215    0.773051
     33          6           0       -4.866983   -1.733366    0.124246
     34          1           0       -4.101142    0.749139   -0.833672
     35          1           0       -2.729002   -0.347427   -0.959749
     36          1           0       -4.551904   -0.080656    1.481519
     37          1           0       -3.180437   -1.176580    1.356506
     38          1           0       -4.292818   -2.357087   -0.568509
     39          1           0       -5.672079   -1.254937   -0.442787
     40          1           0       -5.322534   -2.388867    0.873013
 ---------------------------------------------------------------------

 SCF Done:  E(RHF) =  -470.733058877     A.U. after   11 cycles
 E2 =    -0.1583962022D+01 EUMP2 =    -0.47231702089944D+03

 The electronic state is 1-A.
 Alpha  occ. eigenvalues --  -11.21671 -11.21626 -11.21620 -11.21566 -11.21464
 Alpha  occ. eigenvalues --  -11.21412 -11.21399 -11.21311 -11.21132 -11.21111
 Alpha  occ. eigenvalues --  -11.21088 -11.21030  -1.08497  -1.08421  -1.03581
 Alpha  occ. eigenvalues --   -1.03524  -0.96061  -0.95955  -0.87063  -0.86985
 Alpha  occ. eigenvalues --   -0.79658  -0.79580  -0.78304  -0.78233  -0.65332
 Alpha  occ. eigenvalues --   -0.64920  -0.60965  -0.60928  -0.59396  -0.59341
 Alpha  occ. eigenvalues --   -0.57661  -0.57578  -0.55555  -0.55050  -0.52725
 Alpha  occ. eigenvalues --   -0.52670  -0.52495  -0.52348  -0.50012  -0.49874
 Alpha  occ. eigenvalues --   -0.47978  -0.47905  -0.46731  -0.46593  -0.45963
 Alpha  occ. eigenvalues --   -0.45799  -0.45697  -0.45524  -0.43834  -0.43778
 Alpha virt. eigenvalues --    0.19340   0.22606   0.23693   0.24753   0.26025
 Alpha virt. eigenvalues --    0.26533   0.26985   0.27482   0.28433   0.29693
 Alpha virt. eigenvalues --    0.30792   0.31568   0.31684   0.31807   0.32005

 Mulliken charges:
               1
     1  C   -0.300249
     2  C   -0.299451
     3  C   -0.485070
     4  H    0.150560
     5  H    0.149813
     6  H    0.151772
     7  H    0.152384
     8  H    0.155244
     9  H    0.164933
    10  H    0.160574
    11  C   -0.298320
    12  C   -0.299787
    13  C   -0.475747
    14  H    0.149583
    15  H    0.149923
    16  H    0.152228
    17  H    0.152016
    18  H    0.155186
    19  H    0.155252
    20  H    0.160451
    21  C   -0.300781
    22  C   -0.301050
    23  C   -0.476295
    24  H    0.150521
    25  H    0.148985
    26  H    0.152431
    27  H    0.153366
    28  H    0.154712
    29  H    0.155401
    30  H    0.160700
    31  C   -0.303133
    32  C   -0.299662
    33  C   -0.476049
    34  H    0.150118
    35  H    0.154407
    36  H    0.151648
    37  H    0.152403
    38  H    0.156055
    39  H    0.154982
    40  H    0.159945
 Sum of Mulliken charges =  -0.00000

 Dipole moment (field-independent basis, Debye):
    X=              0.0087    Y=             -0.0037    Z=             -0.0194  Tot=              0.0216
 Quadrupole moment (field-independent basis, Debye-Ang):
   XX=            -85.4620   YY=            -84.7650   ZZ=            -84.4660
   XY=             -1.5052   XZ=             -0.9716   YZ=              0.1306

 Normal termination of Gaussian 16 at Wed May  5 15:14:06 2021.
