 Gaussian 16, Revision A.03,
 Gaussian 16:  EM64L-G16RevA.03 25-Dec-2016

 -------------
 #p 6-31g* mp2
 -------------

 ------------------------------------------------------
 Input file generated by CHIRIPA (05-May-2021 14:51:10)
 ------------------------------------------------------
 Symbolic Z-matrix:
 Charge =  0 Multiplicity = 1

                         Standard orientation:
 ---------------------------------------------------------------------
 Center     Atomic      Atomic             Coordinates (Angstroms)
 Number     Number       Type             X           Y           Z
 ---------------------------------------------------------------------
      1          6           0       -3.543460   -0.458297    0.259768
      2          6           0       -4.219504    0.289250   -0.890067
      3          6           0       -5.601070    0.826154   -0.514830
      4          1           0       -4.187686   -1.289649    0.577214
      5          1           0       -3.453988    0.215183    1.123374
      6          1           0       -4.306423   -0.385018   -1.751707
      7          1           0       -3.573506    1.118803   -1.204940
      8          1           0       -5.528641    1.519767    0.329123
      9          1           0       -6.265723    0.007401   -0.220751
     10          1           0       -6.066261    1.356998   -1.351288
     11          6           0       -2.161517   -1.001017   -0.099976
     12          6           0       -1.485472   -1.748564    1.049859
     13          6           0       -0.103906   -2.285467    0.674622
     14          1           0       -2.250988   -1.674497   -0.963582
     15          1           0       -1.517291   -0.169665   -0.417422
     16          1           0       -2.131471   -2.578116    1.364732
     17          1           0       -1.398553   -1.074295    1.911499
     18          1           0        0.560746   -1.466715    0.380543
     19          1           0       -0.176335   -2.979080   -0.169331
     20          1           0        0.361285   -2.816311    1.511080
     21          6           0        2.212510    1.087722    0.133761
     22          6           0        2.341322    2.611334    0.133956
     23          6           0        1.052835    3.313472    0.563608
     24          1           0        1.392853    0.795490   -0.536842
     25          1           0        1.928216    0.750621    1.140208
     26          1           0        2.626638    2.945345   -0.871850
     27          1           0        3.160891    2.899962    0.804489
     28          1           0        0.767100    3.008764    1.575591
     29          1           0        0.229811    3.054405   -0.110273
     30          1           0        1.167236    4.401923    0.556616
     31          6           0        3.492467    0.371592   -0.293552
     32          6           0        3.363655   -1.152020   -0.293748
     33          6           0        4.652141   -1.854158   -0.723401
     34          1           0        3.776761    0.708692   -1.299999
     35          1           0        4.312124    0.663823    0.377051
     36          1           0        2.544085   -1.440648   -0.964282
     37          1           0        3.078338   -1.486031    0.712058
     38          1           0        5.475166   -1.595092   -0.049519
     39          1           0        4.937877   -1.549450   -1.735383
     40          1           0        4.537740   -2.942608   -0.716409
 ---------------------------------------------------------------------

 SCF Done:  E(RHF) =  -470.731868179     A.U. after   11 cycles
 E2 =    -0.1584493267D+01 EUMP2 =    -0.47231636144659D+03

 The electronic state is 1-A.
 Alpha  occ. eigenvalues --  -11.21674 -11.21577 -11.21535 -11.21491 -11.21479
 Alpha  occ. eigenvalues --  -11.21392 -11.21358 -11.21298 -11.21152 -11.21048
 Alpha  occ. eigenvalues --  -11.21036 -11.20820  -1.08500  -1.08361  -1.03569
 Alpha  occ. eigenvalues --   -1.03445  -0.96020  -0.95904  -0.87054  -0.86913
 Alpha  occ. eigenvalues --   -0.79728  -0.79481  -0.78394  -0.78083  -0.65122
 Alpha  occ. eigenvalues --   -0.64994  -0.60956  -0.60865  -0.59406  -0.59274
 Alpha  occ. eigenvalues --   -0.57642  -0.57511  -0.55306  -0.55209  -0.52768
 Alpha  occ. eigenvalues --   -0.52606  -0.52452  -0.52285  -0.49958  -0.49893
 Alpha  occ. eigenvalues --   -0.48077  -0.47772  -0.46753  -0.46631  -0.46022
 Alpha  occ. eigenvalues --   -0.45742  -0.45676  -0.45112  -0.43816  -0.43705
 Alpha virt. eigenvalues --    0.21037   0.23163   0.24000   0.24053   0.25274
 Alpha virt. eigenvalues --    0.26447   0.27132   0.27467   0.28278   0.29893
 Alpha virt. eigenvalues --    0.30864   0.31083   0.31641   0.31870   0.32070

 Mulliken charges:
               1
     1  C   -0.298149
     2  C   -0.299508
     3  C   -0.475683
     4  H    0.149641
     5  H    0.149736
     6  H    0.151723
     7  H    0.151515
     8  H    0.155308
     9  H    0.155139
    10  H    0.160098
    11  C   -0.300029
    12  C   -0.299024
    13  C   -0.485082
    14  H    0.149019
    15  H    0.150355
    16  H    0.150969
    17  H    0.151061
    18  H    0.170955
    19  H    0.152940
    20  H    0.158023
    21  C   -0.304201
    22  C   -0.299083
    23  C   -0.475932
    24  H    0.151602
    25  H    0.150777
    26  H    0.152319
    27  H    0.152446
    28  H    0.155147
    29  H    0.154665
    30  H    0.160796
    31  C   -0.297216
    32  C   -0.304478
    33  C   -0.475081
    34  H    0.149424
    35  H    0.149648
    36  H    0.155103
    37  H    0.155056
    38  H    0.154692
    39  H    0.154733
    40  H    0.160577
 Sum of Mulliken charges =  -0.00000

 Dipole moment (field-independent basis, Debye):
    X=              0.0679    Y=              0.0287    Z=             -0.0052  Tot=              0.0739
 Quadrupole moment (field-independent basis, Debye-Ang):
   XX=            -86.3224   YY=            -84.7223   ZZ=            -83.8552
   XY=              1.3318   XZ=              0.8437   YZ=              0.0666

 Normal termination of Gaussian 16 at Wed May  5 18:13:27 2021.
