 Gaussian 16, Revision A.03,
 Gaussian 16:  EM64L-G16RevA.03 25-Dec-2016

 -------------
 #p 6-31g* mp2
 -------------

 ------------------------------------------------------
 Input file generated by CHIRIPA (05-May-2021 14:57:25)
 ------------------------------------------------------
 Symbolic Z-matrix:
 Charge =  0 Multiplicity = 1

                         Standard orientation:
 ---------------------------------------------------------------------
 Center     Atomic      Atomic             Coordinates (Angstroms)
 Number     Number       Type             X           Y           Z
 ---------------------------------------------------------------------
      1          6           0        2.963168    1.859068   -0.982734
      2          6           0        3.652814    1.182077    0.028499
      3          6           0        3.207027   -0.063414    0.480799
      4          6           0        2.062848   -0.605025   -0.102984
      5          6           0        1.354025    0.044891   -1.112176
      6          6           0        1.817994    1.289319   -1.548847
      7          1           0        3.316528    2.826182   -1.328021
      8          1           0        4.542468    1.622142    0.469976
      9          1           0        3.721769   -0.609212    1.262184
     10          1           0        0.470304   -0.419170   -1.533013
     11          1           0        1.280398    1.812805   -2.334339
     12          7           0        1.581290   -1.923007    0.367572
     13          8           0        0.570624   -2.378739   -0.162993
     14          8           0        2.223628   -2.475354    1.258050
     15          6           0       -1.392441    2.432741    1.454116
     16          6           0       -1.673654    2.523649    0.086938
     17          6           0       -2.089818    1.397103   -0.628779
     18          6           0       -2.214700    0.190109    0.057413
     19          6           0       -1.941974    0.067554    1.418989
     20          6           0       -1.527261    1.207145    2.114614
     21          1           0       -1.069718    3.312936    2.002298
     22          1           0       -1.569825    3.474159   -0.428614
     23          1           0       -2.314101    1.439260   -1.687712
     24          1           0       -2.054678   -0.893702    1.905511
     25          1           0       -1.309556    1.133586    3.176329
     26          7           0       -2.654506   -1.009420   -0.689649
     27          8           0       -2.756759   -2.061183   -0.061975
     28          8           0       -2.888647   -0.875134   -1.888725
 ---------------------------------------------------------------------

 SCF Done:  E(RHF) =  -868.336391703     A.U. after   16 cycles
 E2 =    -0.2604954433D+01 EUMP2 =    -0.87094134613631D+03

 The electronic state is 1-A.
 Alpha  occ. eigenvalues --  -20.60735 -20.60670 -20.60499 -20.60368 -15.85735
 Alpha  occ. eigenvalues --  -15.85469 -11.31210 -11.31129 -11.27822 -11.27817
 Alpha  occ. eigenvalues --  -11.27775 -11.27635 -11.27607 -11.27537 -11.26897
 Alpha  occ. eigenvalues --  -11.26869 -11.26853 -11.26764  -1.59777  -1.59478
 Alpha  occ. eigenvalues --   -1.39328  -1.39026  -1.19435  -1.19323  -1.08797
 Alpha  occ. eigenvalues --   -1.08678  -1.04866  -1.04758  -0.95609  -0.95461
 Alpha  occ. eigenvalues --   -0.86248  -0.86160  -0.82443  -0.82286  -0.77495
 Alpha  occ. eigenvalues --   -0.77275  -0.72006  -0.71694  -0.71175  -0.70700
 Alpha  occ. eigenvalues --   -0.70519  -0.70428  -0.65067  -0.64994  -0.64844
 Alpha  occ. eigenvalues --   -0.64792  -0.62223  -0.62093  -0.55372  -0.55270
 Alpha  occ. eigenvalues --   -0.53601  -0.52958  -0.52878  -0.52636  -0.48733
 Alpha  occ. eigenvalues --   -0.48715  -0.48491  -0.48426  -0.44837  -0.44200
 Alpha  occ. eigenvalues --   -0.37561  -0.37266  -0.36754  -0.35962
 Alpha virt. eigenvalues --    0.05042   0.05269   0.10925   0.11422   0.16370
 Alpha virt. eigenvalues --    0.16853   0.20859   0.21650   0.26416   0.27644
 Alpha virt. eigenvalues --    0.28013   0.28499   0.30488   0.31086   0.32272

 Mulliken charges:
               1
     1  C   -0.172660
     2  C   -0.219516
     3  C   -0.171983
     4  C    0.157498
     5  C   -0.167676
     6  C   -0.217854
     7  H    0.223329
     8  H    0.222087
     9  H    0.274855
    10  H    0.278687
    11  H    0.220030
    12  N    0.487022
    13  O   -0.454247
    14  O   -0.462696
    15  C   -0.170353
    16  C   -0.215697
    17  C   -0.180963
    18  C    0.158321
    19  C   -0.170490
    20  C   -0.219051
    21  H    0.223855
    22  H    0.218824
    23  H    0.271409
    24  H    0.283751
    25  H    0.225119
    26  N    0.491196
    27  O   -0.443508
    28  O   -0.469287
 Sum of Mulliken charges =  -0.00000

 Dipole moment (field-independent basis, Debye):
    X=              3.1019    Y=              8.5001    Z=              1.1533  Tot=              9.1216
 Quadrupole moment (field-independent basis, Debye-Ang):
   XX=           -103.2309   YY=           -108.3979   ZZ=            -99.3335
   XY=             -0.3101   XZ=             -6.7161   YZ=             -1.4281

 Normal termination of Gaussian 16 at Fri May  7 09:39:42 2021.
