 Gaussian 16, Revision A.03,
 Gaussian 16:  EM64L-G16RevA.03 25-Dec-2016

 -------------
 #p 6-31g* mp2
 -------------

 ------------------------------------------------------
 Input file generated by CHIRIPA (05-May-2021 14:55:21)
 ------------------------------------------------------
 Symbolic Z-matrix:
 Charge =  0 Multiplicity = 1

                         Standard orientation:
 ---------------------------------------------------------------------
 Center     Atomic      Atomic             Coordinates (Angstroms)
 Number     Number       Type             X           Y           Z
 ---------------------------------------------------------------------
      1          6           0        0.871732    0.139954    0.247419
      2          6           0        1.718755    0.599936    1.261071
      3          6           0        3.101953    0.419925    1.166692
      4          6           0        3.606391   -0.227178    0.039709
      5          6           0        2.788467   -0.696751   -0.986835
      6          6           0        1.408345   -0.505783   -0.871326
      7          1           0       -0.201575    0.284047    0.328942
      8          1           0        1.304807    1.101770    2.131045
      9          1           0        3.780620    0.766072    1.936764
     10          1           0        3.230546   -1.193360   -1.842033
     11          1           0        0.752939   -0.864054   -1.660078
     12          7           0        5.069092   -0.423548   -0.071390
     13          8           0        5.488651   -0.996722   -1.074425
     14          8           0        5.768302   -0.000570    0.846669
     15          6           0       -3.602093    0.537396   -0.022149
     16          6           0       -3.486018    1.960200   -0.569997
     17          6           0       -2.068619    2.522694   -0.458750
     18          1           0       -3.284292    0.529154    1.029460
     19          1           0       -2.904048   -0.115066   -0.564755
     20          1           0       -4.185070    2.609503   -0.027459
     21          1           0       -3.804314    1.965092   -1.620368
     22          1           0       -1.361765    1.898740   -1.015203
     23          1           0       -1.744684    2.546812    0.586756
     24          1           0       -2.008342    3.540676   -0.856167
     25          6           0       -5.013125   -0.038673   -0.126381
     26          6           0       -5.129201   -1.461478    0.421468
     27          6           0       -6.546599   -2.023972    0.310221
     28          1           0       -5.711170    0.613789    0.416224
     29          1           0       -5.330926   -0.030431   -1.177990
     30          1           0       -4.810904   -1.466369    1.471839
     31          1           0       -4.430149   -2.110779   -0.121071
     32          1           0       -6.870534   -2.048089   -0.735286
     33          1           0       -7.253453   -1.400017    0.866674
     34          1           0       -6.606876   -3.041953    0.707637
 ---------------------------------------------------------------------

 SCF Done:  E(RHF) =  -669.535078683     A.U. after   15 cycles
 E2 =    -0.2091875269D+01 EUMP2 =    -0.67162695395195D+03

 The electronic state is 1-A.
 Alpha  occ. eigenvalues --  -20.60694 -20.60689 -15.85749 -11.31091 -11.27677
 Alpha  occ. eigenvalues --  -11.27670 -11.27311 -11.26670 -11.26650 -11.22658
 Alpha  occ. eigenvalues --  -11.22566 -11.22369 -11.22268 -11.22259 -11.21685
 Alpha  occ. eigenvalues --   -1.59771  -1.39325  -1.19265  -1.09426  -1.08654
 Alpha  occ. eigenvalues --   -1.04671  -1.04469  -0.96939  -0.95493  -0.87950
 Alpha  occ. eigenvalues --   -0.86066  -0.82342  -0.80545  -0.79243  -0.77389
 Alpha  occ. eigenvalues --   -0.71966  -0.71095  -0.70370  -0.66048  -0.64913
 Alpha  occ. eigenvalues --   -0.64682  -0.62029  -0.61849  -0.60320  -0.58562
 Alpha  occ. eigenvalues --   -0.56247  -0.55176  -0.53581  -0.53369  -0.52946
 Alpha  occ. eigenvalues --   -0.52762  -0.50875  -0.48838  -0.48723  -0.48701
 Alpha  occ. eigenvalues --   -0.47575  -0.46748  -0.46679  -0.44736  -0.44726
 Alpha  occ. eigenvalues --   -0.37208  -0.36284
 Alpha virt. eigenvalues --    0.05136   0.11339   0.16580   0.19617   0.22382
 Alpha virt. eigenvalues --    0.23883   0.24896   0.26019   0.26905   0.27506
 Alpha virt. eigenvalues --    0.29465   0.29929   0.30162   0.31369   0.31572

 Mulliken charges:
               1
     1  C   -0.173823
     2  C   -0.221633
     3  C   -0.170558
     4  C    0.157910
     5  C   -0.170381
     6  C   -0.222140
     7  H    0.237460
     8  H    0.222876
     9  H    0.275187
    10  H    0.275150
    11  H    0.222104
    12  N    0.488110
    13  O   -0.460815
    14  O   -0.460740
    15  C   -0.301513
    16  C   -0.299559
    17  C   -0.480731
    18  H    0.147920
    19  H    0.142994
    20  H    0.156272
    21  H    0.155672
    22  H    0.152562
    23  H    0.150743
    24  H    0.168240
    25  C   -0.298485
    26  C   -0.300339
    27  C   -0.476307
    28  H    0.152658
    29  H    0.152129
    30  H    0.152349
    31  H    0.151270
    32  H    0.156378
    33  H    0.156582
    34  H    0.162458
 Sum of Mulliken charges =  -0.00000

 Dipole moment (field-independent basis, Debye):
    X=             -5.4515    Y=              0.7610    Z=              0.3724  Tot=              5.5170
 Quadrupole moment (field-independent basis, Debye-Ang):
   XX=           -132.3596   YY=            -94.5060   ZZ=            -90.1677
   XY=              3.2972   XZ=              1.7422   YZ=              2.5269

 Normal termination of Gaussian 16 at Thu May  6 10:55:10 2021.
