 Gaussian 16, Revision A.03,
 Gaussian 16:  EM64L-G16RevA.03 25-Dec-2016

 -------------
 #p 6-31g* mp2
 -------------

 ------------------------------------------------------
 Input file generated by CHIRIPA (05-May-2021 14:55:19)
 ------------------------------------------------------
 Symbolic Z-matrix:
 Charge =  0 Multiplicity = 1

                         Standard orientation:
 ---------------------------------------------------------------------
 Center     Atomic      Atomic             Coordinates (Angstroms)
 Number     Number       Type             X           Y           Z
 ---------------------------------------------------------------------
      1          6           0        1.105192   -2.324576    1.216083
      2          6           0        1.067554   -1.013311    1.701560
      3          6           0        1.784826    0.001686    1.061363
      4          6           0        2.532678   -0.331467   -0.066917
      5          6           0        2.590260   -1.628400   -0.574795
      6          6           0        1.865085   -2.627402    0.081456
      7          1           0        0.544929   -3.106837    1.719639
      8          1           0        0.478267   -0.775225    2.582526
      9          1           0        1.773408    1.025218    1.415863
     10          1           0        3.186704   -1.835096   -1.455107
     11          1           0        1.896173   -3.644868   -0.297809
     12          7           0        3.296204    0.734598   -0.753163
     13          8           0        3.947453    0.415222   -1.745388
     14          8           0        3.228950    1.869370   -0.285822
     15          6           0       -2.659668    1.271300   -0.197238
     16          6           0       -1.676413    1.599797    0.926721
     17          6           0       -0.841187    2.847003    0.635746
     18          1           0       -2.102654    1.131047   -1.133726
     19          1           0       -3.325530    2.130963   -0.355354
     20          1           0       -1.013498    0.739245    1.083606
     21          1           0       -2.235814    1.739095    1.860681
     22          1           0       -1.487325    3.720338    0.500125
     23          1           0       -0.258065    2.714807   -0.281366
     24          1           0       -0.145105    3.063483    1.452121
     25          6           0       -3.501840    0.027049    0.079007
     26          6           0       -4.485096   -0.301448   -1.044953
     27          6           0       -5.320321   -1.548655   -0.753977
     28          1           0       -2.835977   -0.832615    0.237123
     29          1           0       -4.058855    0.167301    1.015494
     30          1           0       -3.925694   -0.440746   -1.978913
     31          1           0       -5.148010    0.559103   -1.201838
     32          1           0       -5.903444   -1.416459    0.163134
     33          1           0       -4.674183   -2.421991   -0.618356
     34          1           0       -6.016403   -1.765135   -1.570352
 ---------------------------------------------------------------------

 SCF Done:  E(RHF) =  -669.534587722     A.U. after   15 cycles
 E2 =    -0.2093749640D+01 EUMP2 =    -0.67162833736270D+03

 The electronic state is 1-A.
 Alpha  occ. eigenvalues --  -20.60832 -20.60826 -15.85879 -11.31257 -11.27830
 Alpha  occ. eigenvalues --  -11.27807 -11.27576 -11.26847 -11.26823 -11.21856
 Alpha  occ. eigenvalues --  -11.21774 -11.21684 -11.21563 -11.21372 -11.21142
 Alpha  occ. eigenvalues --   -1.59903  -1.39455  -1.19446  -1.08834  -1.08673
 Alpha  occ. eigenvalues --   -1.04864  -1.03757  -0.96205  -0.95658  -0.87209
 Alpha  occ. eigenvalues --   -0.86235  -0.82506  -0.79832  -0.78514  -0.77531
 Alpha  occ. eigenvalues --   -0.72096  -0.71227  -0.70542  -0.65335  -0.65079
 Alpha  occ. eigenvalues --   -0.64843  -0.62262  -0.61119  -0.59571  -0.57827
 Alpha  occ. eigenvalues --   -0.55508  -0.55307  -0.53202  -0.52994  -0.52841
 Alpha  occ. eigenvalues --   -0.52589  -0.50115  -0.48858  -0.48849  -0.48145
 Alpha  occ. eigenvalues --   -0.46865  -0.46040  -0.45964  -0.44848  -0.44014
 Alpha  occ. eigenvalues --   -0.37424  -0.36339
 Alpha virt. eigenvalues --    0.04966   0.11112   0.16347   0.20702   0.22787
 Alpha virt. eigenvalues --    0.23871   0.26235   0.26522   0.26909   0.28187
 Alpha virt. eigenvalues --    0.29028   0.30431   0.31269   0.31479   0.32099

 Mulliken charges:
               1
     1  C   -0.172373
     2  C   -0.220540
     3  C   -0.169557
     4  C    0.156991
     5  C   -0.171023
     6  C   -0.218802
     7  H    0.226262
     8  H    0.226259
     9  H    0.280797
    10  H    0.275848
    11  H    0.223777
    12  N    0.487807
    13  O   -0.460160
    14  O   -0.459796
    15  C   -0.296840
    16  C   -0.310789
    17  C   -0.478292
    18  H    0.152274
    19  H    0.151038
    20  H    0.153519
    21  H    0.148387
    22  H    0.157906
    23  H    0.164861
    24  H    0.155875
    25  C   -0.298119
    26  C   -0.299886
    27  C   -0.475496
    28  H    0.145900
    29  H    0.148371
    30  H    0.153233
    31  H    0.153449
    32  H    0.154953
    33  H    0.152674
    34  H    0.161492
 Sum of Mulliken charges =  -0.00000

 Dipole moment (field-independent basis, Debye):
    X=             -2.6300    Y=             -3.7270    Z=              2.3335  Tot=              5.1237
 Quadrupole moment (field-independent basis, Debye-Ang):
   XX=           -108.5818   YY=            -90.6329   ZZ=            -93.1234
   XY=            -11.0138   XZ=              5.0074   YZ=              2.1127

 Normal termination of Gaussian 16 at Wed May  5 23:43:49 2021.
