 Gaussian 16, Revision A.03,
 Gaussian 16:  EM64L-G16RevA.03 25-Dec-2016

 -------------
 #p 6-31g* mp2
 -------------

 ------------------------------------------------------
 Input file generated by CHIRIPA (05-May-2021 14:53:14)
 ------------------------------------------------------
 Symbolic Z-matrix:
 Charge =  0 Multiplicity = 1

                         Standard orientation:
 ---------------------------------------------------------------------
 Center     Atomic      Atomic             Coordinates (Angstroms)
 Number     Number       Type             X           Y           Z
 ---------------------------------------------------------------------
      1          6           0        3.197003    1.058636   -0.210271
      2          6           0        2.983825    2.116504    0.872990
      3          6           0        2.363844    3.403685    0.328398
      4          1           0        3.841731    1.473495   -0.997140
      5          1           0        2.232558    0.830061   -0.684607
      6          1           0        3.948163    2.342006    1.346082
      7          1           0        2.339686    1.699013    1.657466
      8          1           0        1.389105    3.199417   -0.126310
      9          1           0        3.006721    3.846064   -0.439463
     10          1           0        2.220215    4.146136    1.119598
     11          6           0        3.816099   -0.233902    0.318684
     12          6           0        4.029278   -1.291770   -0.764577
     13          6           0        4.649259   -2.578952   -0.219985
     14          1           0        4.780544   -0.005327    0.793020
     15          1           0        3.171371   -0.648762    1.105553
     16          1           0        4.673417   -0.874279   -1.549053
     17          1           0        3.064939   -1.517273   -1.237669
     18          1           0        4.006381   -3.021330    0.547876
     19          1           0        5.623998   -2.374683    0.234724
     20          1           0        4.792888   -3.321402   -1.011185
     21          6           0       -0.331463   -1.071866    0.030153
     22          6           0       -1.277795   -1.674899    0.865214
     23          6           0       -2.614805   -1.267536    0.833517
     24          6           0       -2.972293   -0.249683   -0.049358
     25          6           0       -2.052790    0.370599   -0.893785
     26          6           0       -0.721294   -0.052839   -0.845139
     27          1           0        0.705017   -1.394559    0.061359
     28          1           0       -0.977906   -2.466528    1.545977
     29          1           0       -3.368028   -1.717210    1.469021
     30          1           0       -2.381860    1.157228   -1.561876
     31          1           0        0.011480    0.417285   -1.494809
     32          7           0       -4.384807    0.190083   -0.091887
     33          8           0       -4.674320    1.088928   -0.878586
     34          8           0       -5.175677   -0.372401    0.662285
 ---------------------------------------------------------------------

 SCF Done:  E(RHF) =  -669.535053937     A.U. after   15 cycles
 E2 =    -0.2092961054D+01 EUMP2 =    -0.67162801499064D+03

 The electronic state is 1-A.
 Alpha  occ. eigenvalues --  -20.60772 -20.60767 -15.85826 -11.31203 -11.27776
 Alpha  occ. eigenvalues --  -11.27772 -11.27501 -11.26788 -11.26773 -11.22777
 Alpha  occ. eigenvalues --  -11.22540 -11.22481 -11.22397 -11.22070 -11.21751
 Alpha  occ. eigenvalues --   -1.59847  -1.39400  -1.19378  -1.09510  -1.08766
 Alpha  occ. eigenvalues --   -1.04785  -1.04486  -0.96931  -0.95603  -0.87942
 Alpha  occ. eigenvalues --   -0.86187  -0.82436  -0.80556  -0.79326  -0.77480
 Alpha  occ. eigenvalues --   -0.72044  -0.71170  -0.70531  -0.66221  -0.65023
 Alpha  occ. eigenvalues --   -0.64733  -0.62170  -0.61864  -0.60294  -0.58534
 Alpha  occ. eigenvalues --   -0.56241  -0.55257  -0.53577  -0.53357  -0.53104
 Alpha  occ. eigenvalues --   -0.52878  -0.50877  -0.48875  -0.48798  -0.48789
 Alpha  occ. eigenvalues --   -0.47615  -0.46822  -0.46777  -0.44803  -0.44767
 Alpha  occ. eigenvalues --   -0.37348  -0.36382
 Alpha virt. eigenvalues --    0.05039   0.11163   0.16468   0.18131   0.22397
 Alpha virt. eigenvalues --    0.23352   0.24902   0.25809   0.26837   0.28045
 Alpha virt. eigenvalues --    0.29617   0.30496   0.31024   0.31403   0.31753

 Mulliken charges:
               1
     1  C   -0.302330
     2  C   -0.299998
     3  C   -0.476269
     4  H    0.153940
     5  H    0.141734
     6  H    0.155005
     7  H    0.154064
     8  H    0.153289
     9  H    0.156344
    10  H    0.164781
    11  C   -0.301582
    12  C   -0.302909
    13  C   -0.475546
    14  H    0.156269
    15  H    0.145233
    16  H    0.157654
    17  H    0.143900
    18  H    0.152155
    19  H    0.159565
    20  H    0.163943
    21  C   -0.176600
    22  C   -0.219967
    23  C   -0.170490
    24  C    0.158448
    25  C   -0.171060
    26  C   -0.223492
    27  H    0.234439
    28  H    0.223715
    29  H    0.275689
    30  H    0.275912
    31  H    0.226789
    32  N    0.487987
    33  O   -0.460269
    34  O   -0.460342
 Sum of Mulliken charges =  -0.00000

 Dipole moment (field-independent basis, Debye):
    X=              5.1878    Y=             -1.4750    Z=              0.2005  Tot=              5.3971
 Quadrupole moment (field-independent basis, Debye-Ang):
   XX=           -122.8811   YY=            -92.6308   ZZ=            -92.7048
   XY=              5.1468   XZ=             -1.8550   YZ=             -2.4495

 Normal termination of Gaussian 16 at Thu May  6 12:07:11 2021.
