 Gaussian 16, Revision A.03,
 Gaussian 16:  EM64L-G16RevA.03 25-Dec-2016

 -------------
 #p 6-31g* mp2
 -------------

 ------------------------------------------------------
 Input file generated by CHIRIPA (05-May-2021 14:55:20)
 ------------------------------------------------------
 Symbolic Z-matrix:
 Charge =  0 Multiplicity = 1

                         Standard orientation:
 ---------------------------------------------------------------------
 Center     Atomic      Atomic             Coordinates (Angstroms)
 Number     Number       Type             X           Y           Z
 ---------------------------------------------------------------------
      1          6           0       -4.399093   -1.711187   -0.565481
      2          6           0       -5.037010   -0.555234   -0.103578
      3          6           0       -4.302533    0.605881    0.155077
      4          6           0       -2.925551    0.575632   -0.060086
      5          6           0       -2.261109   -0.560423   -0.519637
      6          6           0       -3.015617   -1.710094   -0.771672
      7          1           0       -4.977433   -2.608724   -0.763839
      8          1           0       -6.111306   -0.553184    0.057453
      9          1           0       -4.770915    1.514591    0.513244
     10          1           0       -1.188825   -0.531926   -0.670678
     11          1           0       -2.517532   -2.606376   -1.130331
     12          7           0       -2.137390    1.798795    0.210237
     13          8           0       -0.925426    1.746360    0.012671
     14          8           0       -2.746516    2.786784    0.614562
     15          6           0        4.669862   -0.415336    0.074780
     16          6           0        5.123195    0.927473   -0.499100
     17          6           0        6.643954    1.039246   -0.611315
     18          1           0        5.123339   -0.555287    1.065598
     19          1           0        5.052079   -1.225788   -0.561201
     20          1           0        4.739073    1.735211    0.137001
     21          1           0        4.668433    1.064328   -1.488584
     22          1           0        7.040939    0.253876   -1.262619
     23          1           0        7.111980    0.928571    0.372201
     24          1           0        6.946028    2.006952   -1.023816
     25          6           0        3.152089   -0.542205    0.193095
     26          6           0        2.698756   -1.885014    0.766976
     27          6           0        1.177996   -1.996787    0.879189
     28          1           0        2.769871    0.268247    0.829076
     29          1           0        2.698612   -0.402255   -0.797722
     30          1           0        3.153517   -2.021870    1.756459
     31          1           0        3.082877   -2.692753    0.130874
     32          1           0        0.709970   -1.886113   -0.104327
     33          1           0        0.781012   -1.211418    1.530495
     34          1           0        0.875922   -2.964493    1.291691
 ---------------------------------------------------------------------

 SCF Done:  E(RHF) =  -669.535499997     A.U. after   15 cycles
 E2 =    -0.2091351630D+01 EUMP2 =    -0.67162685162728D+03

 The electronic state is 1-A.
 Alpha  occ. eigenvalues --  -20.60740 -20.60735 -15.85788 -11.31118 -11.27705
 Alpha  occ. eigenvalues --  -11.27648 -11.27448 -11.26716 -11.26694 -11.21578
 Alpha  occ. eigenvalues --  -11.21322 -11.21222 -11.21104 -11.21035 -11.20761
 Alpha  occ. eigenvalues --   -1.59813  -1.39367  -1.19299  -1.08703  -1.08195
 Alpha  occ. eigenvalues --   -1.04699  -1.03379  -0.95850  -0.95537  -0.86881
 Alpha  occ. eigenvalues --   -0.86095  -0.82372  -0.79448  -0.77967  -0.77411
 Alpha  occ. eigenvalues --   -0.72008  -0.71135  -0.70419  -0.64957  -0.64833
 Alpha  occ. eigenvalues --   -0.64703  -0.62082  -0.60772  -0.59211  -0.57435
 Alpha  occ. eigenvalues --   -0.55259  -0.55095  -0.53045  -0.52860  -0.52559
 Alpha  occ. eigenvalues --   -0.52186  -0.49800  -0.48766  -0.48760  -0.47744
 Alpha  occ. eigenvalues --   -0.46454  -0.45522  -0.45414  -0.44773  -0.43601
 Alpha  occ. eigenvalues --   -0.37288  -0.36291
 Alpha virt. eigenvalues --    0.05096   0.11337   0.16587   0.20606   0.23120
 Alpha virt. eigenvalues --    0.24151   0.25870   0.27135   0.27752   0.28123
 Alpha virt. eigenvalues --    0.29343   0.31035   0.31614   0.31871   0.32015

 Mulliken charges:
               1
     1  C   -0.170724
     2  C   -0.218969
     3  C   -0.170621
     4  C    0.157800
     5  C   -0.174250
     6  C   -0.220427
     7  H    0.225312
     8  H    0.223137
     9  H    0.275270
    10  H    0.282945
    11  H    0.223328
    12  N    0.487671
    13  O   -0.460674
    14  O   -0.460678
    15  C   -0.298589
    16  C   -0.299860
    17  C   -0.475727
    18  H    0.148942
    19  H    0.146988
    20  H    0.156060
    21  H    0.152735
    22  H    0.153497
    23  H    0.154534
    24  H    0.160626
    25  C   -0.299289
    26  C   -0.299513
    27  C   -0.477531
    28  H    0.159637
    29  H    0.149371
    30  H    0.153299
    31  H    0.149753
    32  H    0.142575
    33  H    0.165295
    34  H    0.158075
 Sum of Mulliken charges =  -0.00000

 Dipole moment (field-independent basis, Debye):
    X=             -2.7269    Y=             -4.2109    Z=             -0.8788  Tot=              5.0931
 Quadrupole moment (field-independent basis, Debye-Ang):
   XX=            -76.5490   YY=            -99.2833   ZZ=            -94.1558
   XY=              8.9651   XZ=              2.0129   YZ=              0.8963

 Normal termination of Gaussian 16 at Thu May  6 07:43:02 2021.
