 Gaussian 16, Revision A.03,
 Gaussian 16:  EM64L-G16RevA.03 25-Dec-2016

 -------------
 #p 6-31g* mp2
 -------------

 ------------------------------------------------------
 Input file generated by CHIRIPA (05-May-2021 14:55:22)
 ------------------------------------------------------
 Symbolic Z-matrix:
 Charge =  0 Multiplicity = 1

                         Standard orientation:
 ---------------------------------------------------------------------
 Center     Atomic      Atomic             Coordinates (Angstroms)
 Number     Number       Type             X           Y           Z
 ---------------------------------------------------------------------
      1          6           0       -5.189304    0.179305   -0.792888
      2          6           0       -4.095904    0.176121   -1.665234
      3          6           0       -2.807926   -0.085182   -1.188388
      4          6           0       -2.648906   -0.340397    0.172813
      5          6           0       -3.718311   -0.344306    1.067044
      6          6           0       -4.997356   -0.080460    0.568067
      7          1           0       -6.186366    0.383279   -1.171909
      8          1           0       -4.241993    0.377526   -2.722655
      9          1           0       -1.943826   -0.093897   -1.841590
     10          1           0       -3.541280   -0.548581    2.116019
     11          1           0       -5.844657   -0.078642    1.247863
     12          7           0       -1.290110   -0.618373    0.689343
     13          8           0       -1.176525   -0.840258    1.892880
     14          8           0       -0.364399   -0.609101   -0.119119
     15          6           0        3.667436    1.066620    0.216174
     16          6           0        2.555233    1.973683   -0.311300
     17          6           0        2.548575    3.349680    0.355317
     18          1           0        3.551684    0.948885    1.302306
     19          1           0        4.637674    1.557091    0.056581
     20          1           0        1.587480    1.481038   -0.152014
     21          1           0        2.673534    2.089117   -1.396333
     22          1           0        3.499589    3.864720    0.185293
     23          1           0        2.407366    3.253185    1.436682
     24          1           0        1.745632    3.981769   -0.036608
     25          6           0        3.687065   -0.312487   -0.440641
     26          6           0        4.799268   -1.219550    0.086831
     27          6           0        4.805926   -2.595548   -0.579786
     28          1           0        2.716826   -0.802959   -0.281049
     29          1           0        3.802817   -0.194753   -1.526775
     30          1           0        4.680968   -1.334984    1.171864
     31          1           0        5.767020   -0.726906   -0.072454
     32          1           0        4.947136   -2.499054   -1.661151
     33          1           0        3.854912   -3.110587   -0.409762
     34          1           0        5.608870   -3.227637   -0.187861
 ---------------------------------------------------------------------

 SCF Done:  E(RHF) =  -669.536692244     A.U. after   15 cycles
 E2 =    -0.2091510648D+01 EUMP2 =    -0.67162820289158D+03

 The electronic state is 1-A.
 Alpha  occ. eigenvalues --  -20.61125 -20.61108 -15.86125 -11.31378 -11.27932
 Alpha  occ. eigenvalues --  -11.27926 -11.27660 -11.26924 -11.26914 -11.20456
 Alpha  occ. eigenvalues --  -11.20262 -11.20121 -11.20101 -11.20079 -11.19898
 Alpha  occ. eigenvalues --   -1.60165  -1.39723  -1.19539  -1.08958  -1.07145
 Alpha  occ. eigenvalues --   -1.04924  -1.02382  -0.95810  -0.94852  -0.86328
 Alpha  occ. eigenvalues --   -0.85876  -0.82647  -0.78432  -0.77711  -0.76936
 Alpha  occ. eigenvalues --   -0.72348  -0.71467  -0.70648  -0.65198  -0.64928
 Alpha  occ. eigenvalues --   -0.63751  -0.62271  -0.59776  -0.58232  -0.56467
 Alpha  occ. eigenvalues --   -0.55434  -0.54136  -0.53260  -0.53015  -0.51601
 Alpha  occ. eigenvalues --   -0.51288  -0.49135  -0.49108  -0.48791  -0.46782
 Alpha  occ. eigenvalues --   -0.45573  -0.45047  -0.44523  -0.44203  -0.42596
 Alpha  occ. eigenvalues --   -0.37514  -0.36522
 Alpha virt. eigenvalues --    0.04780   0.11135   0.16267   0.21256   0.24177
 Alpha virt. eigenvalues --    0.25371   0.27198   0.27776   0.28142   0.28882
 Alpha virt. eigenvalues --    0.29173   0.30871   0.32305   0.32514   0.32809

 Mulliken charges:
               1
     1  C   -0.170328
     2  C   -0.218583
     3  C   -0.170612
     4  C    0.157586
     5  C   -0.170391
     6  C   -0.218630
     7  H    0.226349
     8  H    0.224244
     9  H    0.276421
    10  H    0.275966
    11  H    0.224110
    12  N    0.490268
    13  O   -0.458032
    14  O   -0.461336
    15  C   -0.295585
    16  C   -0.308480
    17  C   -0.474983
    18  H    0.150740
    19  H    0.142501
    20  H    0.172906
    21  H    0.144515
    22  H    0.151063
    23  H    0.155097
    24  H    0.153976
    25  C   -0.307106
    26  C   -0.298584
    27  C   -0.475364
    28  H    0.174857
    29  H    0.142431
    30  H    0.152299
    31  H    0.146688
    32  H    0.151660
    33  H    0.158375
    34  H    0.155959
 Sum of Mulliken charges =  -0.00000

 Dipole moment (field-independent basis, Debye):
    X=             -5.2330    Y=              0.8104    Z=             -1.7440  Tot=              5.5752
 Quadrupole moment (field-independent basis, Debye-Ang):
   XX=            -70.2474   YY=            -98.0799   ZZ=            -90.8872
   XY=             -0.7603   XZ=              2.0204   YZ=             -0.4882

 Normal termination of Gaussian 16 at Wed May  5 22:17:01 2021.
