 Gaussian 16, Revision A.03,
 Gaussian 16:  EM64L-G16RevA.03 25-Dec-2016

 -------------
 #p 6-31g* mp2
 -------------

 ------------------------------------------------------
 Input file generated by CHIRIPA (05-May-2021 14:55:21)
 ------------------------------------------------------
 Symbolic Z-matrix:
 Charge =  0 Multiplicity = 1

                         Standard orientation:
 ---------------------------------------------------------------------
 Center     Atomic      Atomic             Coordinates (Angstroms)
 Number     Number       Type             X           Y           Z
 ---------------------------------------------------------------------
      1          6           0       -5.505819   -0.293988   -0.020727
      2          6           0       -4.892776    0.848448   -0.545645
      3          6           0       -3.499840    0.967819   -0.551035
      4          6           0       -2.747179   -0.079063   -0.021102
      5          6           0       -3.328474   -1.229873    0.509012
      6          6           0       -4.723091   -1.327680    0.504001
      7          1           0       -6.588538   -0.378343   -0.020580
      8          1           0       -5.498138    1.652798   -0.953816
      9          1           0       -2.999219    1.841161   -0.951122
     10          1           0       -2.698522   -2.015132    0.908945
     11          1           0       -5.196461   -2.216074    0.912318
     12          7           0       -1.271650    0.035896   -0.021302
     13          8           0       -0.630925   -0.900387    0.451438
     14          8           0       -0.783795    1.060105   -0.494197
     15          6           0        3.972364    0.865229   -0.096419
     16          6           0        2.952587    1.799522    0.555606
     17          6           0        3.255561    3.276198    0.299813
     18          1           0        4.975247    1.106129    0.281918
     19          1           0        3.992856    1.054165   -1.178675
     20          1           0        2.933027    1.607919    1.636125
     21          1           0        1.951992    1.556243    0.175818
     22          1           0        3.255173    3.489138   -0.774085
     23          1           0        4.241782    3.541107    0.694520
     24          1           0        2.514211    3.926276    0.774848
     25          6           0        3.682967   -0.614325    0.150355
     26          6           0        4.702743   -1.548619   -0.501670
     27          6           0        4.399770   -3.025294   -0.245876
     28          1           0        3.662475   -0.803261    1.232611
     29          1           0        2.680084   -0.855225   -0.227981
     30          1           0        5.703339   -1.305340   -0.121881
     31          1           0        4.722303   -1.357016   -1.582189
     32          1           0        3.413548   -3.290203   -0.640583
     33          1           0        4.400158   -3.238233    0.828023
     34          1           0        5.141120   -3.675372   -0.720911
 ---------------------------------------------------------------------

 SCF Done:  E(RHF) =  -669.537021588     A.U. after   15 cycles
 E2 =    -0.2091688491D+01 EUMP2 =    -0.67162871007836D+03

 The electronic state is 1-A.
 Alpha  occ. eigenvalues --  -20.61161 -20.61151 -15.86147 -11.31407 -11.27956
 Alpha  occ. eigenvalues --  -11.27952 -11.27682 -11.26947 -11.26937 -11.20398
 Alpha  occ. eigenvalues --  -11.20033 -11.19875 -11.19753 -11.19724 -11.19666
 Alpha  occ. eigenvalues --   -1.60188  -1.39746  -1.19564  -1.08981  -1.06923
 Alpha  occ. eigenvalues --   -1.04948  -1.02120  -0.95832  -0.94617  -0.86352
 Alpha  occ. eigenvalues --   -0.85643  -0.82669  -0.78174  -0.77731  -0.76680
 Alpha  occ. eigenvalues --   -0.72357  -0.71489  -0.70671  -0.65219  -0.64951
 Alpha  occ. eigenvalues --   -0.63555  -0.62295  -0.59520  -0.57994  -0.56208
 Alpha  occ. eigenvalues --   -0.55456  -0.53917  -0.53284  -0.53038  -0.51363
 Alpha  occ. eigenvalues --   -0.51040  -0.49217  -0.49124  -0.48549  -0.46486
 Alpha  occ. eigenvalues --   -0.45205  -0.45125  -0.44270  -0.44001  -0.42353
 Alpha  occ. eigenvalues --   -0.37539  -0.36545
 Alpha virt. eigenvalues --    0.04793   0.11111   0.16307   0.21250   0.24320
 Alpha virt. eigenvalues --    0.25633   0.27179   0.28019   0.28239   0.29060
 Alpha virt. eigenvalues --    0.29389   0.30852   0.32338   0.32709   0.33163

 Mulliken charges:
               1
     1  C   -0.170318
     2  C   -0.218585
     3  C   -0.170585
     4  C    0.157902
     5  C   -0.170555
     6  C   -0.218623
     7  H    0.226421
     8  H    0.224237
     9  H    0.276085
    10  H    0.276200
    11  H    0.224253
    12  N    0.489294
    13  O   -0.458329
    14  O   -0.458964
    15  C   -0.296497
    16  C   -0.313017
    17  C   -0.473585
    18  H    0.141891
    19  H    0.145846
    20  H    0.145264
    21  H    0.184799
    22  H    0.152126
    23  H    0.148198
    24  H    0.156365
    25  C   -0.302161
    26  C   -0.298570
    27  C   -0.474598
    28  H    0.146247
    29  H    0.167971
    30  H    0.147288
    31  H    0.148920
    32  H    0.156906
    33  H    0.153343
    34  H    0.154834
 Sum of Mulliken charges =  -0.00000

 Dipole moment (field-independent basis, Debye):
    X=             -5.7694    Y=             -0.4896    Z=             -0.0319  Tot=              5.7902
 Quadrupole moment (field-independent basis, Debye-Ang):
   XX=            -68.3668   YY=            -92.8925   ZZ=            -94.0189
   XY=              0.8837   XZ=              0.6909   YZ=             -2.3767

 Normal termination of Gaussian 16 at Thu May  6 20:42:30 2021.
