 Gaussian 16, Revision A.03,
 Gaussian 16:  EM64L-G16RevA.03 25-Dec-2016

 -------------
 #p 6-31g* mp2
 -------------

 ------------------------------------------------------
 Input file generated by CHIRIPA (05-May-2021 14:57:26)
 ------------------------------------------------------
 Symbolic Z-matrix:
 Charge =  0 Multiplicity = 1

                         Standard orientation:
 ---------------------------------------------------------------------
 Center     Atomic      Atomic             Coordinates (Angstroms)
 Number     Number       Type             X           Y           Z
 ---------------------------------------------------------------------
      1          6           0       -2.324019   -0.726786    2.537969
      2          6           0       -1.934368   -1.659419    1.571073
      3          6           0       -2.048006   -1.360729    0.210037
      4          6           0       -2.557739   -0.114271   -0.150244
      5          6           0       -2.954456    0.836003    0.789377
      6          6           0       -2.831924    0.515758    2.144728
      7          1           0       -2.232287   -0.967187    3.593046
      8          1           0       -1.539581   -2.625180    1.873555
      9          1           0       -1.753850   -2.064154   -0.559432
     10          1           0       -3.344398    1.790455    0.457135
     11          1           0       -3.135317    1.242003    2.893438
     12          7           0       -2.682751    0.213349   -1.588103
     13          8           0       -3.134867    1.318459   -1.879582
     14          8           0       -2.326251   -0.641177   -2.396392
     15          6           0        2.959784   -2.293875   -0.440498
     16          6           0        1.705759   -1.749335   -0.736158
     17          6           0        1.460311   -0.386471   -0.544044
     18          6           0        2.496276    0.406297   -0.052532
     19          6           0        3.756373   -0.106620    0.251377
     20          6           0        3.979292   -1.472229    0.051459
     21          1           0        3.141704   -3.353647   -0.592767
     22          1           0        0.912126   -2.385046   -1.118344
     23          1           0        0.498910    0.061232   -0.764696
     24          1           0        4.527815    0.552289    0.631030
     25          1           0        4.954173   -1.892386    0.281936
     26          7           0        2.248357    1.850553    0.154981
     27          8           0        3.177667    2.527706    0.589127
     28          8           0        1.129421    2.278059   -0.120443
 ---------------------------------------------------------------------

 SCF Done:  E(RHF) =  -868.337142988     A.U. after   16 cycles
 E2 =    -0.2602390006D+01 EUMP2 =    -0.87093953299404D+03

 The electronic state is 1-A.
 Alpha  occ. eigenvalues --  -20.61085 -20.61021 -20.60732 -20.60718 -15.86094
 Alpha  occ. eigenvalues --  -15.85779 -11.31450 -11.31140 -11.28132 -11.27905
 Alpha  occ. eigenvalues --  -11.27754 -11.27702 -11.27687 -11.27522 -11.27074
 Alpha  occ. eigenvalues --  -11.26912 -11.26768 -11.26756  -1.60124  -1.59802
 Alpha  occ. eigenvalues --   -1.39678  -1.39355  -1.19622  -1.19337  -1.09004
 Alpha  occ. eigenvalues --   -1.08742  -1.05030  -1.04726  -0.95845  -0.95567
 Alpha  occ. eigenvalues --   -0.86416  -0.86151  -0.82672  -0.82400  -0.77757
 Alpha  occ. eigenvalues --   -0.77426  -0.72305  -0.72009  -0.71477  -0.71124
 Alpha  occ. eigenvalues --   -0.70726  -0.70434  -0.65266  -0.65056  -0.64967
 Alpha  occ. eigenvalues --   -0.64749  -0.62448  -0.62017  -0.55494  -0.55277
 Alpha  occ. eigenvalues --   -0.53443  -0.53131  -0.52999  -0.52750  -0.49093
 Alpha  occ. eigenvalues --   -0.49043  -0.48762  -0.48753  -0.45066  -0.44758
 Alpha  occ. eigenvalues --   -0.37575  -0.37345  -0.36852  -0.36050
 Alpha virt. eigenvalues --    0.04679   0.05192   0.10947   0.11309   0.16194
 Alpha virt. eigenvalues --    0.16666   0.19984   0.21897   0.25246   0.27545
 Alpha virt. eigenvalues --    0.28021   0.28597   0.30336   0.31461   0.32036

 Mulliken charges:
               1
     1  C   -0.170322
     2  C   -0.214611
     3  C   -0.182056
     4  C    0.154900
     5  C   -0.163164
     6  C   -0.216116
     7  H    0.227103
     8  H    0.221588
     9  H    0.268158
    10  H    0.280765
    11  H    0.227345
    12  N    0.489416
    13  O   -0.450936
    14  O   -0.467916
    15  C   -0.171385
    16  C   -0.223476
    17  C   -0.165347
    18  C    0.155847
    19  C   -0.170588
    20  C   -0.219505
    21  H    0.224680
    22  H    0.221942
    23  H    0.278820
    24  H    0.275230
    25  H    0.222795
    26  N    0.487765
    27  O   -0.461571
    28  O   -0.459361
 Sum of Mulliken charges =  -0.00000

 Dipole moment (field-independent basis, Debye):
    X=              1.0900    Y=             -5.9349    Z=              4.4748  Tot=              7.5123
 Quadrupole moment (field-independent basis, Debye-Ang):
   XX=            -97.8929   YY=           -105.4964   ZZ=           -106.5231
   XY=            -11.5049   XZ=            -14.1664   YZ=              0.9060

 Normal termination of Gaussian 16 at Fri May  7 00:27:25 2021.
