 Gaussian 16, Revision A.03,
 Gaussian 16:  EM64L-G16RevA.03 25-Dec-2016

 -------------
 #p 6-31g* mp2
 -------------

 ------------------------------------------------------
 Input file generated by CHIRIPA (05-May-2021 14:57:21)
 ------------------------------------------------------
 Symbolic Z-matrix:
 Charge =  0 Multiplicity = 1

                         Standard orientation:
 ---------------------------------------------------------------------
 Center     Atomic      Atomic             Coordinates (Angstroms)
 Number     Number       Type             X           Y           Z
 ---------------------------------------------------------------------
      1          6           0        1.387937   -2.164963    1.160596
      2          6           0        2.372330   -2.153903    0.166932
      3          6           0        2.946308   -0.949392   -0.250503
      4          6           0        2.510248    0.230742    0.349852
      5          6           0        1.531488    0.252418    1.342247
      6          6           0        0.971392   -0.963885    1.744053
      7          1           0        0.947449   -3.105236    1.478799
      8          1           0        2.697771   -3.085147   -0.287950
      9          1           0        3.710170   -0.911980   -1.017662
     10          1           0        1.227583    1.196838    1.777138
     11          1           0        0.207085   -0.969450    2.515966
     12          7           0        3.110545    1.512145   -0.083796
     13          8           0        2.709059    2.538243    0.460785
     14          8           0        3.971176    1.466146   -0.960057
     15          6           0       -4.127760    1.425850    0.732170
     16          6           0       -3.184941    2.005929   -0.122887
     17          6           0       -2.229259    1.214775   -0.767321
     18          6           0       -2.245372   -0.159287   -0.532838
     19          6           0       -3.171725   -0.766846    0.313349
     20          6           0       -4.118161    0.043750    0.947180
     21          1           0       -4.866565    2.047990    1.228664
     22          1           0       -3.190021    3.079012   -0.291740
     23          1           0       -1.487889    1.637724   -1.434332
     24          1           0       -3.141636   -1.839431    0.461921
     25          1           0       -4.849164   -0.409485    1.610699
     26          7           0       -1.238529   -1.007138   -1.209458
     27          8           0       -1.273852   -2.215255   -0.986205
     28          8           0       -0.433107   -0.447512   -1.950236
 ---------------------------------------------------------------------

 SCF Done:  E(RHF) =  -868.338983639     A.U. after   16 cycles
 E2 =    -0.2602689208D+01 EUMP2 =    -0.87094167284751D+03

 The electronic state is 1-A.
 Alpha  occ. eigenvalues --  -20.61184 -20.61117 -20.60142 -20.60104 -15.86175
 Alpha  occ. eigenvalues --  -15.85176 -11.31519 -11.30304 -11.28123 -11.28004
 Alpha  occ. eigenvalues --  -11.27794 -11.27121 -11.27026 -11.27019 -11.26856
 Alpha  occ. eigenvalues --  -11.26610 -11.25955 -11.25758  -1.60198  -1.59203
 Alpha  occ. eigenvalues --   -1.39764  -1.38766  -1.19682  -1.18499  -1.09077
 Alpha  occ. eigenvalues --   -1.07921  -1.05075  -1.03901  -0.95922  -0.94793
 Alpha  occ. eigenvalues --   -0.86470  -0.85305  -0.82759  -0.81652  -0.77810
 Alpha  occ. eigenvalues --   -0.76732  -0.72428  -0.71540  -0.71411  -0.70776
 Alpha  occ. eigenvalues --   -0.70502  -0.69614  -0.65331  -0.65065  -0.64170
 Alpha  occ. eigenvalues --   -0.63925  -0.62414  -0.61279  -0.55568  -0.54386
 Alpha  occ. eigenvalues --   -0.53419  -0.53153  -0.52176  -0.52011  -0.49178
 Alpha  occ. eigenvalues --   -0.49147  -0.48172  -0.48142  -0.45245  -0.44229
 Alpha  occ. eigenvalues --   -0.37708  -0.36692  -0.36315  -0.35437
 Alpha virt. eigenvalues --    0.04645   0.05896   0.10857   0.12258   0.16188
 Alpha virt. eigenvalues --    0.17431   0.21146   0.22211   0.27067   0.27955
 Alpha virt. eigenvalues --    0.28119   0.29129   0.30728   0.31720   0.32269

 Mulliken charges:
               1
     1  C   -0.156592
     2  C   -0.210873
     3  C   -0.161651
     4  C    0.162707
     5  C   -0.175393
     6  C   -0.231086
     7  H    0.225767
     8  H    0.224199
     9  H    0.274715
    10  H    0.269559
    11  H    0.217024
    12  N    0.488402
    13  O   -0.467979
    14  O   -0.460172
    15  C   -0.171442
    16  C   -0.218888
    17  C   -0.171664
    18  C    0.159650
    19  C   -0.175321
    20  C   -0.219415
    21  H    0.226967
    22  H    0.227589
    23  H    0.280478
    24  H    0.271913
    25  H    0.223030
    26  N    0.491886
    27  O   -0.467082
    28  O   -0.456328
 Sum of Mulliken charges =  -0.00000

 Dipole moment (field-independent basis, Debye):
    X=             -5.6449    Y=             -1.6483    Z=              3.6320  Tot=              6.9118
 Quadrupole moment (field-independent basis, Debye-Ang):
   XX=            -98.1862   YY=           -103.8001   ZZ=           -104.5520
   XY=            -18.9685   XZ=             -3.9345   YZ=             -3.5295

 Normal termination of Gaussian 16 at Thu May  6 01:41:58 2021.
