 Gaussian 16, Revision A.03,
 Gaussian 16:  EM64L-G16RevA.03 25-Dec-2016

 -------------
 #p 6-31g* mp2
 -------------

 ------------------------------------------------------
 Input file generated by CHIRIPA (05-May-2021 14:57:24)
 ------------------------------------------------------
 Symbolic Z-matrix:
 Charge =  0 Multiplicity = 1

                         Standard orientation:
 ---------------------------------------------------------------------
 Center     Atomic      Atomic             Coordinates (Angstroms)
 Number     Number       Type             X           Y           Z
 ---------------------------------------------------------------------
      1          6           0        1.336075   -1.665028   -0.170650
      2          6           0        1.292657   -0.267961   -0.117351
      3          6           0        2.472012    0.475598   -0.013482
      4          6           0        3.682817   -0.213532    0.034909
      5          6           0        3.758840   -1.604542   -0.016100
      6          6           0        2.566858   -2.327691   -0.119944
      7          1           0        0.415019   -2.234715   -0.251328
      8          1           0        0.338244    0.249345   -0.156533
      9          1           0        2.467309    1.557974    0.029628
     10          1           0        4.725308   -2.092051    0.025034
     11          1           0        2.603608   -3.412586   -0.161143
     12          7           0        4.938031    0.562837    0.144857
     13          8           0        5.992035   -0.068068    0.185737
     14          8           0        4.844096    1.787560    0.188073
     15          6           0       -4.805605   -1.779300    0.299729
     16          6           0       -4.321401   -1.439258   -0.967725
     17          6           0       -3.583512   -0.266622   -1.154791
     18          6           0       -3.347395    0.546517   -0.047387
     19          6           0       -3.816405    0.234993    1.227866
     20          6           0       -4.552009   -0.942564    1.391554
     21          1           0       -5.377927   -2.692142    0.435966
     22          1           0       -4.516816   -2.087180   -1.817463
     23          1           0       -3.196820    0.020687   -2.125019
     24          1           0       -3.605478    0.900873    2.055835
     25          1           0       -4.926807   -1.204123    2.377028
     26          7           0       -2.567435    1.790538   -0.233052
     27          8           0       -2.373031    2.490031    0.758692
     28          8           0       -2.165274    2.042555   -1.366802
 ---------------------------------------------------------------------

 SCF Done:  E(RHF) =  -868.338164067     A.U. after   16 cycles
 E2 =    -0.2599330531D+01 EUMP2 =    -0.87093749459797D+03

 The electronic state is 1-A.
 Alpha  occ. eigenvalues --  -20.61775 -20.61769 -20.60379 -20.60362 -15.86814
 Alpha  occ. eigenvalues --  -15.85425 -11.32121 -11.30783 -11.28675 -11.28643
 Alpha  occ. eigenvalues --  -11.28366 -11.27649 -11.27618 -11.27394 -11.27274
 Alpha  occ. eigenvalues --  -11.27151 -11.26444 -11.26317  -1.60869  -1.59449
 Alpha  occ. eigenvalues --   -1.40411  -1.39001  -1.20281  -1.18963  -1.09685
 Alpha  occ. eigenvalues --   -1.08377  -1.05653  -1.04350  -0.96523  -0.95206
 Alpha  occ. eigenvalues --   -0.87050  -0.85765  -0.83338  -0.82024  -0.78406
 Alpha  occ. eigenvalues --   -0.77061  -0.73006  -0.72229  -0.71644  -0.71350
 Alpha  occ. eigenvalues --   -0.70772  -0.70098  -0.65912  -0.65629  -0.64617
 Alpha  occ. eigenvalues --   -0.64356  -0.62984  -0.61684  -0.56133  -0.54910
 Alpha  occ. eigenvalues --   -0.54013  -0.53721  -0.52702  -0.52442  -0.49785
 Alpha  occ. eigenvalues --   -0.49770  -0.48408  -0.48394  -0.45810  -0.44407
 Alpha  occ. eigenvalues --   -0.38264  -0.37264  -0.36980  -0.35948
 Alpha virt. eigenvalues --    0.04088   0.05457   0.10383   0.11693   0.15590
 Alpha virt. eigenvalues --    0.16940   0.20624   0.21599   0.26563   0.27011
 Alpha virt. eigenvalues --    0.27647   0.28642   0.30152   0.31073   0.31764

 Mulliken charges:
               1
     1  C   -0.172306
     2  C   -0.218197
     3  C   -0.171033
     4  C    0.158159
     5  C   -0.171793
     6  C   -0.218752
     7  H    0.221285
     8  H    0.227182
     9  H    0.281828
    10  H    0.274086
    11  H    0.220308
    12  N    0.487954
    13  O   -0.462552
    14  O   -0.458341
    15  C   -0.170929
    16  C   -0.219890
    17  C   -0.174992
    18  C    0.152181
    19  C   -0.171214
    20  C   -0.218791
    21  H    0.228452
    22  H    0.225836
    23  H    0.277346
    24  H    0.278319
    25  H    0.226768
    26  N    0.485157
    27  O   -0.456421
    28  O   -0.459651
 Sum of Mulliken charges =  -0.00000

 Dipole moment (field-independent basis, Debye):
    X=             -7.4306    Y=             -6.9989    Z=              0.3162  Tot=             10.2127
 Quadrupole moment (field-independent basis, Debye-Ang):
   XX=           -118.2296   YY=           -105.3898   ZZ=           -100.9095
   XY=              2.0792   XZ=             -4.4367   YZ=              1.7302

 Normal termination of Gaussian 16 at Thu May  6 13:03:07 2021.
