 Gaussian 16, Revision A.03,
 Gaussian 16:  EM64L-G16RevA.03 25-Dec-2016

 -------------
 #p 6-31g* mp2
 -------------

 ------------------------------------------------------
 Input file generated by CHIRIPA (05-May-2021 14:51:14)
 ------------------------------------------------------
 Symbolic Z-matrix:
 Charge =  0 Multiplicity = 1

                         Standard orientation:
 ---------------------------------------------------------------------
 Center     Atomic      Atomic             Coordinates (Angstroms)
 Number     Number       Type             X           Y           Z
 ---------------------------------------------------------------------
      1          6           0       -2.295470    1.305036   -0.383515
      2          6           0       -1.986549    2.285339    0.748544
      3          6           0       -1.133017    3.468092    0.289883
      4          1           0       -1.351835    0.935429   -0.807647
      5          1           0       -2.812960    1.840284   -1.191666
      6          1           0       -1.471026    1.748102    1.554912
      7          1           0       -2.931031    2.652508    1.170157
      8          1           0       -1.644385    4.029234   -0.498928
      9          1           0       -0.176085    3.119689   -0.111986
     10          1           0       -0.924135    4.156271    1.114891
     11          6           0       -3.147964    0.117264    0.059407
     12          6           0       -3.456885   -0.863039   -1.072653
     13          6           0       -4.310418   -2.045793   -0.613992
     14          1           0       -2.630474   -0.417985    0.867558
     15          1           0       -4.091600    0.486870    0.483538
     16          1           0       -2.512404   -1.230209   -1.494266
     17          1           0       -3.972408   -0.325803   -1.879021
     18          1           0       -5.267349   -1.697390   -0.212122
     19          1           0       -3.799049   -2.606935    0.174819
     20          1           0       -4.519299   -2.733972   -1.439000
     21          6           0        3.136541   -0.084311    0.026308
     22          6           0        4.536873   -0.387739   -0.507536
     23          6           0        5.354599    0.876376   -0.774239
     24          1           0        2.605903    0.551940   -0.695186
     25          1           0        3.223580    0.499532    0.953101
     26          1           0        4.447243   -0.972021   -1.432304
     27          1           0        5.064170   -1.023499    0.215225
     28          1           0        5.473597    1.459259    0.144830
     29          1           0        4.853165    1.511030   -1.512060
     30          1           0        6.352116    0.636299   -1.155266
     31          6           0        2.306894   -1.337988    0.297801
     32          6           0        0.906562   -1.034560    0.831644
     33          6           0        0.088835   -2.298676    1.098347
     34          1           0        2.219855   -1.921831   -0.628993
     35          1           0        2.837531   -1.974239    1.019295
     36          1           0        0.379265   -0.398800    0.108884
     37          1           0        0.996191   -0.450279    1.756413
     38          1           0        0.590269   -2.933330    1.836168
     39          1           0       -0.030163   -2.881559    0.179278
     40          1           0       -0.908682   -2.058599    1.479376
 ---------------------------------------------------------------------

 SCF Done:  E(RHF) =  -470.732794827     A.U. after   11 cycles
 E2 =    -0.1584581923D+01 EUMP2 =    -0.47231737675067D+03

 The electronic state is 1-A.
 Alpha  occ. eigenvalues --  -11.21680 -11.21645 -11.21584 -11.21566 -11.21474
 Alpha  occ. eigenvalues --  -11.21414 -11.21376 -11.21316 -11.21165 -11.21099
 Alpha  occ. eigenvalues --  -11.21047 -11.21045  -1.08520  -1.08393  -1.03600
 Alpha  occ. eigenvalues --   -1.03503  -0.96057  -0.95947  -0.87079  -0.86958
 Alpha  occ. eigenvalues --   -0.79670  -0.79568  -0.78331  -0.78217  -0.65333
 Alpha  occ. eigenvalues --   -0.64916  -0.60989  -0.60904  -0.59427  -0.59305
 Alpha  occ. eigenvalues --   -0.57672  -0.57563  -0.55356  -0.55202  -0.52759
 Alpha  occ. eigenvalues --   -0.52646  -0.52494  -0.52367  -0.50048  -0.49859
 Alpha  occ. eigenvalues --   -0.48057  -0.47825  -0.46835  -0.46529  -0.46045
 Alpha  occ. eigenvalues --   -0.45807  -0.45703  -0.45372  -0.43828  -0.43759
 Alpha virt. eigenvalues --    0.19435   0.22665   0.23421   0.24998   0.25212
 Alpha virt. eigenvalues --    0.26100   0.27218   0.27557   0.28384   0.29733
 Alpha virt. eigenvalues --    0.30320   0.31321   0.31708   0.31954   0.32566

 Mulliken charges:
               1
     1  C   -0.301508
     2  C   -0.300735
     3  C   -0.475880
     4  H    0.152107
     5  H    0.149785
     6  H    0.153552
     7  H    0.151801
     8  H    0.154928
     9  H    0.155334
    10  H    0.160157
    11  C   -0.303434
    12  C   -0.299689
    13  C   -0.476497
    14  H    0.154633
    15  H    0.149722
    16  H    0.152065
    17  H    0.151845
    18  H    0.155023
    19  H    0.156025
    20  H    0.160121
    21  C   -0.298440
    22  C   -0.299705
    23  C   -0.475799
    24  H    0.149001
    25  H    0.149884
    26  H    0.152054
    27  H    0.152137
    28  H    0.155333
    29  H    0.155327
    30  H    0.160429
    31  C   -0.297833
    32  C   -0.307786
    33  C   -0.479859
    34  H    0.149599
    35  H    0.150053
    36  H    0.159200
    37  H    0.152197
    38  H    0.155880
    39  H    0.155649
    40  H    0.163325
 Sum of Mulliken charges =  -0.00000

 Dipole moment (field-independent basis, Debye):
    X=              0.0286    Y=             -0.0132    Z=              0.0125  Tot=              0.0339
 Quadrupole moment (field-independent basis, Debye-Ang):
   XX=            -84.8166   YY=            -86.0418   ZZ=            -83.8933
   XY=             -1.5926   XZ=              0.7990   YZ=              0.2145

 Normal termination of Gaussian 16 at Thu May  6 00:51:01 2021.
