 Gaussian 16, Revision A.03,
 Gaussian 16:  EM64L-G16RevA.03 25-Dec-2016

 -------------
 #p 6-31g* mp2
 -------------

 ------------------------------------------------------
 Input file generated by CHIRIPA (05-May-2021 14:55:25)
 ------------------------------------------------------
 Symbolic Z-matrix:
 Charge =  0 Multiplicity = 1

                         Standard orientation:
 ---------------------------------------------------------------------
 Center     Atomic      Atomic             Coordinates (Angstroms)
 Number     Number       Type             X           Y           Z
 ---------------------------------------------------------------------
      1          6           0        0.752106    0.652448    1.213247
      2          6           0        1.303605   -0.583653    1.565985
      3          6           0        2.506796   -1.012458    0.997650
      4          6           0        3.134535   -0.176134    0.075806
      5          6           0        2.610235    1.060856   -0.296022
      6          6           0        1.406028    1.469318    0.285007
      7          1           0       -0.182956    0.977652    1.659674
      8          1           0        0.797960   -1.220122    2.286592
      9          1           0        2.955959   -1.964614    1.252739
     10          1           0        3.137463    1.673434   -1.017268
     11          1           0        0.980055    2.429792    0.009181
     12          7           0        4.408837   -0.619322   -0.532584
     13          8           0        4.942309    0.135958   -1.342274
     14          8           0        4.850035   -1.713581   -0.188230
     15          6           0       -4.150785   -0.427590    0.097670
     16          6           0       -4.333652   -1.645431   -0.808646
     17          6           0       -5.150778   -2.756337   -0.148354
     18          1           0       -3.659794   -0.741890    1.028847
     19          1           0       -5.138565   -0.038520    0.381058
     20          1           0       -3.345811   -2.031255   -1.091362
     21          1           0       -4.824091   -1.328163   -1.737853
     22          1           0       -6.148757   -2.393846    0.118556
     23          1           0       -4.662078   -3.100933    0.768720
     24          1           0       -5.269248   -3.617221   -0.813714
     25          6           0       -3.335972    0.691503   -0.548423
     26          6           0       -3.153105    1.909344    0.357892
     27          6           0       -2.335978    3.020251   -0.302399
     28          1           0       -2.348192    0.302433   -0.831812
     29          1           0       -3.826963    1.005803   -1.479600
     30          1           0       -2.662666    1.592076    1.287100
     31          1           0       -4.140946    2.295168    0.640608
     32          1           0       -2.824679    3.364846   -1.219474
     33          1           0       -1.338000    2.657759   -0.569309
     34          1           0       -2.217509    3.881135    0.362961
 ---------------------------------------------------------------------

 SCF Done:  E(RHF) =  -669.535253212     A.U. after   15 cycles
 E2 =    -0.2092295792D+01 EUMP2 =    -0.67162754900363D+03

 The electronic state is 1-A.
 Alpha  occ. eigenvalues --  -20.60777 -20.60772 -15.85830 -11.31209 -11.27780
 Alpha  occ. eigenvalues --  -11.27770 -11.27507 -11.26794 -11.26763 -11.22735
 Alpha  occ. eigenvalues --  -11.22241 -11.22228 -11.22184 -11.22109 -11.21573
 Alpha  occ. eigenvalues --   -1.59852  -1.39405  -1.19382  -1.09270  -1.08771
 Alpha  occ. eigenvalues --   -1.04787  -1.04375  -0.96817  -0.95605  -0.87841
 Alpha  occ. eigenvalues --   -0.86183  -0.82438  -0.80452  -0.79035  -0.77485
 Alpha  occ. eigenvalues --   -0.72049  -0.71175  -0.70511  -0.65938  -0.65031
 Alpha  occ. eigenvalues --   -0.64801  -0.62207  -0.61705  -0.60196  -0.58405
 Alpha  occ. eigenvalues --   -0.56109  -0.55284  -0.53521  -0.53269  -0.53101
 Alpha  occ. eigenvalues --   -0.52846  -0.50749  -0.48814  -0.48803  -0.48740
 Alpha  occ. eigenvalues --   -0.47484  -0.46585  -0.46483  -0.44808  -0.44606
 Alpha  occ. eigenvalues --   -0.37351  -0.36384
 Alpha virt. eigenvalues --    0.05033   0.11145   0.16452   0.18970   0.22690
 Alpha virt. eigenvalues --    0.23880   0.24888   0.25718   0.26814   0.28300
 Alpha virt. eigenvalues --    0.28912   0.29813   0.30828   0.31485   0.32024

 Mulliken charges:
               1
     1  C   -0.174837
     2  C   -0.220119
     3  C   -0.170691
     4  C    0.158543
     5  C   -0.171054
     6  C   -0.223656
     7  H    0.232386
     8  H    0.223544
     9  H    0.275671
    10  H    0.275955
    11  H    0.227942
    12  N    0.487993
    13  O   -0.460239
    14  O   -0.460377
    15  C   -0.297653
    16  C   -0.300618
    17  C   -0.475949
    18  H    0.145299
    19  H    0.151422
    20  H    0.153514
    21  H    0.153959
    22  H    0.156068
    23  H    0.154175
    24  H    0.162779
    25  C   -0.301268
    26  C   -0.301347
    27  C   -0.483036
    28  H    0.152322
    29  H    0.153495
    30  H    0.142756
    31  H    0.157797
    32  H    0.162555
    33  H    0.151250
    34  H    0.161422
 Sum of Mulliken charges =  -0.00000

 Dipole moment (field-independent basis, Debye):
    X=             -4.6579    Y=              1.5405    Z=              2.0453  Tot=              5.3153
 Quadrupole moment (field-independent basis, Debye-Ang):
   XX=           -122.4600   YY=            -92.3656   ZZ=            -93.5831
   XY=              5.0158   XZ=              7.1225   YZ=             -2.8184

 Normal termination of Gaussian 16 at Wed May  5 19:11:52 2021.
