 Gaussian 16, Revision A.03,
 Gaussian 16:  EM64L-G16RevA.03 25-Dec-2016

 -------------
 #p 6-31g* mp2
 -------------

 ------------------------------------------------------
 Input file generated by CHIRIPA (05-May-2021 14:53:12)
 ------------------------------------------------------
 Symbolic Z-matrix:
 Charge =  0 Multiplicity = 1

                         Standard orientation:
 ---------------------------------------------------------------------
 Center     Atomic      Atomic             Coordinates (Angstroms)
 Number     Number       Type             X           Y           Z
 ---------------------------------------------------------------------
      1          6           0        4.902438    0.155745   -0.312178
      2          6           0        6.337598   -0.082889    0.158306
      3          6           0        7.373514    0.229385   -0.922043
      4          1           0        4.706677   -0.461924   -1.199369
      5          1           0        4.797544    1.202191   -0.630521
      6          1           0        6.439385   -1.128217    0.476968
      7          1           0        6.529903    0.535275    1.044595
      8          1           0        7.300937    1.276215   -1.234262
      9          1           0        7.209905   -0.396729   -1.805114
     10          1           0        8.392556    0.051897   -0.564397
     11          6           0        3.855383   -0.152037    0.756782
     12          6           0        2.420223    0.086598    0.286297
     13          6           0        1.384306   -0.225677    1.366647
     14          1           0        3.960276   -1.198483    1.075125
     15          1           0        4.051143    0.465632    1.643973
     16          1           0        2.227918   -0.531567   -0.599991
     17          1           0        2.318435    1.131925   -0.032364
     18          1           0        1.547916    0.400437    2.249718
     19          1           0        1.456884   -1.272507    1.678866
     20          1           0        0.365264   -0.048189    1.009001
     21          6           0       -3.645921    2.509599   -0.073748
     22          6           0       -2.412182    1.929169   -0.386016
     23          6           0       -2.275963    0.538987   -0.444203
     24          6           0       -3.399281   -0.244207   -0.183334
     25          6           0       -4.641864    0.304218    0.130526
     26          6           0       -4.754869    1.696704    0.183073
     27          1           0       -3.742723    3.590420   -0.030737
     28          1           0       -1.549253    2.558003   -0.585928
     29          1           0       -1.332648    0.063280   -0.683532
     30          1           0       -5.484099   -0.348668    0.324944
     31          1           0       -5.714245    2.144711    0.425838
     32          7           0       -3.267360   -1.717150   -0.241948
     33          8           0       -4.272182   -2.385166   -0.008016
     34          8           0       -2.161636   -2.175737   -0.520714
 ---------------------------------------------------------------------

 SCF Done:  E(RHF) =  -669.535381681     A.U. after   15 cycles
 E2 =    -0.2091340044D+01 EUMP2 =    -0.67162672172547D+03

 The electronic state is 1-A.
 Alpha  occ. eigenvalues --  -20.60772 -20.60767 -15.85824 -11.31205 -11.27773
 Alpha  occ. eigenvalues --  -11.27757 -11.27516 -11.26799 -11.26789 -11.21775
 Alpha  occ. eigenvalues --  -11.21641 -11.21484 -11.21422 -11.21151 -11.21106
 Alpha  occ. eigenvalues --   -1.59845  -1.39399  -1.19380  -1.08770  -1.08515
 Alpha  occ. eigenvalues --   -1.04788  -1.03618  -0.96059  -0.95602  -0.87072
 Alpha  occ. eigenvalues --   -0.86180  -0.82434  -0.79683  -0.78330  -0.77483
 Alpha  occ. eigenvalues --   -0.72044  -0.71167  -0.70498  -0.65139  -0.65032
 Alpha  occ. eigenvalues --   -0.64798  -0.62184  -0.61001  -0.59426  -0.57684
 Alpha  occ. eigenvalues --   -0.55319  -0.55283  -0.53177  -0.52975  -0.52643
 Alpha  occ. eigenvalues --   -0.52406  -0.49973  -0.48803  -0.48797  -0.48001
 Alpha  occ. eigenvalues --   -0.46709  -0.45869  -0.45789  -0.44802  -0.43871
 Alpha  occ. eigenvalues --   -0.37357  -0.36372
 Alpha virt. eigenvalues --    0.05012   0.11196   0.16524   0.20638   0.22870
 Alpha virt. eigenvalues --    0.23939   0.26492   0.26562   0.27535   0.27828
 Alpha virt. eigenvalues --    0.29276   0.30449   0.31418   0.31567   0.31851

 Mulliken charges:
               1
     1  C   -0.298470
     2  C   -0.299851
     3  C   -0.475783
     4  H    0.151079
     5  H    0.147570
     6  H    0.153291
     7  H    0.151540
     8  H    0.154331
     9  H    0.155870
    10  H    0.160614
    11  C   -0.298236
    12  C   -0.302070
    13  C   -0.477133
    14  H    0.152859
    15  H    0.149155
    16  H    0.155733
    17  H    0.144787
    18  H    0.153725
    19  H    0.164106
    20  H    0.154934
    21  C   -0.170777
    22  C   -0.219282
    23  C   -0.172693
    24  C    0.158275
    25  C   -0.170989
    26  C   -0.218185
    27  H    0.225701
    28  H    0.224114
    29  H    0.279215
    30  H    0.275710
    31  H    0.223584
    32  N    0.488119
    33  O   -0.460335
    34  O   -0.460510
 Sum of Mulliken charges =  -0.00000

 Dipole moment (field-independent basis, Debye):
    X=             -0.4496    Y=              5.1110    Z=              0.2272  Tot=              5.1357
 Quadrupole moment (field-independent basis, Debye-Ang):
   XX=            -87.3730   YY=            -96.9028   ZZ=            -95.7550
   XY=            -17.6343   XZ=             -1.3022   YZ=             -0.7679

 Normal termination of Gaussian 16 at Thu May  6 13:37:37 2021.
