 Gaussian 16, Revision A.03,
 Gaussian 16:  EM64L-G16RevA.03 25-Dec-2016

 -------------
 #p 6-31g* mp2
 -------------

 ------------------------------------------------------
 Input file generated by CHIRIPA (05-May-2021 14:51:08)
 ------------------------------------------------------
 Symbolic Z-matrix:
 Charge =  0 Multiplicity = 1

                         Standard orientation:
 ---------------------------------------------------------------------
 Center     Atomic      Atomic             Coordinates (Angstroms)
 Number     Number       Type             X           Y           Z
 ---------------------------------------------------------------------
      1          6           0       -3.077195   -0.536430    0.057480
      2          6           0       -2.109264   -1.664565   -0.300857
      3          6           0       -2.721048   -3.052325   -0.106855
      4          1           0       -3.397720   -0.654712    1.101615
      5          1           0       -3.981698   -0.628940   -0.559537
      6          1           0       -1.206271   -1.569142    0.315678
      7          1           0       -1.790857   -1.543474   -1.344202
      8          1           0       -3.610476   -3.172317   -0.733848
      9          1           0       -3.022569   -3.198131    0.935463
     10          1           0       -2.012005   -3.843841   -0.368810
     11          6           0       -2.480065    0.856961   -0.131273
     12          6           0       -3.447996    1.985096    0.227064
     13          6           0       -2.836212    3.372856    0.033062
     14          1           0       -1.575562    0.949471    0.485744
     15          1           0       -2.159540    0.975243   -1.175408
     16          1           0       -3.766403    1.864005    1.270409
     17          1           0       -4.350989    1.889673   -0.389470
     18          1           0       -2.534691    3.518662   -1.009256
     19          1           0       -1.946784    3.492848    0.660055
     20          1           0       -3.545255    4.164372    0.295017
     21          6           0        2.824263    0.533630    0.352901
     22          6           0        3.465065    1.576366   -0.563646
     23          6           0        3.549294    2.959500    0.082603
     24          1           0        1.817004    0.870811    0.633408
     25          1           0        3.403151    0.469383    1.284650
     26          1           0        2.885942    1.637633   -1.493958
     27          1           0        4.470841    1.236572   -0.842158
     28          1           0        4.144605    2.920198    1.000569
     29          1           0        2.550700    3.323539    0.345066
     30          1           0        4.010580    3.689431   -0.589911
     31          6           0        2.732997   -0.854161   -0.279108
     32          6           0        2.092196   -1.896897    0.637439
     33          6           0        2.007966   -3.280031   -0.008811
     34          1           0        2.154110   -0.789914   -1.210857
     35          1           0        3.740256   -1.191342   -0.559615
     36          1           0        1.086418   -1.557103    0.915951
     37          1           0        2.671318   -1.958165    1.567751
     38          1           0        3.006560   -3.644070   -0.271274
     39          1           0        1.412655   -3.240730   -0.926776
     40          1           0        1.546679   -4.009963    0.663704
 ---------------------------------------------------------------------

 SCF Done:  E(RHF) =  -470.733393490     A.U. after   11 cycles
 E2 =    -0.1583350739D+01 EUMP2 =    -0.47231674422933D+03

 The electronic state is 1-A.
 Alpha  occ. eigenvalues --  -11.21649 -11.21631 -11.21588 -11.21582 -11.21464
 Alpha  occ. eigenvalues --  -11.21400 -11.21394 -11.21333 -11.21114 -11.21086
 Alpha  occ. eigenvalues --  -11.21064 -11.21058  -1.08486  -1.08412  -1.03585
 Alpha  occ. eigenvalues --   -1.03503  -0.96022  -0.95961  -0.87037  -0.86979
 Alpha  occ. eigenvalues --   -0.79677  -0.79549  -0.78332  -0.78200  -0.65204
 Alpha  occ. eigenvalues --   -0.64969  -0.61107  -0.60806  -0.59404  -0.59303
 Alpha  occ. eigenvalues --   -0.57644  -0.57560  -0.55329  -0.55218  -0.52719
 Alpha  occ. eigenvalues --   -0.52650  -0.52448  -0.52388  -0.50003  -0.49874
 Alpha  occ. eigenvalues --   -0.48079  -0.47817  -0.46888  -0.46439  -0.46059
 Alpha  occ. eigenvalues --   -0.45812  -0.45727  -0.45353  -0.43831  -0.43764
 Alpha virt. eigenvalues --    0.20212   0.22784   0.23525   0.24743   0.25391
 Alpha virt. eigenvalues --    0.26479   0.26925   0.27627   0.28901   0.29846
 Alpha virt. eigenvalues --    0.30116   0.31108   0.31522   0.31959   0.32330

 Mulliken charges:
               1
     1  C   -0.297722
     2  C   -0.307889
     3  C   -0.475890
     4  H    0.149785
     5  H    0.149838
     6  H    0.159928
     7  H    0.151271
     8  H    0.155183
     9  H    0.155090
    10  H    0.161446
    11  C   -0.299150
    12  C   -0.299666
    13  C   -0.475719
    14  H    0.149071
    15  H    0.149585
    16  H    0.152206
    17  H    0.152252
    18  H    0.155202
    19  H    0.154927
    20  H    0.160585
    21  C   -0.299034
    22  C   -0.299593
    23  C   -0.475726
    24  H    0.149847
    25  H    0.149364
    26  H    0.152217
    27  H    0.151877
    28  H    0.155016
    29  H    0.155263
    30  H    0.160286
    31  C   -0.298055
    32  C   -0.305397
    33  C   -0.476330
    34  H    0.150184
    35  H    0.149563
    36  H    0.156799
    37  H    0.151872
    38  H    0.155200
    39  H    0.156224
    40  H    0.160089
 Sum of Mulliken charges =  -0.00000

 Dipole moment (field-independent basis, Debye):
    X=             -0.0161    Y=             -0.0053    Z=             -0.0067  Tot=              0.0182
 Quadrupole moment (field-independent basis, Debye-Ang):
   XX=            -83.8982   YY=            -86.9727   ZZ=            -83.8188
   XY=             -0.6911   XZ=              0.6350   YZ=             -0.3576

 Normal termination of Gaussian 16 at Wed May  5 18:05:23 2021.
