 Gaussian 16, Revision A.03,
 Gaussian 16:  EM64L-G16RevA.03 25-Dec-2016

 -------------
 #p 6-31g* mp2
 -------------

 ------------------------------------------------------
 Input file generated by CHIRIPA (05-May-2021 14:55:23)
 ------------------------------------------------------
 Symbolic Z-matrix:
 Charge =  0 Multiplicity = 1

                         Standard orientation:
 ---------------------------------------------------------------------
 Center     Atomic      Atomic             Coordinates (Angstroms)
 Number     Number       Type             X           Y           Z
 ---------------------------------------------------------------------
      1          6           0       -2.857892    2.589683    0.766119
      2          6           0       -2.957962    2.314238   -0.601594
      3          6           0       -2.793156    1.009905   -1.077097
      4          6           0       -2.528100    0.000631   -0.152759
      5          6           0       -2.422517    0.243309    1.215908
      6          6           0       -2.590960    1.555164    1.668913
      7          1           0       -2.987330    3.605842    1.126762
      8          1           0       -3.165182    3.115676   -1.305015
      9          1           0       -2.865437    0.768645   -2.130656
     10          1           0       -2.215077   -0.576502    1.892884
     11          1           0       -2.512701    1.766141    2.731649
     12          7           0       -2.351702   -1.384189   -0.644243
     13          8           0       -2.118924   -2.255717    0.190556
     14          8           0       -2.449559   -1.571861   -1.854962
     15          6           0        3.362927    0.438426   -0.109320
     16          6           0        4.827716    0.869067   -0.192526
     17          6           0        4.990968    2.334769   -0.596088
     18          1           0        2.881631    0.608146   -1.082200
     19          1           0        2.840102    1.079303    0.614093
     20          1           0        5.347944    0.226674   -0.914543
     21          1           0        5.305630    0.698124    0.780610
     22          1           0        4.497236    2.990981    0.127940
     23          1           0        4.539789    2.516852   -1.576845
     24          1           0        6.045894    2.621372   -0.649464
     25          6           0        3.183434   -1.024324    0.293016
     26          6           0        1.718644   -1.454965    0.376221
     27          6           0        1.555393   -2.920667    0.779783
     28          1           0        3.706259   -1.665200   -0.430398
     29          1           0        3.664730   -1.194043    1.265895
     30          1           0        1.240730   -1.284022   -0.596914
     31          1           0        1.198417   -0.812570    1.098238
     32          1           0        2.006571   -3.102750    1.760540
     33          1           0        2.049125   -3.576879    0.055755
     34          1           0        0.500467   -3.207270    0.833160
 ---------------------------------------------------------------------

 SCF Done:  E(RHF) =  -669.536442161     A.U. after   15 cycles
 E2 =    -0.2091767978D+01 EUMP2 =    -0.67162821013828D+03

 The electronic state is 1-A.
 Alpha  occ. eigenvalues --  -20.60932 -20.60927 -15.85959 -11.31261 -11.27823
 Alpha  occ. eigenvalues --  -11.27818 -11.27558 -11.26830 -11.26821 -11.21449
 Alpha  occ. eigenvalues --  -11.21154 -11.21033 -11.21017 -11.20953 -11.20032
 Alpha  occ. eigenvalues --   -1.59984  -1.39543  -1.19426  -1.08834  -1.08082
 Alpha  occ. eigenvalues --   -1.04823  -1.03103  -0.95687  -0.95523  -0.86549
 Alpha  occ. eigenvalues --   -0.86223  -0.82517  -0.79202  -0.77892  -0.77571
 Alpha  occ. eigenvalues --   -0.72188  -0.71292  -0.70538  -0.65086  -0.64830
 Alpha  occ. eigenvalues --   -0.64721  -0.62172  -0.60515  -0.58920  -0.57113
 Alpha  occ. eigenvalues --   -0.55329  -0.54841  -0.53152  -0.52917  -0.52173
 Alpha  occ. eigenvalues --   -0.51953  -0.49504  -0.48946  -0.48930  -0.47496
 Alpha  occ. eigenvalues --   -0.46263  -0.45425  -0.45357  -0.44927  -0.43328
 Alpha  occ. eigenvalues --   -0.37396  -0.36418
 Alpha virt. eigenvalues --    0.04926   0.11198   0.16398   0.21292   0.23152
 Alpha virt. eigenvalues --    0.24659   0.26833   0.27230   0.27603   0.28149
 Alpha virt. eigenvalues --    0.28716   0.30827   0.31605   0.31946   0.32299

 Mulliken charges:
               1
     1  C   -0.170481
     2  C   -0.218375
     3  C   -0.170820
     4  C    0.159289
     5  C   -0.170275
     6  C   -0.218778
     7  H    0.225890
     8  H    0.223730
     9  H    0.275633
    10  H    0.275811
    11  H    0.223658
    12  N    0.489804
    13  O   -0.460927
    14  O   -0.459148
    15  C   -0.297484
    16  C   -0.299257
    17  C   -0.475261
    18  H    0.149398
    19  H    0.146019
    20  H    0.152760
    21  H    0.151284
    22  H    0.152992
    23  H    0.154677
    24  H    0.159785
    25  C   -0.297586
    26  C   -0.298590
    27  C   -0.485313
    28  H    0.150484
    29  H    0.147772
    30  H    0.152821
    31  H    0.143933
    32  H    0.147639
    33  H    0.153592
    34  H    0.185325
 Sum of Mulliken charges =  -0.00000

 Dipole moment (field-independent basis, Debye):
    X=             -0.8254    Y=              4.8024    Z=              1.6758  Tot=              5.1530
 Quadrupole moment (field-independent basis, Debye-Ang):
   XX=            -92.8654   YY=            -95.6110   ZZ=            -90.1130
   XY=            -13.1061   XZ=             -3.5973   YZ=             -1.7510

 Normal termination of Gaussian 16 at Thu May  6 03:06:53 2021.
