 Gaussian 16, Revision A.03,
 Gaussian 16:  EM64L-G16RevA.03 25-Dec-2016

 -------------
 #p 6-31g* mp2
 -------------

 ------------------------------------------------------
 Input file generated by CHIRIPA (05-May-2021 14:51:09)
 ------------------------------------------------------
 Symbolic Z-matrix:
 Charge =  0 Multiplicity = 1

                         Standard orientation:
 ---------------------------------------------------------------------
 Center     Atomic      Atomic             Coordinates (Angstroms)
 Number     Number       Type             X           Y           Z
 ---------------------------------------------------------------------
      1          6           0       -2.581486   -0.596448   -0.457581
      2          6           0       -2.337101   -1.956383    0.197276
      3          6           0       -2.619808   -3.126060   -0.745977
      4          1           0       -3.622436   -0.545736   -0.805141
      5          1           0       -1.948804   -0.508844   -1.351692
      6          1           0       -2.969038   -2.040838    1.090663
      7          1           0       -1.296666   -2.003791    0.543488
      8          1           0       -1.979697   -3.069553   -1.632355
      9          1           0       -3.661571   -3.106811   -1.082071
     10          1           0       -2.438658   -4.088566   -0.257481
     11          6           0       -2.303179    0.582759    0.472872
     12          6           0       -2.547564    1.942693   -0.181986
     13          6           0       -2.264857    3.112371    0.761267
     14          1           0       -2.935861    0.495154    1.366982
     15          1           0       -1.262229    0.532047    0.820432
     16          1           0       -3.587999    1.990101   -0.528198
     17          1           0       -1.915628    2.027148   -1.075372
     18          1           0       -1.223094    3.093121    1.097362
     19          1           0       -2.904968    3.055863    1.647646
     20          1           0       -2.446008    4.074876    0.272772
     21          6           0        2.089005    0.680740    0.059114
     22          6           0        2.856156    1.834347   -0.587923
     23          6           0        2.136606    3.175956   -0.446065
     24          1           0        1.090646    0.612730   -0.394319
     25          1           0        1.934190    0.904060    1.123799
     26          1           0        3.010686    1.608284   -1.650765
     27          1           0        3.852873    1.899496   -0.133030
     28          1           0        1.995765    3.427790    0.610034
     29          1           0        1.148793    3.134923   -0.916324
     30          1           0        2.702468    3.986630   -0.915606
     31          6           0        2.795661   -0.667050   -0.074404
     32          6           0        2.028509   -1.820656    0.572632
     33          6           0        2.748059   -3.162267    0.430774
     34          1           0        2.950475   -0.890371   -1.139090
     35          1           0        3.794019   -0.599041    0.379029
     36          1           0        1.031793   -1.885806    0.117739
     37          1           0        1.873980   -1.594595    1.635474
     38          1           0        3.735872   -3.121234    0.901033
     39          1           0        2.888900   -3.414100   -0.625325
     40          1           0        2.182198   -3.972941    0.900316
 ---------------------------------------------------------------------

 SCF Done:  E(RHF) =  -470.733155814     A.U. after   11 cycles
 E2 =    -0.1584648481D+01 EUMP2 =    -0.47231780429497D+03

 The electronic state is 1-A.
 Alpha  occ. eigenvalues --  -11.21683 -11.21674 -11.21576 -11.21548 -11.21502
 Alpha  occ. eigenvalues --  -11.21440 -11.21375 -11.21290 -11.21139 -11.21127
 Alpha  occ. eigenvalues --  -11.21066 -11.21004  -1.08535  -1.08388  -1.03620
 Alpha  occ. eigenvalues --   -1.03487  -0.96064  -0.95937  -0.87082  -0.86950
 Alpha  occ. eigenvalues --   -0.79728  -0.79514  -0.78435  -0.78129  -0.65331
 Alpha  occ. eigenvalues --   -0.64869  -0.61168  -0.60772  -0.59430  -0.59291
 Alpha  occ. eigenvalues --   -0.57711  -0.57528  -0.55414  -0.55161  -0.52747
 Alpha  occ. eigenvalues --   -0.52636  -0.52525  -0.52320  -0.50047  -0.49832
 Alpha  occ. eigenvalues --   -0.48185  -0.47744  -0.46842  -0.46437  -0.46334
 Alpha  occ. eigenvalues --   -0.45808  -0.45706  -0.45165  -0.43862  -0.43746
 Alpha virt. eigenvalues --    0.19350   0.21764   0.23684   0.25371   0.25619
 Alpha virt. eigenvalues --    0.25951   0.26371   0.27600   0.28964   0.30105
 Alpha virt. eigenvalues --    0.30366   0.31260   0.31763   0.31909   0.32317

 Mulliken charges:
               1
     1  C   -0.298279
     2  C   -0.307510
     3  C   -0.475495
     4  H    0.149787
     5  H    0.148065
     6  H    0.152140
     7  H    0.159416
     8  H    0.154464
     9  H    0.155316
    10  H    0.160213
    11  C   -0.303287
    12  C   -0.300077
    13  C   -0.477461
    14  H    0.149467
    15  H    0.155292
    16  H    0.151885
    17  H    0.150937
    18  H    0.157926
    19  H    0.154731
    20  H    0.160022
    21  C   -0.303130
    22  C   -0.299644
    23  C   -0.478034
    24  H    0.153472
    25  H    0.149728
    26  H    0.152096
    27  H    0.152449
    28  H    0.155619
    29  H    0.157268
    30  H    0.160825
    31  C   -0.297552
    32  C   -0.307576
    33  C   -0.475293
    34  H    0.149558
    35  H    0.150200
    36  H    0.158908
    37  H    0.152103
    38  H    0.155477
    39  H    0.155280
    40  H    0.160695
 Sum of Mulliken charges =  -0.00000

 Dipole moment (field-independent basis, Debye):
    X=              0.0627    Y=             -0.0014    Z=              0.0178  Tot=              0.0652
 Quadrupole moment (field-independent basis, Debye-Ang):
   XX=            -83.7752   YY=            -86.7015   ZZ=            -84.2200
   XY=              0.3862   XZ=              0.0086   YZ=             -0.4320

 Normal termination of Gaussian 16 at Wed May  5 15:09:44 2021.
