 Gaussian 16, Revision A.03,
 Gaussian 16:  EM64L-G16RevA.03 25-Dec-2016

 -------------
 #p 6-31g* mp2
 -------------

 ------------------------------------------------------
 Input file generated by CHIRIPA (05-May-2021 14:57:23)
 ------------------------------------------------------
 Symbolic Z-matrix:
 Charge =  0 Multiplicity = 1

                         Standard orientation:
 ---------------------------------------------------------------------
 Center     Atomic      Atomic             Coordinates (Angstroms)
 Number     Number       Type             X           Y           Z
 ---------------------------------------------------------------------
      1          6           0        2.377301    2.106502    1.446341
      2          6           0        1.464160    1.308520    0.749261
      3          6           0        1.909903    0.248644   -0.046052
      4          6           0        3.281939    0.014004   -0.121898
      5          6           0        4.216531    0.791204    0.560588
      6          6           0        3.748156    1.845757    1.349949
      7          1           0        2.022247    2.927771    2.061847
      8          1           0        0.398962    1.508693    0.822253
      9          1           0        1.224869   -0.384876   -0.596324
     10          1           0        5.272313    0.567155    0.468148
     11          1           0        4.459608    2.463829    1.890197
     12          7           0        3.765807   -1.105222   -0.960710
     13          8           0        4.979689   -1.291250   -1.010916
     14          8           0        2.922019   -1.775251   -1.552081
     15          6           0       -2.419038   -1.902660    1.671347
     16          6           0       -1.544309   -1.446194    0.679879
     17          6           0       -1.967422   -0.502088   -0.260432
     18          6           0       -3.277904   -0.033710   -0.179509
     19          6           0       -4.173076   -0.469074    0.796408
     20          6           0       -3.728322   -1.413504    1.726350
     21          1           0       -2.081949   -2.636190    2.397777
     22          1           0       -0.526947   -1.824323    0.634747
     23          1           0       -1.311110   -0.131570   -1.038501
     24          1           0       -5.181376   -0.073641    0.815939
     25          1           0       -4.409837   -1.766206    2.495236
     26          7           0       -3.737289    0.965944   -1.169487
     27          8           0       -4.896772    1.362970   -1.076698
     28          8           0       -2.929175    1.333519   -2.019473
 ---------------------------------------------------------------------

 SCF Done:  E(RHF) =  -868.337216883     A.U. after   16 cycles
 E2 =    -0.2601350354D+01 EUMP2 =    -0.87093856723774D+03

 The electronic state is 1-A.
 Alpha  occ. eigenvalues --  -20.61267 -20.61261 -20.61246 -20.61226 -15.86322
 Alpha  occ. eigenvalues --  -15.86289 -11.31789 -11.31675 -11.28395 -11.28304
 Alpha  occ. eigenvalues --  -11.28292 -11.28159 -11.28008 -11.27864 -11.27353
 Alpha  occ. eigenvalues --  -11.27314 -11.27188 -11.27177  -1.60343  -1.60311
 Alpha  occ. eigenvalues --   -1.39893  -1.39867  -1.19946  -1.19809  -1.09296
 Alpha  occ. eigenvalues --   -1.09184  -1.05418  -1.05174  -0.96132  -0.96033
 Alpha  occ. eigenvalues --   -0.86736  -0.86603  -0.83026  -0.82819  -0.78144
 Alpha  occ. eigenvalues --   -0.77820  -0.72535  -0.72501  -0.71674  -0.71634
 Alpha  occ. eigenvalues --   -0.71092  -0.70846  -0.65604  -0.65448  -0.65377
 Alpha  occ. eigenvalues --   -0.65164  -0.63042  -0.62223  -0.55814  -0.55641
 Alpha  occ. eigenvalues --   -0.53711  -0.53609  -0.53373  -0.53232  -0.49299
 Alpha  occ. eigenvalues --   -0.49288  -0.49272  -0.49252  -0.45278  -0.45269
 Alpha  occ. eigenvalues --   -0.37888  -0.37751  -0.37061  -0.36712
 Alpha virt. eigenvalues --    0.04453   0.04600   0.10649   0.10788   0.15856
 Alpha virt. eigenvalues --    0.16206   0.19145   0.21953   0.24766   0.27293
 Alpha virt. eigenvalues --    0.27633   0.29404   0.30249   0.31063   0.31657

 Mulliken charges:
               1
     1  C   -0.171100
     2  C   -0.217793
     3  C   -0.181464
     4  C    0.161404
     5  C   -0.170761
     6  C   -0.217490
     7  H    0.228584
     8  H    0.228378
     9  H    0.268571
    10  H    0.276960
    11  H    0.225554
    12  N    0.488209
    13  O   -0.457534
    14  O   -0.463226
    15  C   -0.171165
    16  C   -0.220886
    17  C   -0.184215
    18  C    0.159937
    19  C   -0.170985
    20  C   -0.217854
    21  H    0.229426
    22  H    0.229570
    23  H    0.274740
    24  H    0.277362
    25  H    0.225989
    26  N    0.488171
    27  O   -0.458279
    28  O   -0.460102
 Sum of Mulliken charges =  -0.00000

 Dipole moment (field-independent basis, Debye):
    X=             -0.1236    Y=              0.4554    Z=              6.5863  Tot=              6.6032
 Quadrupole moment (field-independent basis, Debye-Ang):
   XX=           -116.9383   YY=           -105.1494   ZZ=           -106.6464
   XY=             26.2272   XZ=             -2.7806   YZ=              0.3751

 Normal termination of Gaussian 16 at Wed May  5 19:24:07 2021.
