 Gaussian 16, Revision A.03,
 Gaussian 16:  EM64L-G16RevA.03 25-Dec-2016

 -------------
 #p 6-31g* mp2
 -------------

 ------------------------------------------------------
 Input file generated by CHIRIPA (05-May-2021 14:51:08)
 ------------------------------------------------------
 Symbolic Z-matrix:
 Charge =  0 Multiplicity = 1

                         Standard orientation:
 ---------------------------------------------------------------------
 Center     Atomic      Atomic             Coordinates (Angstroms)
 Number     Number       Type             X           Y           Z
 ---------------------------------------------------------------------
      1          6           0       -4.416115   -0.121371    0.136175
      2          6           0       -4.953457    1.296347   -0.062126
      3          6           0       -6.395429    1.454954    0.420941
      4          1           0       -5.063419   -0.830094   -0.398291
      5          1           0       -4.477888   -0.383755    1.201414
      6          1           0       -4.889405    1.556493   -1.126475
      7          1           0       -4.304689    2.001797    0.472716
      8          1           0       -6.472121    1.221836    1.487887
      9          1           0       -7.060160    0.774002   -0.120390
     10          1           0       -6.759469    2.475970    0.269738
     11          6           0       -2.975717   -0.295694   -0.341940
     12          6           0       -2.438376   -1.713412   -0.143638
     13          6           0       -0.996403   -1.872019   -0.626705
     14          1           0       -2.913945   -0.033310   -1.407178
     15          1           0       -2.328413    0.413029    0.192527
     16          1           0       -3.087144   -2.418862   -0.678480
     17          1           0       -2.502428   -1.973558    0.920711
     18          1           0       -0.331673   -1.191067   -0.085374
     19          1           0       -0.919711   -1.638901   -1.693651
     20          1           0       -0.632364   -2.893035   -0.475502
     21          6           0        3.855634   -0.508539   -0.106240
     22          6           0        3.031392   -1.556389    0.642505
     23          6           0        3.362269   -2.986067    0.213164
     24          1           0        3.682784   -0.618053   -1.185626
     25          1           0        4.923850   -0.704579    0.060724
     26          1           0        1.965022   -1.357603    0.475304
     27          1           0        3.206075   -1.444242    1.720245
     28          1           0        4.418575   -3.208450    0.395823
     29          1           0        3.170471   -3.121317   -0.856192
     30          1           0        2.761639   -3.718919    0.760917
     31          6           0        3.536199    0.925603    0.312004
     32          6           0        4.360441    1.973453   -0.436741
     33          6           0        4.029563    3.403132   -0.007400
     34          1           0        2.467983    1.121644    0.145039
     35          1           0        3.709049    1.035118    1.391391
     36          1           0        4.185757    1.861307   -1.514482
     37          1           0        5.426810    1.774667   -0.269540
     38          1           0        4.221362    3.538382    1.061956
     39          1           0        2.973257    3.625514   -0.190059
     40          1           0        4.630193    4.135984   -0.555152
 ---------------------------------------------------------------------

 SCF Done:  E(RHF) =  -470.733239337     A.U. after   11 cycles
 E2 =    -0.1582588035D+01 EUMP2 =    -0.47231582737150D+03

 The electronic state is 1-A.
 Alpha  occ. eigenvalues --  -11.21641 -11.21622 -11.21580 -11.21494 -11.21437
 Alpha  occ. eigenvalues --  -11.21377 -11.21369 -11.21301 -11.21122 -11.21086
 Alpha  occ. eigenvalues --  -11.21057 -11.21006  -1.08463  -1.08384  -1.03570
 Alpha  occ. eigenvalues --   -1.03476  -0.96021  -0.95930  -0.87040  -0.86948
 Alpha  occ. eigenvalues --   -0.79665  -0.79515  -0.78284  -0.78191  -0.65120
 Alpha  occ. eigenvalues --   -0.64997  -0.61049  -0.60809  -0.59389  -0.59295
 Alpha  occ. eigenvalues --   -0.57626  -0.57547  -0.55342  -0.55194  -0.52712
 Alpha  occ. eigenvalues --   -0.52622  -0.52466  -0.52347  -0.50054  -0.49817
 Alpha  occ. eigenvalues --   -0.48024  -0.47806  -0.46795  -0.46450  -0.45876
 Alpha  occ. eigenvalues --   -0.45758  -0.45720  -0.45502  -0.43813  -0.43738
 Alpha virt. eigenvalues --    0.21658   0.23006   0.23776   0.24691   0.25571
 Alpha virt. eigenvalues --    0.26769   0.27158   0.27464   0.27894   0.28976
 Alpha virt. eigenvalues --    0.30747   0.31471   0.31708   0.31874   0.32256

 Mulliken charges:
               1
     1  C   -0.298322
     2  C   -0.299699
     3  C   -0.475731
     4  H    0.149741
     5  H    0.149676
     6  H    0.151909
     7  H    0.152001
     8  H    0.155253
     9  H    0.155207
    10  H    0.160333
    11  C   -0.298591
    12  C   -0.299440
    13  C   -0.480546
    14  H    0.149466
    15  H    0.149684
    16  H    0.152133
    17  H    0.152279
    18  H    0.158795
    19  H    0.155136
    20  H    0.161493
    21  C   -0.297664
    22  C   -0.307997
    23  C   -0.475044
    24  H    0.149752
    25  H    0.149209
    26  H    0.161128
    27  H    0.151028
    28  H    0.154708
    29  H    0.155418
    30  H    0.159704
    31  C   -0.298368
    32  C   -0.299589
    33  C   -0.475711
    34  H    0.148820
    35  H    0.149451
    36  H    0.152039
    37  H    0.151954
    38  H    0.155052
    39  H    0.155126
    40  H    0.160204
 Sum of Mulliken charges =  -0.00000

 Dipole moment (field-independent basis, Debye):
    X=             -0.0371    Y=             -0.0088    Z=             -0.0093  Tot=              0.0393
 Quadrupole moment (field-independent basis, Debye-Ang):
   XX=            -85.3307   YY=            -86.0078   ZZ=            -83.5217
   XY=              0.5067   XZ=              1.1496   YZ=             -0.0754

 Normal termination of Gaussian 16 at Wed May  5 22:56:22 2021.
