 Gaussian 16, Revision A.03,
 Gaussian 16:  EM64L-G16RevA.03 25-Dec-2016

 -------------
 #p 6-31g* mp2
 -------------

 ------------------------------------------------------
 Input file generated by CHIRIPA (05-May-2021 14:51:14)
 ------------------------------------------------------
 Symbolic Z-matrix:
 Charge =  0 Multiplicity = 1

                         Standard orientation:
 ---------------------------------------------------------------------
 Center     Atomic      Atomic             Coordinates (Angstroms)
 Number     Number       Type             X           Y           Z
 ---------------------------------------------------------------------
      1          6           0       -3.246542    0.665639   -0.368666
      2          6           0       -3.259259    2.063393    0.251097
      3          6           0       -2.162332    2.968814   -0.309936
      4          1           0       -2.264531    0.204116   -0.196627
      5          1           0       -3.363969    0.753898   -1.457618
      6          1           0       -3.143231    1.972446    1.338700
      7          1           0       -4.241418    2.521567    0.077728
      8          1           0       -2.278106    3.089180   -1.391929
      9          1           0       -1.173678    2.536939   -0.123793
     10          1           0       -2.189728    3.963015    0.146873
     11          6           0       -4.337342   -0.251195    0.182061
     12          6           0       -4.324624   -1.648949   -0.437702
     13          6           0       -5.421551   -2.554370    0.123331
     14          1           0       -4.219914   -0.339454    1.271012
     15          1           0       -5.319352    0.210327    0.010021
     16          1           0       -3.342465   -2.107123   -0.264334
     17          1           0       -4.440653   -1.558002   -1.525306
     18          1           0       -6.410205   -2.122495   -0.062812
     19          1           0       -5.305778   -2.674736    1.205324
     20          1           0       -5.394155   -3.548571   -0.333478
     21          6           0        3.084098   -0.201655   -0.193679
     22          6           0        2.005498    0.060656    0.857891
     23          6           0        0.594737    0.068766    0.268415
     24          1           0        3.017121    0.565120   -0.977589
     25          1           0        2.883996   -1.165698   -0.681506
     26          1           0        2.208357    1.023270    1.344550
     27          1           0        2.075175   -0.706722    1.639487
     28          1           0        0.367665   -0.894067   -0.200619
     29          1           0        0.501604    0.845755   -0.497231
     30          1           0       -0.160630    0.258030    1.037479
     31          6           0        4.499785   -0.212788    0.380285
     32          6           0        5.578384   -0.475100   -0.671286
     33          6           0        6.989147   -0.483209   -0.081810
     34          1           0        4.699888    0.751255    0.868112
     35          1           0        4.566763   -0.979564    1.164195
     36          1           0        5.508709    0.292278   -1.452881
     37          1           0        5.375527   -1.437715   -1.157944
     38          1           0        7.082280   -1.260200    0.683836
     39          1           0        7.216218    0.479623    0.387223
     40          1           0        7.744514   -0.672475   -0.850874
 ---------------------------------------------------------------------

 SCF Done:  E(RHF) =  -470.732163208     A.U. after   11 cycles
 E2 =    -0.1583687935D+01 EUMP2 =    -0.47231585114233D+03

 The electronic state is 1-A.
 Alpha  occ. eigenvalues --  -11.21675 -11.21629 -11.21539 -11.21500 -11.21453
 Alpha  occ. eigenvalues --  -11.21391 -11.21291 -11.21187 -11.21169 -11.21092
 Alpha  occ. eigenvalues --  -11.21026 -11.20922  -1.08487  -1.08325  -1.03610
 Alpha  occ. eigenvalues --   -1.03433  -0.96062  -0.95886  -0.87093  -0.86907
 Alpha  occ. eigenvalues --   -0.79736  -0.79464  -0.78313  -0.78099  -0.65123
 Alpha  occ. eigenvalues --   -0.64976  -0.61091  -0.60807  -0.59439  -0.59216
 Alpha  occ. eigenvalues --   -0.57661  -0.57510  -0.55495  -0.55041  -0.52812
 Alpha  occ. eigenvalues --   -0.52582  -0.52485  -0.52311  -0.50140  -0.49686
 Alpha  occ. eigenvalues --   -0.48014  -0.47788  -0.46744  -0.46452  -0.45924
 Alpha  occ. eigenvalues --   -0.45754  -0.45646  -0.45530  -0.43741  -0.43677
 Alpha virt. eigenvalues --    0.21581   0.22975   0.23829   0.24896   0.25986
 Alpha virt. eigenvalues --    0.26434   0.27000   0.27594   0.27808   0.29399
 Alpha virt. eigenvalues --    0.30766   0.30981   0.31714   0.31916   0.32341

 Mulliken charges:
               1
     1  C   -0.309402
     2  C   -0.298625
     3  C   -0.482180
     4  H    0.164427
     5  H    0.148388
     6  H    0.150367
     7  H    0.151468
     8  H    0.154137
     9  H    0.162600
    10  H    0.159137
    11  C   -0.297449
    12  C   -0.299517
    13  C   -0.475600
    14  H    0.148587
    15  H    0.149168
    16  H    0.151620
    17  H    0.151799
    18  H    0.155116
    19  H    0.154973
    20  H    0.159912
    21  C   -0.298933
    22  C   -0.300712
    23  C   -0.480985
    24  H    0.150165
    25  H    0.149696
    26  H    0.152441
    27  H    0.152189
    28  H    0.155868
    29  H    0.159982
    30  H    0.160879
    31  C   -0.298395
    32  C   -0.299672
    33  C   -0.475740
    34  H    0.149690
    35  H    0.149704
    36  H    0.152084
    37  H    0.151984
    38  H    0.155197
    39  H    0.155256
    40  H    0.160378
 Sum of Mulliken charges =  -0.00000

 Dipole moment (field-independent basis, Debye):
    X=              0.0932    Y=             -0.0274    Z=             -0.0067  Tot=              0.0974
 Quadrupole moment (field-independent basis, Debye-Ang):
   XX=            -86.3905   YY=            -84.4385   ZZ=            -84.4232
   XY=             -0.5531   XZ=              0.3813   YZ=             -0.1629

 Normal termination of Gaussian 16 at Wed May  5 18:24:09 2021.
