 Gaussian 16, Revision A.03,
 Gaussian 16:  EM64L-G16RevA.03 25-Dec-2016

 -------------
 #p 6-31g* mp2
 -------------

 ------------------------------------------------------
 Input file generated by CHIRIPA (05-May-2021 14:57:25)
 ------------------------------------------------------
 Symbolic Z-matrix:
 Charge =  0 Multiplicity = 1

                         Standard orientation:
 ---------------------------------------------------------------------
 Center     Atomic      Atomic             Coordinates (Angstroms)
 Number     Number       Type             X           Y           Z
 ---------------------------------------------------------------------
      1          6           0       -6.311156   -0.736049    0.600210
      2          6           0       -5.623419   -1.400779   -0.420414
      3          6           0       -4.334142   -1.001390   -0.784833
      4          6           0       -3.760177    0.071488   -0.104547
      5          6           0       -4.419754    0.753876    0.916528
      6          6           0       -5.708192    0.337265    1.264253
      7          1           0       -7.312371   -1.052993    0.876815
      8          1           0       -6.089212   -2.234653   -0.937847
      9          1           0       -3.779102   -1.498264   -1.571258
     10          1           0       -3.929326    1.581704    1.414123
     11          1           0       -6.239926    0.855362    2.057271
     12          7           0       -2.395722    0.503419   -0.481504
     13          8           0       -1.912096    1.451513    0.133201
     14          8           0       -1.835724   -0.114305   -1.384530
     15          6           0        2.820830    2.202097   -0.357512
     16          6           0        2.122705    1.001243   -0.522110
     17          6           0        2.757667   -0.224917   -0.303245
     18          6           0        4.097609   -0.213220    0.081083
     19          6           0        4.820156    0.966419    0.253327
     20          6           0        4.164957    2.180889    0.029000
     21          1           0        2.319715    3.150067   -0.529654
     22          1           0        1.078768    1.014676   -0.822210
     23          1           0        2.241016   -1.169403   -0.423392
     24          1           0        5.860070    0.921035    0.553224
     25          1           0        4.709627    3.111935    0.157592
     26          7           0        4.780527   -1.505114    0.315678
     27          8           0        5.961638   -1.467799    0.653644
     28          8           0        4.121756   -2.530552    0.157145
 ---------------------------------------------------------------------

 SCF Done:  E(RHF) =  -868.341910654     A.U. after   16 cycles
 E2 =    -0.2598709453D+01 EUMP2 =    -0.87094062010701D+03

 The electronic state is 1-A.
 Alpha  occ. eigenvalues --  -20.61961 -20.61951 -20.59854 -20.59846 -15.86913
 Alpha  occ. eigenvalues --  -15.84890 -11.31898 -11.30001 -11.28418 -11.28403
 Alpha  occ. eigenvalues --  -11.28085 -11.27341 -11.27326 -11.26574 -11.26391
 Alpha  occ. eigenvalues --  -11.26134 -11.25580 -11.25145  -1.60987  -1.58932
 Alpha  occ. eigenvalues --   -1.40546  -1.38493  -1.20029  -1.18112  -1.09501
 Alpha  occ. eigenvalues --   -1.07550  -1.05370  -1.03440  -0.96398  -0.94441
 Alpha  occ. eigenvalues --   -0.86787  -0.84845  -0.83244  -0.81260  -0.78334
 Alpha  occ. eigenvalues --   -0.76344  -0.73140  -0.72258  -0.71131  -0.71117
 Alpha  occ. eigenvalues --   -0.70251  -0.69220  -0.65684  -0.65371  -0.63741
 Alpha  occ. eigenvalues --   -0.63381  -0.62719  -0.60766  -0.55890  -0.53952
 Alpha  occ. eigenvalues --   -0.53720  -0.53455  -0.51832  -0.51522  -0.49921
 Alpha  occ. eigenvalues --   -0.49845  -0.47887  -0.47839  -0.46029  -0.43955
 Alpha  occ. eigenvalues --   -0.37985  -0.36952  -0.36093  -0.35043
 Alpha virt. eigenvalues --    0.04172   0.06121   0.10709   0.12603   0.15753
 Alpha virt. eigenvalues --    0.17705   0.20883   0.22901   0.26829   0.27739
 Alpha virt. eigenvalues --    0.28981   0.29564   0.30497   0.31962   0.32553

 Mulliken charges:
               1
     1  C   -0.169257
     2  C   -0.218548
     3  C   -0.169918
     4  C    0.158585
     5  C   -0.170081
     6  C   -0.218585
     7  H    0.228374
     8  H    0.226262
     9  H    0.276885
    10  H    0.275762
    11  H    0.225645
    12  N    0.489604
    13  O   -0.463770
    14  O   -0.463481
    15  C   -0.173225
    16  C   -0.227329
    17  C   -0.175389
    18  C    0.158076
    19  C   -0.174326
    20  C   -0.218814
    21  H    0.225710
    22  H    0.252456
    23  H    0.275269
    24  H    0.270823
    25  H    0.218336
    26  N    0.488112
    27  O   -0.464437
    28  O   -0.462739
 Sum of Mulliken charges =  -0.00000

 Dipole moment (field-independent basis, Debye):
    X=             -8.0013    Y=              3.0198    Z=              0.4598  Tot=              8.5646
 Quadrupole moment (field-independent basis, Debye-Ang):
   XX=            -86.0566   YY=           -104.2788   ZZ=           -103.7483
   XY=             27.2334   XZ=             -7.5998   YZ=              4.3942

 Normal termination of Gaussian 16 at Fri May  7 08:07:18 2021.
