 Gaussian 16, Revision A.03,
 Gaussian 16:  EM64L-G16RevA.03 25-Dec-2016

 -------------
 #p 6-31g* mp2
 -------------

 ------------------------------------------------------
 Input file generated by CHIRIPA (05-May-2021 14:53:13)
 ------------------------------------------------------
 Symbolic Z-matrix:
 Charge =  0 Multiplicity = 1

                         Standard orientation:
 ---------------------------------------------------------------------
 Center     Atomic      Atomic             Coordinates (Angstroms)
 Number     Number       Type             X           Y           Z
 ---------------------------------------------------------------------
      1          6           0        2.641541   -0.443874   -0.343712
      2          6           0        3.946174   -1.234354   -0.238549
      3          6           0        3.719824   -2.745930   -0.197348
      4          1           0        1.997387   -0.696485    0.509633
      5          1           0        2.101550   -0.759463   -1.247155
      6          1           0        4.484201   -0.916379    0.663690
      7          1           0        4.587376   -0.979688   -1.092142
      8          1           0        3.204576   -3.083120   -1.102568
      9          1           0        3.100815   -3.019452    0.663241
     10          1           0        4.665580   -3.291589   -0.122100
     11          6           0        2.851399    1.068708   -0.385918
     12          6           0        1.546766    1.859188   -0.491082
     13          6           0        1.773116    3.370764   -0.532283
     14          1           0        3.391390    1.384297    0.517524
     15          1           0        3.495553    1.321319   -1.239264
     16          1           0        0.905564    1.604522    0.362511
     17          1           0        1.008739    1.541213   -1.393321
     18          1           0        2.392126    3.644287   -1.392872
     19          1           0        2.288365    3.707955    0.372937
     20          1           0        0.827360    3.916423   -0.607531
     21          6           0       -1.012087    0.189789    2.496946
     22          6           0       -1.497471    1.259398    1.737434
     23          6           0       -2.127271    1.030791    0.510389
     24          6           0       -2.255271   -0.286020    0.071171
     25          6           0       -1.782122   -1.372752    0.804951
     26          6           0       -1.155708   -1.120562    2.029105
     27          1           0       -0.524158    0.376536    3.449021
     28          1           0       -1.387329    2.278076    2.098276
     29          1           0       -2.512261    1.840271   -0.097843
     30          1           0       -1.906627   -2.377231    0.419026
     31          1           0       -0.779719   -1.953182    2.616831
     32          7           0       -2.920220   -0.540518   -1.226317
     33          8           0       -3.020570   -1.709910   -1.591134
     34          8           0       -3.328467    0.434216   -1.853903
 ---------------------------------------------------------------------

 SCF Done:  E(RHF) =  -669.534847216     A.U. after   15 cycles
 E2 =    -0.2093896415D+01 EUMP2 =    -0.67162874363126D+03

 The electronic state is 1-A.
 Alpha  occ. eigenvalues --  -20.60828 -20.60822 -15.85882 -11.31273 -11.27856
 Alpha  occ. eigenvalues --  -11.27837 -11.27612 -11.26897 -11.26845 -11.21781
 Alpha  occ. eigenvalues --  -11.21605 -11.21533 -11.21475 -11.21326 -11.21291
 Alpha  occ. eigenvalues --   -1.59902  -1.39455  -1.19464  -1.08860  -1.08574
 Alpha  occ. eigenvalues --   -1.04878  -1.03703  -0.96174  -0.95679  -0.87187
 Alpha  occ. eigenvalues --   -0.86267  -0.82511  -0.79765  -0.78393  -0.77545
 Alpha  occ. eigenvalues --   -0.72101  -0.71223  -0.70565  -0.65235  -0.65116
 Alpha  occ. eigenvalues --   -0.64864  -0.62213  -0.61123  -0.59554  -0.57788
 Alpha  occ. eigenvalues --   -0.55472  -0.55371  -0.53322  -0.52958  -0.52832
 Alpha  occ. eigenvalues --   -0.52590  -0.50117  -0.48862  -0.48853  -0.48080
 Alpha  occ. eigenvalues --   -0.46801  -0.45894  -0.45826  -0.44853  -0.43950
 Alpha  occ. eigenvalues --   -0.37415  -0.36364
 Alpha virt. eigenvalues --    0.04981   0.11088   0.16432   0.21044   0.22820
 Alpha virt. eigenvalues --    0.23952   0.26455   0.27016   0.27262   0.27863
 Alpha virt. eigenvalues --    0.28388   0.30845   0.31227   0.31636   0.31852

 Mulliken charges:
               1
     1  C   -0.300163
     2  C   -0.299639
     3  C   -0.475062
     4  H    0.147363
     5  H    0.152627
     6  H    0.149828
     7  H    0.153578
     8  H    0.158002
     9  H    0.150270
    10  H    0.160812
    11  C   -0.297405
    12  C   -0.308951
    13  C   -0.475395
    14  H    0.145877
    15  H    0.150648
    16  H    0.158669
    17  H    0.154618
    18  H    0.158115
    19  H    0.151783
    20  H    0.155980
    21  C   -0.170666
    22  C   -0.222183
    23  C   -0.165819
    24  C    0.159481
    25  C   -0.169758
    26  C   -0.217876
    27  H    0.226242
    28  H    0.224923
    29  H    0.276131
    30  H    0.276324
    31  H    0.224107
    32  N    0.487896
    33  O   -0.460141
    34  O   -0.460214
 Sum of Mulliken charges =  -0.00000

 Dipole moment (field-independent basis, Debye):
    X=              2.2202    Y=              0.8421    Z=              4.5450  Tot=              5.1279
 Quadrupole moment (field-independent basis, Debye-Ang):
   XX=           -106.2144   YY=            -91.9544   ZZ=            -93.5224
   XY=             -3.6261   XZ=            -10.3952   YZ=             -1.7980

 Normal termination of Gaussian 16 at Wed May  5 20:11:06 2021.
