 Gaussian 16, Revision A.03,
 Gaussian 16:  EM64L-G16RevA.03 25-Dec-2016

 -------------
 #p 6-31g* mp2
 -------------

 ------------------------------------------------------
 Input file generated by CHIRIPA (05-May-2021 14:55:23)
 ------------------------------------------------------
 Symbolic Z-matrix:
 Charge =  0 Multiplicity = 1

                         Standard orientation:
 ---------------------------------------------------------------------
 Center     Atomic      Atomic             Coordinates (Angstroms)
 Number     Number       Type             X           Y           Z
 ---------------------------------------------------------------------
      1          6           0       -0.456707   -1.397961    1.642986
      2          6           0       -1.492666   -0.608717    2.153283
      3          6           0       -2.507159   -0.139169    1.313713
      4          6           0       -2.454241   -0.479527   -0.037081
      5          6           0       -1.435403   -1.264000   -0.575469
      6          6           0       -0.431426   -1.722512    0.282637
      7          1           0        0.327291   -1.758431    2.302383
      8          1           0       -1.514864   -0.355094    3.209326
      9          1           0       -3.320912    0.473488    1.682327
     10          1           0       -1.440300   -1.500256   -1.632624
     11          1           0        0.371882   -2.335276   -0.116438
     12          7           0       -3.522673    0.011720   -0.935707
     13          8           0       -3.453236   -0.302124   -2.122011
     14          8           0       -4.409316    0.701303   -0.436731
     15          6           0        3.499425    0.428021   -0.541271
     16          6           0        3.986121   -0.921379   -0.011902
     17          6           0        5.153576   -1.487498   -0.820823
     18          1           0        3.199003    0.315755   -1.592026
     19          1           0        4.334953    1.141570   -0.529591
     20          1           0        3.149575   -1.631786   -0.023279
     21          1           0        4.285241   -0.805931    1.037772
     22          1           0        6.005846   -0.800629   -0.799662
     23          1           0        4.863729   -1.631176   -1.866741
     24          1           0        5.485605   -2.452419   -0.425166
     25          6           0        2.332641    1.006836    0.257051
     26          6           0        1.845945    2.356236   -0.272318
     27          6           0        0.678491    2.922355    0.536603
     28          1           0        1.497113    0.293286    0.245371
     29          1           0        2.633064    1.119102    1.307806
     30          1           0        1.546826    2.240788   -1.321992
     31          1           0        2.682492    3.066643   -0.260941
     32          1           0        0.968338    3.066033    1.582521
     33          1           0       -0.173779    2.235485    0.515442
     34          1           0        0.346462    3.887275    0.140946
 ---------------------------------------------------------------------

 SCF Done:  E(RHF) =  -669.534671131     A.U. after   15 cycles
 E2 =    -0.2094479390D+01 EUMP2 =    -0.67162915052065D+03

 The electronic state is 1-A.
 Alpha  occ. eigenvalues --  -20.60850 -20.60845 -15.85907 -11.31322 -11.27894
 Alpha  occ. eigenvalues --  -11.27881 -11.27597 -11.26884 -11.26872 -11.22344
 Alpha  occ. eigenvalues --  -11.21836 -11.21775 -11.21658 -11.21575 -11.21162
 Alpha  occ. eigenvalues --   -1.59925  -1.39477  -1.19501  -1.08920  -1.08799
 Alpha  occ. eigenvalues --   -1.04904  -1.03923  -0.96347  -0.95700  -0.87368
 Alpha  occ. eigenvalues --   -0.86295  -0.82528  -0.80024  -0.78654  -0.77573
 Alpha  occ. eigenvalues --   -0.72121  -0.71251  -0.70572  -0.65539  -0.65135
 Alpha  occ. eigenvalues --   -0.64862  -0.62240  -0.61337  -0.59737  -0.57965
 Alpha  occ. eigenvalues --   -0.55642  -0.55371  -0.53338  -0.53053  -0.52973
 Alpha  occ. eigenvalues --   -0.52771  -0.50316  -0.48886  -0.48874  -0.48314
 Alpha  occ. eigenvalues --   -0.47073  -0.46169  -0.46048  -0.44872  -0.44158
 Alpha  occ. eigenvalues --   -0.37369  -0.36454
 Alpha virt. eigenvalues --    0.04951   0.11037   0.16411   0.19876   0.22886
 Alpha virt. eigenvalues --    0.23706   0.25368   0.26476   0.27434   0.28013
 Alpha virt. eigenvalues --    0.29196   0.29993   0.31325   0.31437   0.31775

 Mulliken charges:
               1
     1  C   -0.167971
     2  C   -0.216624
     3  C   -0.171718
     4  C    0.158903
     5  C   -0.170978
     6  C   -0.223903
     7  H    0.227867
     8  H    0.224586
     9  H    0.276663
    10  H    0.276226
    11  H    0.227201
    12  N    0.488066
    13  O   -0.460134
    14  O   -0.459811
    15  C   -0.297809
    16  C   -0.299222
    17  C   -0.475679
    18  H    0.150163
    19  H    0.151604
    20  H    0.140333
    21  H    0.151694
    22  H    0.158316
    23  H    0.156362
    24  H    0.159868
    25  C   -0.309150
    26  C   -0.298872
    27  C   -0.478425
    28  H    0.160285
    29  H    0.144587
    30  H    0.153609
    31  H    0.151695
    32  H    0.151356
    33  H    0.158164
    34  H    0.162750
 Sum of Mulliken charges =  -0.00000

 Dipole moment (field-independent basis, Debye):
    X=              3.6764    Y=             -1.7390    Z=              3.1710  Tot=              5.1570
 Quadrupole moment (field-independent basis, Debye-Ang):
   XX=           -113.0716   YY=            -92.7992   ZZ=            -92.0036
   XY=              2.0931   XZ=             -9.3091   YZ=              0.4709

 Normal termination of Gaussian 16 at Wed May  5 19:06:06 2021.
