 Gaussian 16, Revision A.03,
 Gaussian 16:  EM64L-G16RevA.03 25-Dec-2016

 -------------
 #p 6-31g* mp2
 -------------

 ------------------------------------------------------
 Input file generated by CHIRIPA (05-May-2021 14:57:25)
 ------------------------------------------------------
 Symbolic Z-matrix:
 Charge =  0 Multiplicity = 1

                         Standard orientation:
 ---------------------------------------------------------------------
 Center     Atomic      Atomic             Coordinates (Angstroms)
 Number     Number       Type             X           Y           Z
 ---------------------------------------------------------------------
      1          6           0       -3.952792    1.594228   -0.566868
      2          6           0       -3.582417    0.569099   -1.443483
      3          6           0       -2.770519   -0.481228   -1.005098
      4          6           0       -2.345124   -0.474799    0.322414
      5          6           0       -2.697128    0.532121    1.219909
      6          6           0       -3.509746    1.572505    0.759692
      7          1           0       -4.583774    2.406285   -0.915895
      8          1           0       -3.925011    0.583373   -2.474245
      9          1           0       -2.468778   -1.287591   -1.662478
     10          1           0       -2.339998    0.490534    2.241744
     11          1           0       -3.795811    2.367298    1.442712
     12          7           0       -1.485223   -1.581470    0.798069
     13          8           0       -1.123633   -1.552709    1.972404
     14          8           0       -1.189103   -2.456686   -0.012454
     15          6           0        2.548492    2.765551    0.251640
     16          6           0        1.708856    2.273727   -0.753170
     17          6           0        1.666549    0.905320   -1.036402
     18          6           0        2.480887    0.053312   -0.291939
     19          6           0        3.327916    0.512823    0.715375
     20          6           0        3.353922    1.885081    0.981419
     21          1           0        2.575025    3.830058    0.464986
     22          1           0        1.082251    2.955178   -1.321531
     23          1           0        1.025777    0.497651   -1.808824
     24          1           0        3.940981   -0.191065    1.265021
     25          1           0        4.006963    2.264217    1.762341
     26          7           0        2.444727   -1.397398   -0.582686
     27          8           0        3.171924   -2.127264    0.087475
     28          8           0        1.689871   -1.777129   -1.475230
 ---------------------------------------------------------------------

 SCF Done:  E(RHF) =  -868.335824631     A.U. after   16 cycles
 E2 =    -0.2601942277D+01 EUMP2 =    -0.87093776690812D+03

 The electronic state is 1-A.
 Alpha  occ. eigenvalues --  -20.60442 -20.60305 -20.59979 -20.59926 -15.85418
 Alpha  occ. eigenvalues --  -15.85013 -11.31115 -11.30740 -11.27732 -11.27680
 Alpha  occ. eigenvalues --  -11.27533 -11.27386 -11.27307 -11.27171 -11.26817
 Alpha  occ. eigenvalues --  -11.26792 -11.26488 -11.26423  -1.59452  -1.59002
 Alpha  occ. eigenvalues --   -1.38988  -1.38555  -1.19322  -1.18943  -1.08660
 Alpha  occ. eigenvalues --   -1.08275  -1.04763  -1.04403  -0.95434  -0.95050
 Alpha  occ. eigenvalues --   -0.86142  -0.85788  -0.82255  -0.81884  -0.77248
 Alpha  occ. eigenvalues --   -0.76868  -0.71642  -0.71241  -0.70900  -0.70414
 Alpha  occ. eigenvalues --   -0.70198  -0.70063  -0.64956  -0.64761  -0.64593
 Alpha  occ. eigenvalues --   -0.64419  -0.62090  -0.61752  -0.55258  -0.54907
 Alpha  occ. eigenvalues --   -0.53112  -0.52847  -0.52693  -0.52505  -0.48428
 Alpha  occ. eigenvalues --   -0.48378  -0.48010  -0.47969  -0.44532  -0.43621
 Alpha  occ. eigenvalues --   -0.37352  -0.36937  -0.36392  -0.36008
 Alpha virt. eigenvalues --    0.05244   0.05721   0.11222   0.11634   0.16686
 Alpha virt. eigenvalues --    0.17139   0.21381   0.21690   0.27251   0.27554
 Alpha virt. eigenvalues --    0.28270   0.28636   0.30807   0.31234   0.32449

 Mulliken charges:
               1
     1  C   -0.173054
     2  C   -0.220641
     3  C   -0.174416
     4  C    0.158084
     5  C   -0.171203
     6  C   -0.219562
     7  H    0.224008
     8  H    0.223202
     9  H    0.281530
    10  H    0.275380
    11  H    0.221767
    12  N    0.484107
    13  O   -0.464389
    14  O   -0.444470
    15  C   -0.172562
    16  C   -0.217774
    17  C   -0.174311
    18  C    0.161327
    19  C   -0.168539
    20  C   -0.218257
    21  H    0.222394
    22  H    0.219172
    23  H    0.272174
    24  H    0.277324
    25  H    0.222308
    26  N    0.489828
    27  O   -0.458188
    28  O   -0.455240
 Sum of Mulliken charges =  -0.00000

 Dipole moment (field-independent basis, Debye):
    X=             -2.8266    Y=              8.6124    Z=             -0.6668  Tot=              9.0889
 Quadrupole moment (field-independent basis, Debye-Ang):
   XX=            -89.1739   YY=           -108.1241   ZZ=           -100.4770
   XY=              4.3156   XZ=              8.7734   YZ=              2.4036

 Normal termination of Gaussian 16 at Fri May  7 00:25:13 2021.
