 Gaussian 16, Revision A.03,
 Gaussian 16:  EM64L-G16RevA.03 25-Dec-2016

 -------------
 #p 6-31g* mp2
 -------------

 ------------------------------------------------------
 Input file generated by CHIRIPA (05-May-2021 14:55:19)
 ------------------------------------------------------
 Symbolic Z-matrix:
 Charge =  0 Multiplicity = 1

                         Standard orientation:
 ---------------------------------------------------------------------
 Center     Atomic      Atomic             Coordinates (Angstroms)
 Number     Number       Type             X           Y           Z
 ---------------------------------------------------------------------
      1          6           0       -3.991490    2.391058    0.037562
      2          6           0       -3.783361    1.724876    1.249752
      3          6           0       -3.341943    0.398419    1.264270
      4          6           0       -3.117557   -0.234300    0.042547
      5          6           0       -3.315766    0.402488   -1.181587
      6          6           0       -3.757441    1.728905   -1.172106
      7          1           0       -4.334494    3.421466    0.035605
      8          1           0       -3.964312    2.236615    2.190722
      9          1           0       -3.172739   -0.141092    2.188237
     10          1           0       -3.126806   -0.133951   -2.103511
     11          1           0       -3.918230    2.243779   -2.115026
     12          7           0       -2.650111   -1.638539    0.045213
     13          8           0       -2.459669   -2.173751   -1.044703
     14          8           0       -2.483021   -2.177381    1.137169
     15          6           0        4.699794    0.387896   -0.304564
     16          6           0        5.949665    0.162148    0.546816
     17          6           0        7.163081    0.937471    0.032725
     18          1           0        4.912214    0.093765   -1.341534
     19          1           0        4.467949    1.461769   -0.325505
     20          1           0        6.178284   -0.911133    0.567281
     21          1           0        5.734186    0.456670    1.581920
     22          1           0        6.959438    2.013163    0.028613
     23          1           0        7.406057    0.637589   -0.991791
     24          1           0        8.045390    0.761599    0.655991
     25          6           0        3.478375   -0.380562    0.196768
     26          6           0        2.228504   -0.154814   -0.654611
     27          6           0        1.015088   -0.930138   -0.140520
     28          1           0        3.710221   -1.454436    0.217711
     29          1           0        3.265956   -0.086432    1.233740
     30          1           0        2.443982   -0.449336   -1.689715
     31          1           0        1.999885    0.918467   -0.675076
     32          1           0        0.772111   -0.630256    0.883996
     33          1           0        1.218731   -2.005830   -0.136408
     34          1           0        0.132779   -0.754265   -0.763786
 ---------------------------------------------------------------------

 SCF Done:  E(RHF) =  -669.535861109     A.U. after   15 cycles
 E2 =    -0.2091701550D+01 EUMP2 =    -0.67162756265961D+03

 The electronic state is 1-A.
 Alpha  occ. eigenvalues --  -20.60811 -20.60786 -15.85824 -11.31203 -11.27772
 Alpha  occ. eigenvalues --  -11.27766 -11.27516 -11.26795 -11.26785 -11.21383
 Alpha  occ. eigenvalues --  -11.21169 -11.21124 -11.21001 -11.20907 -11.20388
 Alpha  occ. eigenvalues --   -1.59855  -1.39413  -1.19375  -1.08770  -1.08106
 Alpha  occ. eigenvalues --   -1.04781  -1.03173  -0.95613  -0.95602  -0.86625
 Alpha  occ. eigenvalues --   -0.86179  -0.82439  -0.79248  -0.77918  -0.77485
 Alpha  occ. eigenvalues --   -0.72057  -0.71175  -0.70486  -0.65031  -0.64786
 Alpha  occ. eigenvalues --   -0.64739  -0.62130  -0.60569  -0.58994  -0.57225
 Alpha  occ. eigenvalues --   -0.55284  -0.54889  -0.53108  -0.52875  -0.52299
 Alpha  occ. eigenvalues --   -0.52025  -0.49542  -0.48817  -0.48812  -0.47561
 Alpha  occ. eigenvalues --   -0.46286  -0.45460  -0.45386  -0.44793  -0.43407
 Alpha  occ. eigenvalues --   -0.37349  -0.36383
 Alpha virt. eigenvalues --    0.05049   0.11226   0.16508   0.21393   0.23171
 Alpha virt. eigenvalues --    0.24632   0.26963   0.27286   0.27812   0.27974
 Alpha virt. eigenvalues --    0.28497   0.30769   0.31652   0.31913   0.32137

 Mulliken charges:
               1
     1  C   -0.170850
     2  C   -0.218556
     3  C   -0.170964
     4  C    0.158656
     5  C   -0.172591
     6  C   -0.218325
     7  H    0.225600
     8  H    0.223444
     9  H    0.275634
    10  H    0.275703
    11  H    0.223537
    12  N    0.490709
    13  O   -0.459736
    14  O   -0.458551
    15  C   -0.297823
    16  C   -0.299416
    17  C   -0.475477
    18  H    0.149446
    19  H    0.147464
    20  H    0.152699
    21  H    0.151316
    22  H    0.154052
    23  H    0.155070
    24  H    0.159750
    25  C   -0.297971
    26  C   -0.300239
    27  C   -0.477249
    28  H    0.151454
    29  H    0.148556
    30  H    0.151793
    31  H    0.147010
    32  H    0.152766
    33  H    0.164691
    34  H    0.158400
 Sum of Mulliken charges =  -0.00000

 Dipole moment (field-independent basis, Debye):
    X=             -1.7481    Y=              4.8457    Z=              0.0116  Tot=              5.1514
 Quadrupole moment (field-independent basis, Debye-Ang):
   XX=            -86.5270   YY=            -97.1871   ZZ=            -89.4793
   XY=            -16.2000   XZ=             -0.0530   YZ=              0.8113

 Normal termination of Gaussian 16 at Thu May  6 20:37:41 2021.
