 Gaussian 16, Revision A.03,
 Gaussian 16:  EM64L-G16RevA.03 25-Dec-2016

 -------------
 #p 6-31g* mp2
 -------------

 ------------------------------------------------------
 Input file generated by CHIRIPA (05-May-2021 14:55:21)
 ------------------------------------------------------
 Symbolic Z-matrix:
 Charge =  0 Multiplicity = 1

                         Standard orientation:
 ---------------------------------------------------------------------
 Center     Atomic      Atomic             Coordinates (Angstroms)
 Number     Number       Type             X           Y           Z
 ---------------------------------------------------------------------
      1          6           0       -2.339668   -1.987722    1.152613
      2          6           0       -3.312330   -1.619488    0.217277
      3          6           0       -3.346673   -0.319995   -0.297201
      4          6           0       -2.388811    0.589874    0.147689
      5          6           0       -1.407185    0.253330    1.078516
      6          6           0       -1.391871   -1.051788    1.579495
      7          1           0       -2.320380   -2.999384    1.547029
      8          1           0       -4.049654   -2.344255   -0.116056
      9          1           0       -4.088611   -0.008152   -1.022252
     10          1           0       -0.685387    0.997864    1.391720
     11          1           0       -0.635329   -1.334957    2.305791
     12          7           0       -2.415096    1.968566   -0.389820
     13          8           0       -1.560069    2.751546    0.018236
     14          8           0       -3.290227    2.240100   -1.208998
     15          6           0        3.549138    0.093345   -0.462351
     16          6           0        4.222437    0.679884    0.778867
     17          6           0        5.213977    1.794166    0.442687
     18          1           0        4.320760   -0.293283   -1.142104
     19          1           0        3.029930    0.896523   -1.003390
     20          1           0        4.739064   -0.124412    1.318148
     21          1           0        3.449112    1.064987    1.455831
     22          1           0        4.708930    2.615941   -0.075207
     23          1           0        6.006210    1.419784   -0.213672
     24          1           0        5.683662    2.199169    1.344478
     25          6           0        2.555127   -1.021724   -0.142518
     26          6           0        1.881828   -1.608264   -1.383738
     27          6           0        0.890288   -2.722546   -1.047555
     28          1           0        3.074335   -1.824903    0.398520
     29          1           0        1.783505   -0.635098    0.537234
     30          1           0        2.655153   -1.993367   -2.060701
     31          1           0        1.365202   -0.803969   -1.923017
     32          1           0        0.098055   -2.348165   -0.391197
     33          1           0        1.395336   -3.544322   -0.529662
     34          1           0        0.420602   -3.127550   -1.949348
 ---------------------------------------------------------------------

 SCF Done:  E(RHF) =  -669.534637568     A.U. after   15 cycles
 E2 =    -0.2093776219D+01 EUMP2 =    -0.67162841378679D+03

 The electronic state is 1-A.
 Alpha  occ. eigenvalues --  -20.60867 -20.60862 -15.85922 -11.31319 -11.27884
 Alpha  occ. eigenvalues --  -11.27880 -11.27600 -11.26894 -11.26877 -11.21747
 Alpha  occ. eigenvalues --  -11.21722 -11.21646 -11.21461 -11.21152 -11.21067
 Alpha  occ. eigenvalues --   -1.59942  -1.39495  -1.19501  -1.08890  -1.08579
 Alpha  occ. eigenvalues --   -1.04905  -1.03642  -0.96104  -0.95707  -0.87123
 Alpha  occ. eigenvalues --   -0.86290  -0.82538  -0.79725  -0.78421  -0.77578
 Alpha  occ. eigenvalues --   -0.72138  -0.71266  -0.70585  -0.65231  -0.65136
 Alpha  occ. eigenvalues --   -0.64888  -0.62239  -0.61063  -0.59473  -0.57734
 Alpha  occ. eigenvalues --   -0.55474  -0.55379  -0.53313  -0.52978  -0.52778
 Alpha  occ. eigenvalues --   -0.52448  -0.50011  -0.48900  -0.48892  -0.48029
 Alpha  occ. eigenvalues --   -0.46745  -0.45961  -0.45865  -0.44893  -0.43917
 Alpha  occ. eigenvalues --   -0.37398  -0.36441
 Alpha virt. eigenvalues --    0.04902   0.11099   0.16283   0.20550   0.22885
 Alpha virt. eigenvalues --    0.24272   0.25402   0.26977   0.27580   0.28302
 Alpha virt. eigenvalues --    0.29260   0.30655   0.31459   0.31758   0.31980

 Mulliken charges:
               1
     1  C   -0.170457
     2  C   -0.216693
     3  C   -0.170829
     4  C    0.158540
     5  C   -0.169660
     6  C   -0.221466
     7  H    0.227580
     8  H    0.224449
     9  H    0.276230
    10  H    0.275942
    11  H    0.226335
    12  N    0.488039
    13  O   -0.460359
    14  O   -0.459878
    15  C   -0.299561
    16  C   -0.298914
    17  C   -0.476247
    18  H    0.150526
    19  H    0.155041
    20  H    0.150245
    21  H    0.149111
    22  H    0.158990
    23  H    0.155210
    24  H    0.160219
    25  C   -0.298477
    26  C   -0.298227
    27  C   -0.486376
    28  H    0.147413
    29  H    0.141834
    30  H    0.152510
    31  H    0.155305
    32  H    0.164458
    33  H    0.149983
    34  H    0.159187
 Sum of Mulliken charges =  -0.00000

 Dipole moment (field-independent basis, Debye):
    X=             -0.0200    Y=             -4.7725    Z=              1.8741  Tot=              5.1273
 Quadrupole moment (field-independent basis, Debye-Ang):
   XX=            -92.0400   YY=           -101.2649   ZZ=            -93.1309
   XY=             12.1975   XZ=             -2.1612   YZ=              1.0611

 Normal termination of Gaussian 16 at Thu May  6 02:59:17 2021.
