 Gaussian 16, Revision A.03,
 Gaussian 16:  EM64L-G16RevA.03 25-Dec-2016

 -------------
 #p 6-31g* mp2
 -------------

 ------------------------------------------------------
 Input file generated by CHIRIPA (05-May-2021 14:55:20)
 ------------------------------------------------------
 Symbolic Z-matrix:
 Charge =  0 Multiplicity = 1

                         Standard orientation:
 ---------------------------------------------------------------------
 Center     Atomic      Atomic             Coordinates (Angstroms)
 Number     Number       Type             X           Y           Z
 ---------------------------------------------------------------------
      1          6           0       -1.063215    1.258404   -0.089959
      2          6           0       -1.044928   -0.103627    0.227937
      3          6           0       -2.233698   -0.837953    0.274166
      4          6           0       -3.428190   -0.175416   -0.004268
      5          6           0       -3.479083    1.180453   -0.324139
      6          6           0       -2.278092    1.894975   -0.364498
      7          1           0       -0.135003    1.821154   -0.123591
      8          1           0       -0.102911   -0.600614    0.441601
      9          1           0       -2.248371   -1.893412    0.517496
     10          1           0       -4.433648    1.648289   -0.532351
     11          1           0       -2.295316    2.952640   -0.611671
     12          7           0       -4.693156   -0.942332    0.041566
     13          8           0       -5.732404   -0.335346   -0.207771
     14          8           0       -4.621436   -2.135903    0.325959
     15          6           0        4.034236   -0.696086    0.021545
     16          6           0        5.337247   -1.457883   -0.223018
     17          6           0        5.146992   -2.974902   -0.207246
     18          1           0        3.612711   -1.004163    0.988162
     19          1           0        3.300780   -0.982558   -0.744856
     20          1           0        6.068479   -1.169021    0.542798
     21          1           0        5.755819   -1.147815   -1.189078
     22          1           0        4.437446   -3.282248   -0.982286
     23          1           0        4.751882   -3.303574    0.759431
     24          1           0        6.090976   -3.499762   -0.384093
     25          6           0        4.208216    0.821575    0.008720
     26          6           0        2.905205    1.583373    0.253283
     27          6           0        3.095461    3.100393    0.237511
     28          1           0        4.941672    1.108048    0.775121
     29          1           0        4.629742    1.129653   -0.957898
     30          1           0        2.486633    1.273304    1.219343
     31          1           0        2.173973    1.294511   -0.512533
     32          1           0        3.490569    3.429064   -0.729166
     33          1           0        3.805006    3.407738    1.012550
     34          1           0        2.151476    3.625252    0.414358
 ---------------------------------------------------------------------

 SCF Done:  E(RHF) =  -669.535613191     A.U. after   15 cycles
 E2 =    -0.2091610779D+01 EUMP2 =    -0.67162722397004D+03

 The electronic state is 1-A.
 Alpha  occ. eigenvalues --  -20.60698 -20.60693 -15.85751 -11.31097 -11.27667
 Alpha  occ. eigenvalues --  -11.27660 -11.27337 -11.26666 -11.26641 -11.22975
 Alpha  occ. eigenvalues --  -11.22427 -11.22350 -11.22301 -11.22293 -11.21671
 Alpha  occ. eigenvalues --   -1.59774  -1.39328  -1.19263  -1.09449  -1.08654
 Alpha  occ. eigenvalues --   -1.04665  -1.04526  -0.96940  -0.95496  -0.87953
 Alpha  occ. eigenvalues --   -0.86059  -0.82338  -0.80640  -0.79249  -0.77384
 Alpha  occ. eigenvalues --   -0.71969  -0.71098  -0.70377  -0.66065  -0.64911
 Alpha  occ. eigenvalues --   -0.64667  -0.62016  -0.61906  -0.60365  -0.58582
 Alpha  occ. eigenvalues --   -0.56199  -0.55111  -0.53644  -0.53362  -0.52996
 Alpha  occ. eigenvalues --   -0.52750  -0.50866  -0.48917  -0.48726  -0.48724
 Alpha  occ. eigenvalues --   -0.47652  -0.46769  -0.46670  -0.44771  -0.44739
 Alpha  occ. eigenvalues --   -0.37233  -0.36275
 Alpha virt. eigenvalues --    0.05139   0.11358   0.16617   0.19489   0.22280
 Alpha virt. eigenvalues --    0.23345   0.24807   0.25590   0.25918   0.28430
 Alpha virt. eigenvalues --    0.29193   0.30435   0.30649   0.31120   0.32456

 Mulliken charges:
               1
     1  C   -0.177931
     2  C   -0.223167
     3  C   -0.170949
     4  C    0.158163
     5  C   -0.170815
     6  C   -0.219905
     7  H    0.237499
     8  H    0.225447
     9  H    0.275264
    10  H    0.275146
    11  H    0.223180
    12  N    0.488049
    13  O   -0.460718
    14  O   -0.460715
    15  C   -0.300599
    16  C   -0.300269
    17  C   -0.476583
    18  H    0.148607
    19  H    0.148298
    20  H    0.153977
    21  H    0.153962
    22  H    0.155859
    23  H    0.155672
    24  H    0.163219
    25  C   -0.297315
    26  C   -0.308986
    27  C   -0.477731
    28  H    0.153714
    29  H    0.153260
    30  H    0.152765
    31  H    0.146058
    32  H    0.159855
    33  H    0.161777
    34  H    0.155912
 Sum of Mulliken charges =  -0.00000

 Dipole moment (field-independent basis, Debye):
    X=              4.7932    Y=              2.7069    Z=             -0.1584  Tot=              5.5070
 Quadrupole moment (field-independent basis, Debye-Ang):
   XX=           -123.2326   YY=            -93.4500   ZZ=            -94.2694
   XY=            -12.4133   XZ=              1.4460   YZ=             -1.1648

 Normal termination of Gaussian 16 at Thu May  6 15:47:36 2021.
