 Gaussian 16, Revision A.03,
 Gaussian 16:  EM64L-G16RevA.03 25-Dec-2016

 -------------
 #p 6-31g* mp2
 -------------

 ------------------------------------------------------
 Input file generated by CHIRIPA (05-May-2021 14:51:14)
 ------------------------------------------------------
 Symbolic Z-matrix:
 Charge =  0 Multiplicity = 1

                         Standard orientation:
 ---------------------------------------------------------------------
 Center     Atomic      Atomic             Coordinates (Angstroms)
 Number     Number       Type             X           Y           Z
 ---------------------------------------------------------------------
      1          6           0        3.137343   -0.268482   -0.242244
      2          6           0        4.451288   -0.976689   -0.573871
      3          6           0        4.287515   -2.490196   -0.716232
      4          1           0        2.729302   -0.683812    0.689393
      5          1           0        2.402600   -0.486256   -1.029723
      6          1           0        5.183761   -0.756516    0.213290
      7          1           0        4.856345   -0.559491   -1.504726
      8          1           0        3.576968   -2.727387   -1.514645
      9          1           0        3.906244   -2.925531    0.213132
     10          1           0        5.238955   -2.976420   -0.953316
     11          6           0        3.284856    1.245060   -0.096782
     12          6           0        1.970911    1.953267    0.234845
     13          6           0        2.134684    3.466775    0.377206
     14          1           0        4.019599    1.462835    0.690697
     15          1           0        3.692897    1.660390   -1.028419
     16          1           0        1.565854    1.536070    1.165700
     17          1           0        1.238438    1.733095   -0.552316
     18          1           0        2.515955    3.902110   -0.552158
     19          1           0        2.845231    3.703965    1.175620
     20          1           0        1.183244    3.952998    0.614290
     21          6           0       -2.798653   -0.982406    0.580814
     22          6           0       -1.295754   -0.704891    0.533202
     23          6           0       -0.484014   -1.701803    1.360871
     24          1           0       -3.137180   -0.955173    1.625612
     25          1           0       -2.987880   -2.001977    0.217410
     26          1           0       -1.109550    0.314344    0.895285
     27          1           0       -0.960802   -0.732598   -0.511622
     28          1           0       -0.640371   -2.722343    0.996659
     29          1           0       -0.789966   -1.669453    2.411560
     30          1           0        0.587661   -1.484874    1.312750
     31          6           0       -3.623546    0.005827   -0.241788
     32          6           0       -5.126444   -0.271687   -0.194176
     33          6           0       -5.938186    0.725224   -1.021845
     34          1           0       -3.434319    1.025399    0.121616
     35          1           0       -3.285019   -0.021406   -1.286587
     36          1           0       -5.461398   -0.243980    0.850647
     37          1           0       -5.312648   -1.290922   -0.556259
     38          1           0       -5.632233    0.692875   -2.072535
     39          1           0       -5.781827    1.745766   -0.657634
     40          1           0       -7.009860    0.508295   -0.973724
 ---------------------------------------------------------------------

 SCF Done:  E(RHF) =  -470.733093986     A.U. after   11 cycles
 E2 =    -0.1583543426D+01 EUMP2 =    -0.47231663741238D+03

 The electronic state is 1-A.
 Alpha  occ. eigenvalues --  -11.21620 -11.21591 -11.21582 -11.21519 -11.21427
 Alpha  occ. eigenvalues --  -11.21369 -11.21367 -11.21306 -11.21079 -11.21077
 Alpha  occ. eigenvalues --  -11.21059 -11.20958  -1.08460  -1.08380  -1.03541
 Alpha  occ. eigenvalues --   -1.03479  -0.96003  -0.95925  -0.87022  -0.86939
 Alpha  occ. eigenvalues --   -0.79661  -0.79488  -0.78322  -0.78154  -0.65099
 Alpha  occ. eigenvalues --   -0.65010  -0.60947  -0.60870  -0.59366  -0.59317
 Alpha  occ. eigenvalues --   -0.57684  -0.57476  -0.55283  -0.55221  -0.52755
 Alpha  occ. eigenvalues --   -0.52636  -0.52442  -0.52277  -0.49932  -0.49876
 Alpha  occ. eigenvalues --   -0.48085  -0.47719  -0.46651  -0.46564  -0.45879
 Alpha  occ. eigenvalues --   -0.45777  -0.45615  -0.45600  -0.43802  -0.43690
 Alpha virt. eigenvalues --    0.21192   0.23155   0.23908   0.24032   0.25402
 Alpha virt. eigenvalues --    0.26283   0.26681   0.27781   0.28154   0.29358
 Alpha virt. eigenvalues --    0.30441   0.31374   0.31453   0.31814   0.32172

 Mulliken charges:
               1
     1  C   -0.304105
     2  C   -0.299048
     3  C   -0.475902
     4  H    0.154484
     5  H    0.150335
     6  H    0.151920
     7  H    0.152024
     8  H    0.155195
     9  H    0.155418
    10  H    0.160364
    11  C   -0.298032
    12  C   -0.302351
    13  C   -0.475769
    14  H    0.149335
    15  H    0.149715
    16  H    0.153477
    17  H    0.154349
    18  H    0.155230
    19  H    0.155065
    20  H    0.160079
    21  C   -0.298522
    22  C   -0.300108
    23  C   -0.483040
    24  H    0.149401
    25  H    0.149300
    26  H    0.154295
    27  H    0.151391
    28  H    0.154751
    29  H    0.153972
    30  H    0.167289
    31  C   -0.298119
    32  C   -0.299579
    33  C   -0.475670
    34  H    0.149382
    35  H    0.149295
    36  H    0.151903
    37  H    0.151896
    38  H    0.155070
    39  H    0.155121
    40  H    0.160191
 Sum of Mulliken charges =  -0.00000

 Dipole moment (field-independent basis, Debye):
    X=              0.0411    Y=              0.0138    Z=             -0.0106  Tot=              0.0447
 Quadrupole moment (field-independent basis, Debye-Ang):
   XX=            -85.3239   YY=            -86.0818   ZZ=            -83.4356
   XY=              0.3905   XZ=             -0.2662   YZ=              0.6215

 Normal termination of Gaussian 16 at Wed May  5 20:02:37 2021.
