 Gaussian 16, Revision A.03,
 Gaussian 16:  EM64L-G16RevA.03 25-Dec-2016

 -------------
 #p 6-31g* mp2
 -------------

 ------------------------------------------------------
 Input file generated by CHIRIPA (05-May-2021 14:55:24)
 ------------------------------------------------------
 Symbolic Z-matrix:
 Charge =  0 Multiplicity = 1

                         Standard orientation:
 ---------------------------------------------------------------------
 Center     Atomic      Atomic             Coordinates (Angstroms)
 Number     Number       Type             X           Y           Z
 ---------------------------------------------------------------------
      1          6           0       -5.283664   -0.519802    0.298442
      2          6           0       -4.395884   -1.575888    0.528769
      3          6           0       -3.023490   -1.407720    0.321880
      4          6           0       -2.571299   -0.164479   -0.117626
      5          6           0       -3.430689    0.906943   -0.355940
      6          6           0       -4.799087    0.716064   -0.142400
      7          1           0       -6.348220   -0.659260    0.461741
      8          1           0       -4.769382   -2.536780    0.871159
      9          1           0       -2.314029   -2.208349    0.492397
     10          1           0       -3.028542    1.853194   -0.696974
     11          1           0       -5.486225    1.538012   -0.322092
     12          7           0       -1.120522    0.025574   -0.340171
     13          8           0       -0.747323    1.130676   -0.727610
     14          8           0       -0.384073   -0.934162   -0.122948
     15          6           0        4.193200   -0.215129    0.210518
     16          6           0        3.950661   -1.636582   -0.298041
     17          6           0        5.151807   -2.556483   -0.077079
     18          1           0        5.074743    0.202787   -0.294627
     19          1           0        4.435284   -0.252716    1.281676
     20          1           0        3.707749   -1.596202   -1.367611
     21          1           0        3.069478   -2.051093    0.208234
     22          1           0        5.392531   -2.626482    0.988637
     23          1           0        6.034427   -2.169007   -0.596160
     24          1           0        4.956741   -3.567554   -0.447949
     25          6           0        3.001436    0.716383   -0.003291
     26          6           0        3.243975    2.137835    0.505268
     27          6           0        2.042829    3.057736    0.284306
     28          1           0        2.759353    0.753970   -1.074449
     29          1           0        2.119893    0.298467    0.501855
     30          1           0        4.125158    2.552346   -0.001006
     31          1           0        3.486888    2.097456    1.574838
     32          1           0        1.160209    2.670261    0.803387
     33          1           0        1.802105    3.127736   -0.781410
     34          1           0        2.237896    4.068807    0.655176
 ---------------------------------------------------------------------

 SCF Done:  E(RHF) =  -669.536008314     A.U. after   15 cycles
 E2 =    -0.2092730630D+01 EUMP2 =    -0.67162873894396D+03

 The electronic state is 1-A.
 Alpha  occ. eigenvalues --  -20.61102 -20.61093 -15.86096 -11.31385 -11.27940
 Alpha  occ. eigenvalues --  -11.27934 -11.27668 -11.26934 -11.26924 -11.20172
 Alpha  occ. eigenvalues --  -11.20000 -11.19959 -11.19859 -11.19288 -11.19267
 Alpha  occ. eigenvalues --   -1.60140  -1.39698  -1.19546  -1.08959  -1.06778
 Alpha  occ. eigenvalues --   -1.04934  -1.01997  -0.95805  -0.94437  -0.86337
 Alpha  occ. eigenvalues --   -0.85452  -0.82642  -0.78072  -0.77699  -0.76495
 Alpha  occ. eigenvalues --   -0.72311  -0.71451  -0.70653  -0.65201  -0.64935
 Alpha  occ. eigenvalues --   -0.63433  -0.62280  -0.59422  -0.57837  -0.56026
 Alpha  occ. eigenvalues --   -0.55440  -0.53740  -0.53269  -0.53023  -0.51216
 Alpha  occ. eigenvalues --   -0.50835  -0.49192  -0.49075  -0.48363  -0.46350
 Alpha  occ. eigenvalues --   -0.45206  -0.44979  -0.44032  -0.43839  -0.42210
 Alpha  occ. eigenvalues --   -0.37520  -0.36532
 Alpha virt. eigenvalues --    0.04789   0.11123   0.16284   0.21257   0.24399
 Alpha virt. eigenvalues --    0.25788   0.27188   0.28044   0.28337   0.29270
 Alpha virt. eigenvalues --    0.29453   0.30886   0.32371   0.32854   0.33051

 Mulliken charges:
               1
     1  C   -0.170398
     2  C   -0.218583
     3  C   -0.170612
     4  C    0.158564
     5  C   -0.170815
     6  C   -0.218591
     7  H    0.226343
     8  H    0.224123
     9  H    0.275860
    10  H    0.276303
    11  H    0.224221
    12  N    0.488445
    13  O   -0.457107
    14  O   -0.458764
    15  C   -0.298177
    16  C   -0.298236
    17  C   -0.474794
    18  H    0.142926
    19  H    0.143160
    20  H    0.151308
    21  H    0.158968
    22  H    0.151739
    23  H    0.151847
    24  H    0.155952
    25  C   -0.299198
    26  C   -0.300589
    27  C   -0.469152
    28  H    0.151553
    29  H    0.169786
    30  H    0.144000
    31  H    0.143824
    32  H    0.160809
    33  H    0.158727
    34  H    0.146556
 Sum of Mulliken charges =  -0.00000

 Dipole moment (field-independent basis, Debye):
    X=             -5.6849    Y=             -0.7703    Z=              0.6830  Tot=              5.7773
 Quadrupole moment (field-independent basis, Debye-Ang):
   XX=            -71.4899   YY=            -91.6855   ZZ=            -94.6889
   XY=              2.1766   XZ=             -1.9160   YZ=             -2.0813

 Normal termination of Gaussian 16 at Thu May  6 06:21:26 2021.
