 Gaussian 16, Revision A.03,
 Gaussian 16:  EM64L-G16RevA.03 25-Dec-2016

 -------------
 #p 6-31g* mp2
 -------------

 ------------------------------------------------------
 Input file generated by CHIRIPA (05-May-2021 14:53:17)
 ------------------------------------------------------
 Symbolic Z-matrix:
 Charge =  0 Multiplicity = 1

                         Standard orientation:
 ---------------------------------------------------------------------
 Center     Atomic      Atomic             Coordinates (Angstroms)
 Number     Number       Type             X           Y           Z
 ---------------------------------------------------------------------
      1          6           0        4.400662    0.231945   -0.081099
      2          6           0        5.900335    0.107103   -0.351988
      3          6           0        6.573198    1.459789   -0.587125
      4          1           0        3.922031    0.738460   -0.930393
      5          1           0        4.245832    0.876761    0.795049
      6          1           0        6.052346   -0.538407   -1.226531
      7          1           0        6.375422   -0.399345    0.497964
      8          1           0        6.451015    2.107912    0.286722
      9          1           0        6.126103    1.968060   -1.447571
     10          1           0        7.644850    1.347188   -0.778813
     11          6           0        3.713927   -1.111909    0.155925
     12          6           0        2.214254   -0.987067    0.426814
     13          6           0        1.541391   -2.339753    0.661951
     14          1           0        3.868757   -1.756725   -0.720223
     15          1           0        4.192558   -1.618424    1.005218
     16          1           0        1.739167   -0.480619   -0.423139
     17          1           0        2.062243   -0.341557    1.301357
     18          1           0        1.988486   -2.848024    1.522397
     19          1           0        1.663575   -2.987876   -0.211897
     20          1           0        0.469740   -2.227152    0.853639
     21          6           0       -2.046360    2.554823    0.434438
     22          6           0       -3.405292    2.515495    0.105384
     23          6           0       -4.038130    1.296054   -0.153513
     24          6           0       -3.278368    0.129976   -0.074055
     25          6           0       -1.922860    0.136448    0.251289
     26          6           0       -1.310778    1.367267    0.506215
     27          1           0       -1.562819    3.506534    0.634013
     28          1           0       -3.979041    3.436184    0.048906
     29          1           0       -5.088785    1.236744   -0.410464
     30          1           0       -1.377119   -0.798018    0.299844
     31          1           0       -0.255269    1.394784    0.761531
     32          7           0       -3.937338   -1.167014   -0.346035
     33          8           0       -3.245868   -2.180250   -0.269493
     34          8           0       -5.132833   -1.145802   -0.630605
 ---------------------------------------------------------------------

 SCF Done:  E(RHF) =  -669.535578728     A.U. after   15 cycles
 E2 =    -0.2091652507D+01 EUMP2 =    -0.67162723123497D+03

 The electronic state is 1-A.
 Alpha  occ. eigenvalues --  -20.60725 -20.60720 -15.85775 -11.31125 -11.27699
 Alpha  occ. eigenvalues --  -11.27670 -11.27433 -11.26717 -11.26667 -11.22388
 Alpha  occ. eigenvalues --  -11.22027 -11.21961 -11.21897 -11.21616 -11.21458
 Alpha  occ. eigenvalues --   -1.59800  -1.39354  -1.19297  -1.08996  -1.08696
 Alpha  occ. eigenvalues --   -1.04699  -1.04078  -0.96496  -0.95533  -0.87506
 Alpha  occ. eigenvalues --   -0.86095  -0.82365  -0.80161  -0.78818  -0.77412
 Alpha  occ. eigenvalues --   -0.71996  -0.71122  -0.70421  -0.65615  -0.64948
 Alpha  occ. eigenvalues --   -0.64703  -0.62129  -0.61459  -0.59840  -0.58115
 Alpha  occ. eigenvalues --   -0.55750  -0.55199  -0.53231  -0.53040  -0.53021
 Alpha  occ. eigenvalues --   -0.52629  -0.50411  -0.48754  -0.48751  -0.48457
 Alpha  occ. eigenvalues --   -0.47190  -0.46344  -0.46263  -0.44762  -0.44326
 Alpha  occ. eigenvalues --   -0.37282  -0.36297
 Alpha virt. eigenvalues --    0.05108   0.11348   0.16583   0.19465   0.22595
 Alpha virt. eigenvalues --    0.23671   0.25555   0.25961   0.26282   0.28294
 Alpha virt. eigenvalues --    0.29164   0.29703   0.30926   0.31550   0.32332

 Mulliken charges:
               1
     1  C   -0.298861
     2  C   -0.300101
     3  C   -0.476030
     4  H    0.149056
     5  H    0.147302
     6  H    0.153797
     7  H    0.153226
     8  H    0.154588
     9  H    0.155176
    10  H    0.162038
    11  C   -0.297962
    12  C   -0.306801
    13  C   -0.480474
    14  H    0.153409
    15  H    0.152383
    16  H    0.150338
    17  H    0.146976
    18  H    0.159717
    19  H    0.162684
    20  H    0.161269
    21  C   -0.170955
    22  C   -0.218910
    23  C   -0.170216
    24  C    0.158719
    25  C   -0.181074
    26  C   -0.225757
    27  H    0.225514
    28  H    0.223159
    29  H    0.275398
    30  H    0.288097
    31  H    0.228778
    32  N    0.486783
    33  O   -0.460739
    34  O   -0.460527
 Sum of Mulliken charges =  -0.00000

 Dipole moment (field-independent basis, Debye):
    X=              2.5121    Y=              4.4549    Z=              0.9320  Tot=              5.1986
 Quadrupole moment (field-independent basis, Debye-Ang):
   XX=           -106.1832   YY=            -93.3473   ZZ=            -94.6737
   XY=            -18.0462   XZ=             -2.2660   YZ=             -0.4145

 Normal termination of Gaussian 16 at Thu May  6 01:12:27 2021.
