 Gaussian 16, Revision A.03,
 Gaussian 16:  EM64L-G16RevA.03 25-Dec-2016

 -------------
 #p 6-31g* mp2
 -------------

 ------------------------------------------------------
 Input file generated by CHIRIPA (05-May-2021 14:57:21)
 ------------------------------------------------------
 Symbolic Z-matrix:
 Charge =  0 Multiplicity = 1

                         Standard orientation:
 ---------------------------------------------------------------------
 Center     Atomic      Atomic             Coordinates (Angstroms)
 Number     Number       Type             X           Y           Z
 ---------------------------------------------------------------------
      1          6           0        5.759817    1.997937    0.283265
      2          6           0        6.329179    0.731992    0.110843
      3          6           0        5.518387   -0.392760   -0.068315
      4          6           0        4.135828   -0.214383   -0.069704
      5          6           0        3.538559    1.033776    0.099588
      6          6           0        4.368777    2.144531    0.277099
      7          1           0        6.397205    2.866235    0.421799
      8          1           0        7.409168    0.615156    0.115192
      9          1           0        5.932697   -1.384403   -0.204002
     10          1           0        2.458689    1.118743    0.090618
     11          1           0        3.923829    3.126466    0.410773
     12          7           0        3.267196   -1.397698   -0.258498
     13          8           0        2.051932   -1.213952   -0.255808
     14          8           0        3.818074   -2.486521   -0.405590
     15          6           0       -2.013226   -1.065242    0.274994
     16          6           0       -2.110128    0.279575   -0.097299
     17          6           0       -3.360285    0.890880   -0.231327
     18          6           0       -4.498034    0.124213    0.015733
     19          6           0       -4.434240   -1.217620    0.388160
     20          6           0       -3.173546   -1.808237    0.516110
     21          1           0       -1.037982   -1.532082    0.376749
     22          1           0       -1.210702    0.859036   -0.285185
     23          1           0       -3.464201    1.930260   -0.518217
     24          1           0       -5.348672   -1.769528    0.568798
     25          1           0       -3.101320   -2.852820    0.805377
     26          7           0       -5.827097    0.760423   -0.122939
     27          8           0       -6.814395    0.063267    0.100341
     28          8           0       -5.856352    1.944193   -0.452284
 ---------------------------------------------------------------------

 SCF Done:  E(RHF) =  -868.339974945     A.U. after   16 cycles
 E2 =    -0.2598281872D+01 EUMP2 =    -0.87093825681685D+03

 The electronic state is 1-A.
 Alpha  occ. eigenvalues --  -20.61873 -20.61812 -20.60282 -20.60275 -15.86886
 Alpha  occ. eigenvalues --  -15.85332 -11.32003 -11.30527 -11.28586 -11.28505
 Alpha  occ. eigenvalues --  -11.28206 -11.27500 -11.27463 -11.27128 -11.27097
 Alpha  occ. eigenvalues --  -11.26582 -11.26027 -11.25981  -1.60900  -1.59362
 Alpha  occ. eigenvalues --   -1.40467  -1.38920  -1.20143  -1.18676  -1.09576
 Alpha  occ. eigenvalues --   -1.08054  -1.05513  -1.04075  -0.96459  -0.94920
 Alpha  occ. eigenvalues --   -0.86921  -0.85451  -0.83309  -0.81781  -0.78388
 Alpha  occ. eigenvalues --   -0.76895  -0.73130  -0.72201  -0.71551  -0.71248
 Alpha  occ. eigenvalues --   -0.70685  -0.69641  -0.65802  -0.65509  -0.64308
 Alpha  occ. eigenvalues --   -0.64062  -0.62872  -0.61443  -0.56005  -0.54382
 Alpha  occ. eigenvalues --   -0.53846  -0.53602  -0.52395  -0.52155  -0.49886
 Alpha  occ. eigenvalues --   -0.49826  -0.48318  -0.48292  -0.45924  -0.44365
 Alpha  occ. eigenvalues --   -0.38094  -0.37103  -0.36575  -0.35706
 Alpha virt. eigenvalues --    0.04141   0.05664   0.10557   0.11970   0.15690
 Alpha virt. eigenvalues --    0.17219   0.20180   0.22095   0.25728   0.27038
 Alpha virt. eigenvalues --    0.28447   0.29181   0.30519   0.31180   0.32431

 Mulliken charges:
               1
     1  C   -0.169752
     2  C   -0.218264
     3  C   -0.170053
     4  C    0.158460
     5  C   -0.169584
     6  C   -0.218033
     7  H    0.228604
     8  H    0.226208
     9  H    0.277117
    10  H    0.269034
    11  H    0.225308
    12  N    0.493030
    13  O   -0.475257
    14  O   -0.454830
    15  C   -0.176327
    16  C   -0.219921
    17  C   -0.172021
    18  C    0.157062
    19  C   -0.171290
    20  C   -0.220365
    21  H    0.249451
    22  H    0.219470
    23  H    0.271528
    24  H    0.273463
    25  H    0.223909
    26  N    0.488349
    27  O   -0.462001
    28  O   -0.463300
 Sum of Mulliken charges =  -0.00000

 Dipole moment (field-independent basis, Debye):
    X=              8.3337    Y=              1.8211    Z=              1.1781  Tot=              8.6113
 Quadrupole moment (field-independent basis, Debye-Ang):
   XX=           -117.6517   YY=           -101.9759   ZZ=           -106.3042
   XY=             27.4653   XZ=             -0.5205   YZ=             -1.3884

 Normal termination of Gaussian 16 at Wed May  5 17:42:38 2021.
