 Gaussian 16, Revision A.03,
 Gaussian 16:  EM64L-G16RevA.03 25-Dec-2016

 -------------
 #p 6-31g* mp2
 -------------

 ------------------------------------------------------
 Input file generated by CHIRIPA (05-May-2021 14:51:08)
 ------------------------------------------------------
 Symbolic Z-matrix:
 Charge =  0 Multiplicity = 1

                         Standard orientation:
 ---------------------------------------------------------------------
 Center     Atomic      Atomic             Coordinates (Angstroms)
 Number     Number       Type             X           Y           Z
 ---------------------------------------------------------------------
      1          6           0       -3.402913    1.115733   -0.238294
      2          6           0       -1.948676    1.518366    0.008816
      3          6           0       -1.756073    3.034189    0.063399
      4          1           0       -3.745923    1.564531   -1.180562
      5          1           0       -4.033126    1.537965    0.556657
      6          1           0       -1.321204    1.094343   -0.785602
      7          1           0       -1.609029    1.068400    0.950509
      8          1           0       -2.357838    3.470282    0.867329
      9          1           0       -2.068378    3.496374   -0.878647
     10          1           0       -0.709253    3.299737    0.240916
     11          6           0       -3.611474   -0.396538   -0.295470
     12          6           0       -5.065712   -0.799171   -0.542580
     13          6           0       -5.258315   -2.314994   -0.597163
     14          1           0       -2.981262   -0.818770   -1.090421
     15          1           0       -3.268465   -0.845336    0.646799
     16          1           0       -5.405359   -0.349205   -1.484273
     17          1           0       -5.693183   -0.375149    0.251839
     18          1           0       -4.946010   -2.777179    0.344884
     19          1           0       -4.656550   -2.751088   -1.401092
     20          1           0       -6.305134   -2.580542   -0.774680
     21          6           0        4.249623   -0.511469    0.171145
     22          6           0        4.817896    0.041140   -1.136400
     23          6           0        6.304210   -0.270765   -1.313548
     24          1           0        4.816326   -0.094641    1.014974
     25          1           0        4.402781   -1.599210    0.198655
     26          1           0        4.662473    1.127327   -1.162055
     27          1           0        4.249651   -0.376902   -1.977206
     28          1           0        6.473458   -1.352411   -1.314072
     29          1           0        6.888625    0.160366   -0.494289
     30          1           0        6.689847    0.133420   -2.254706
     31          6           0        2.764764   -0.207726    0.362619
     32          6           0        2.196491   -0.760335    1.670164
     33          6           0        0.710178   -0.448429    1.847312
     34          1           0        2.611607    0.880016    0.335108
     35          1           0        2.198062   -0.624554   -0.481210
     36          1           0        2.764735   -0.342292    2.510970
     37          1           0        2.351914   -1.846521    1.695818
     38          1           0        0.125763   -0.879561    1.028052
     39          1           0        0.540930    0.633216    1.847836
     40          1           0        0.324541   -0.852615    2.788470
 ---------------------------------------------------------------------

 SCF Done:  E(RHF) =  -470.732428437     A.U. after   11 cycles
 E2 =    -0.1583215849D+01 EUMP2 =    -0.47231564428544D+03

 The electronic state is 1-A.
 Alpha  occ. eigenvalues --  -11.21603 -11.21582 -11.21573 -11.21420 -11.21402
 Alpha  occ. eigenvalues --  -11.21350 -11.21343 -11.21276 -11.21072 -11.21053
 Alpha  occ. eigenvalues --  -11.21019 -11.21016  -1.08431  -1.08363  -1.03551
 Alpha  occ. eigenvalues --   -1.03445  -0.95993  -0.95918  -0.87034  -0.86917
 Alpha  occ. eigenvalues --   -0.79743  -0.79414  -0.78301  -0.78098  -0.65062
 Alpha  occ. eigenvalues --   -0.64997  -0.60966  -0.60836  -0.59395  -0.59274
 Alpha  occ. eigenvalues --   -0.57693  -0.57436  -0.55294  -0.55185  -0.52701
 Alpha  occ. eigenvalues --   -0.52638  -0.52459  -0.52301  -0.49951  -0.49836
 Alpha  occ. eigenvalues --   -0.48211  -0.47607  -0.46681  -0.46472  -0.45941
 Alpha  occ. eigenvalues --   -0.45723  -0.45636  -0.45383  -0.43779  -0.43721
 Alpha virt. eigenvalues --    0.22008   0.23027   0.23625   0.24707   0.25731
 Alpha virt. eigenvalues --    0.26136   0.26812   0.27569   0.27879   0.29309
 Alpha virt. eigenvalues --    0.30692   0.31366   0.31578   0.31866   0.32254

 Mulliken charges:
               1
     1  C   -0.297699
     2  C   -0.305470
     3  C   -0.476283
     4  H    0.148863
     5  H    0.148984
     6  H    0.150967
     7  H    0.162610
     8  H    0.154769
     9  H    0.154975
    10  H    0.159090
    11  C   -0.298993
    12  C   -0.299493
    13  C   -0.475683
    14  H    0.148734
    15  H    0.150339
    16  H    0.151914
    17  H    0.151932
    18  H    0.155159
    19  H    0.154946
    20  H    0.160163
    21  C   -0.298257
    22  C   -0.299619
    23  C   -0.475702
    24  H    0.149647
    25  H    0.149548
    26  H    0.151910
    27  H    0.151855
    28  H    0.155185
    29  H    0.155192
    30  H    0.160240
    31  C   -0.297992
    32  C   -0.300295
    33  C   -0.478751
    34  H    0.149242
    35  H    0.149541
    36  H    0.151615
    37  H    0.151712
    38  H    0.158645
    39  H    0.157456
    40  H    0.159008
 Sum of Mulliken charges =  -0.00000

 Dipole moment (field-independent basis, Debye):
    X=              0.0124    Y=             -0.0139    Z=              0.0224  Tot=              0.0291
 Quadrupole moment (field-independent basis, Debye-Ang):
   XX=            -86.1103   YY=            -85.3023   ZZ=            -83.6358
   XY=              0.0927   XZ=              0.1368   YZ=              0.3358

 Normal termination of Gaussian 16 at Thu May  6 03:41:18 2021.
