 Gaussian 16, Revision A.03,
 Gaussian 16:  EM64L-G16RevA.03 25-Dec-2016

 -------------
 #p 6-31g* mp2
 -------------

 ------------------------------------------------------
 Input file generated by CHIRIPA (05-May-2021 14:57:26)
 ------------------------------------------------------
 Symbolic Z-matrix:
 Charge =  0 Multiplicity = 1

                         Standard orientation:
 ---------------------------------------------------------------------
 Center     Atomic      Atomic             Coordinates (Angstroms)
 Number     Number       Type             X           Y           Z
 ---------------------------------------------------------------------
      1          6           0        1.139394    0.035969   -1.035901
      2          6           0        1.854104    1.192911   -0.708491
      3          6           0        3.180635    1.109191   -0.275070
      4          6           0        3.763944   -0.153364   -0.180226
      5          6           0        3.078136   -1.324366   -0.499148
      6          6           0        1.752610   -1.216768   -0.930370
      7          1           0        0.109303    0.110279   -1.371739
      8          1           0        1.380430    2.167137   -0.789495
      9          1           0        3.757123    1.988698   -0.015174
     10          1           0        3.577267   -2.281468   -0.408364
     11          1           0        1.199987   -2.116958   -1.183967
     12          7           0        5.167751   -0.254634    0.277454
     13          8           0        5.658894   -1.378812    0.352539
     14          8           0        5.750331    0.792087    0.552432
     15          6           0       -1.453218    1.434250    0.854383
     16          6           0       -1.667094    0.164144    1.399922
     17          6           0       -2.815640   -0.563841    1.075228
     18          6           0       -3.733604    0.011229    0.197774
     19          6           0       -3.548874    1.274409   -0.362171
     20          6           0       -2.393134    1.984359   -0.023375
     21          1           0       -0.558205    1.992761    1.112091
     22          1           0       -0.938853   -0.265573    2.081870
     23          1           0       -3.006238   -1.549105    1.483082
     24          1           0       -4.292847    1.676476   -1.039125
     25          1           0       -2.229658    2.970530   -0.448564
     26          7           0       -4.953328   -0.749910   -0.153430
     27          8           0       -5.746837   -0.221071   -0.928871
     28          8           0       -5.092741   -1.860917    0.353388
 ---------------------------------------------------------------------

 SCF Done:  E(RHF) =  -868.336550885     A.U. after   16 cycles
 E2 =    -0.2602278328D+01 EUMP2 =    -0.87093882921239D+03

 The electronic state is 1-A.
 Alpha  occ. eigenvalues --  -20.61522 -20.61517 -20.61286 -20.61278 -15.86582
 Alpha  occ. eigenvalues --  -15.86347 -11.32107 -11.31793 -11.28717 -11.28659
 Alpha  occ. eigenvalues --  -11.28470 -11.28431 -11.28396 -11.28075 -11.27767
 Alpha  occ. eigenvalues --  -11.27653 -11.27478 -11.27330  -1.60597  -1.60362
 Alpha  occ. eigenvalues --   -1.40145  -1.39912  -1.20319  -1.20007  -1.09706
 Alpha  occ. eigenvalues --   -1.09340  -1.05716  -1.05438  -0.96500  -0.96153
 Alpha  occ. eigenvalues --   -0.87096  -0.86824  -0.83284  -0.83015  -0.78305
 Alpha  occ. eigenvalues --   -0.78064  -0.72790  -0.72561  -0.71930  -0.71693
 Alpha  occ. eigenvalues --   -0.71433  -0.71035  -0.65940  -0.65708  -0.65640
 Alpha  occ. eigenvalues --   -0.65421  -0.63030  -0.62780  -0.56246  -0.55943
 Alpha  occ. eigenvalues --   -0.54135  -0.53773  -0.53575  -0.53504  -0.49564
 Alpha  occ. eigenvalues --   -0.49539  -0.49325  -0.49309  -0.45514  -0.45300
 Alpha  occ. eigenvalues --   -0.38782  -0.37686  -0.37140  -0.37051
 Alpha virt. eigenvalues --    0.04071   0.04593   0.10221   0.10486   0.15633
 Alpha virt. eigenvalues --    0.15996   0.19675   0.21472   0.25472   0.26639
 Alpha virt. eigenvalues --    0.27781   0.28278   0.29961   0.30921   0.31586

 Mulliken charges:
               1
     1  C   -0.168393
     2  C   -0.227772
     3  C   -0.171013
     4  C    0.157250
     5  C   -0.169743
     6  C   -0.223177
     7  H    0.234137
     8  H    0.216342
     9  H    0.276059
    10  H    0.277875
    11  H    0.226977
    12  N    0.488157
    13  O   -0.458656
    14  O   -0.460083
    15  C   -0.177160
    16  C   -0.219019
    17  C   -0.173714
    18  C    0.157795
    19  C   -0.170875
    20  C   -0.225271
    21  H    0.228440
    22  H    0.229792
    23  H    0.278273
    24  H    0.278366
    25  H    0.224055
    26  N    0.487945
    27  O   -0.458319
    28  O   -0.458268
 Sum of Mulliken charges =  -0.00000

 Dipole moment (field-independent basis, Debye):
    X=             -0.7528    Y=              2.8725    Z=             -0.3354  Tot=              2.9884
 Quadrupole moment (field-independent basis, Debye-Ang):
   XX=           -174.3992   YY=            -97.3881   ZZ=           -103.1386
   XY=             -9.0973   XZ=             -8.0518   YZ=             -1.2234

 Normal termination of Gaussian 16 at Thu May  6 02:01:31 2021.
