 Gaussian 16, Revision A.03,
 Gaussian 16:  EM64L-G16RevA.03 25-Dec-2016

 -------------
 #p 6-31g* mp2
 -------------

 ------------------------------------------------------
 Input file generated by CHIRIPA (05-May-2021 14:57:23)
 ------------------------------------------------------
 Symbolic Z-matrix:
 Charge =  0 Multiplicity = 1

                         Standard orientation:
 ---------------------------------------------------------------------
 Center     Atomic      Atomic             Coordinates (Angstroms)
 Number     Number       Type             X           Y           Z
 ---------------------------------------------------------------------
      1          6           0        4.982045    0.592834    0.067547
      2          6           0        4.146280    1.083633   -0.940984
      3          6           0        2.877337    0.532474   -1.142369
      4          6           0        2.474431   -0.513164   -0.313153
      5          6           0        3.284097   -1.023989    0.700153
      6          6           0        4.549049   -0.457558    0.883459
      7          1           0        5.966240    1.026920    0.216965
      8          1           0        4.479915    1.899299   -1.576140
      9          1           0        2.209998    0.893171   -1.915657
     10          1           0        2.923741   -1.837957    1.317419
     11          1           0        5.195985   -0.840738    1.667482
     12          7           0        1.133171   -1.104735   -0.516780
     13          8           0        0.801658   -2.025206    0.227175
     14          8           0        0.438800   -0.636735   -1.416481
     15          6           0       -0.890985    2.009995    1.033124
     16          6           0       -0.936109    0.710101    1.547674
     17          6           0       -1.931444   -0.181790    1.137324
     18          6           0       -2.869940    0.261532    0.206744
     19          6           0       -2.851501    1.550334   -0.324235
     20          6           0       -1.847139    2.425230    0.100456
     21          1           0       -0.114280    2.696236    1.357464
     22          1           0       -0.194855    0.384886    2.272121
     23          1           0       -1.989777   -1.193696    1.519507
     24          1           0       -3.604203    1.845665   -1.045093
     25          1           0       -1.814548    3.434160   -0.300846
     26          7           0       -3.928434   -0.673678   -0.235266
     27          8           0       -4.743613   -0.258746   -1.056212
     28          8           0       -3.922860   -1.803920    0.247600
 ---------------------------------------------------------------------

 SCF Done:  E(RHF) =  -868.337504850     A.U. after   16 cycles
 E2 =    -0.2603143427D+01 EUMP2 =    -0.87094064827696D+03

 The electronic state is 1-A.
 Alpha  occ. eigenvalues --  -20.61344 -20.61272 -20.59647 -20.59617 -15.86305
 Alpha  occ. eigenvalues --  -15.84690 -11.31771 -11.30015 -11.28345 -11.28320
 Alpha  occ. eigenvalues --  -11.28067 -11.27355 -11.27344 -11.26744 -11.26606
 Alpha  occ. eigenvalues --  -11.26590 -11.25786 -11.25692  -1.60352  -1.58702
 Alpha  occ. eigenvalues --   -1.39912  -1.38259  -1.19943  -1.18261  -1.09316
 Alpha  occ. eigenvalues --   -1.07705  -1.05349  -1.03698  -0.96143  -0.94523
 Alpha  occ. eigenvalues --   -0.86738  -0.85127  -0.82976  -0.81374  -0.78017
 Alpha  occ. eigenvalues --   -0.76380  -0.72560  -0.71713  -0.71029  -0.70932
 Alpha  occ. eigenvalues --   -0.69993  -0.69473  -0.65586  -0.65337  -0.63965
 Alpha  occ. eigenvalues --   -0.63772  -0.62687  -0.61048  -0.55831  -0.54320
 Alpha  occ. eigenvalues --   -0.53694  -0.53428  -0.52008  -0.51840  -0.49314
 Alpha  occ. eigenvalues --   -0.49274  -0.47693  -0.47663  -0.45298  -0.43674
 Alpha  occ. eigenvalues --   -0.37938  -0.36971  -0.36284  -0.35218
 Alpha virt. eigenvalues --    0.04454   0.06210   0.10669   0.12352   0.15969
 Alpha virt. eigenvalues --    0.17605   0.20877   0.22248   0.26772   0.27695
 Alpha virt. eigenvalues --    0.28150   0.29190   0.30467   0.31565   0.32173

 Mulliken charges:
               1
     1  C   -0.171275
     2  C   -0.219394
     3  C   -0.172187
     4  C    0.157919
     5  C   -0.174754
     6  C   -0.218698
     7  H    0.227137
     8  H    0.224564
     9  H    0.276971
    10  H    0.275436
    11  H    0.224929
    12  N    0.489856
    13  O   -0.464570
    14  O   -0.453108
    15  C   -0.170360
    16  C   -0.233261
    17  C   -0.149956
    18  C    0.164218
    19  C   -0.167369
    20  C   -0.218531
    21  H    0.217866
    22  H    0.218634
    23  H    0.281899
    24  H    0.272442
    25  H    0.216787
    26  N    0.488758
    27  O   -0.465496
    28  O   -0.458458
 Sum of Mulliken charges =  -0.00000

 Dipole moment (field-independent basis, Debye):
    X=              8.5197    Y=              5.1000    Z=              2.1213  Tot=             10.1536
 Quadrupole moment (field-independent basis, Debye-Ang):
   XX=           -103.2000   YY=           -102.0336   ZZ=           -100.9927
   XY=             -7.3098   XZ=             -1.4730   YZ=             -5.4277

 Normal termination of Gaussian 16 at Thu May  6 06:37:00 2021.
