 Gaussian 16, Revision A.03,
 Gaussian 16:  EM64L-G16RevA.03 25-Dec-2016

 -------------
 #p 6-31g* mp2
 -------------

 ------------------------------------------------------
 Input file generated by CHIRIPA (05-May-2021 14:51:12)
 ------------------------------------------------------
 Symbolic Z-matrix:
 Charge =  0 Multiplicity = 1

                         Standard orientation:
 ---------------------------------------------------------------------
 Center     Atomic      Atomic             Coordinates (Angstroms)
 Number     Number       Type             X           Y           Z
 ---------------------------------------------------------------------
      1          6           0       -3.641637    0.504973   -0.343217
      2          6           0       -4.575128    1.362071    0.512332
      3          6           0       -5.074317    2.606505   -0.222507
      4          1           0       -2.784005    1.113543   -0.661108
      5          1           0       -4.168297    0.204277   -1.259517
      6          1           0       -4.047326    1.659911    1.427391
      7          1           0       -5.430540    0.751336    0.828383
      8          1           0       -5.624307    2.325429   -1.126448
      9          1           0       -4.233233    3.239166   -0.524036
     10          1           0       -5.740046    3.204700    0.407434
     11          6           0       -3.134251   -0.742702    0.377612
     12          6           0       -2.200760   -1.599800   -0.477937
     13          6           0       -1.701570   -2.844233    0.256902
     14          1           0       -2.607590   -0.442006    1.293912
     15          1           0       -3.991883   -1.351272    0.695503
     16          1           0       -1.345347   -0.989065   -0.793988
     17          1           0       -2.728561   -1.897640   -1.392996
     18          1           0       -2.542654   -3.476894    0.558431
     19          1           0       -1.151580   -2.563158    1.160843
     20          1           0       -1.035841   -3.442429   -0.373040
     21          6           0        2.904811   -0.413835   -0.274580
     22          6           0        3.183679   -1.808019    0.287976
     23          6           0        2.208839   -2.862861   -0.236225
     24          1           0        1.876175   -0.122391   -0.021768
     25          1           0        2.958482   -0.451169   -1.371448
     26          1           0        3.130863   -1.767769    1.383516
     27          1           0        4.211834   -2.096098    0.033960
     28          1           0        2.266493   -2.932329   -1.327303
     29          1           0        1.179379   -2.602135    0.029920
     30          1           0        2.426380   -3.852002    0.178667
     31          6           0        3.871077    0.651564    0.240185
     32          6           0        3.592208    2.045747   -0.322371
     33          6           0        4.567048    3.100590    0.201830
     34          1           0        3.817405    0.688898    1.337054
     35          1           0        4.899712    0.360120   -0.012628
     36          1           0        2.564053    2.333827   -0.068355
     37          1           0        3.645025    2.005498   -1.417910
     38          1           0        5.596509    2.839863   -0.064315
     39          1           0        4.509395    3.170058    1.292909
     40          1           0        4.349507    4.089731   -0.213062
 ---------------------------------------------------------------------

 SCF Done:  E(RHF) =  -470.732786093     A.U. after   11 cycles
 E2 =    -0.1582930056D+01 EUMP2 =    -0.47231571614919D+03

 The electronic state is 1-A.
 Alpha  occ. eigenvalues --  -11.21625 -11.21618 -11.21616 -11.21568 -11.21425
 Alpha  occ. eigenvalues --  -11.21414 -11.21365 -11.21354 -11.21084 -11.21082
 Alpha  occ. eigenvalues --  -11.21064 -11.20937  -1.08455  -1.08423  -1.03575
 Alpha  occ. eigenvalues --   -1.03491  -0.96057  -0.95911  -0.87099  -0.86903
 Alpha  occ. eigenvalues --   -0.79655  -0.79538  -0.78262  -0.78243  -0.65138
 Alpha  occ. eigenvalues --   -0.65015  -0.61112  -0.60793  -0.59397  -0.59320
 Alpha  occ. eigenvalues --   -0.57704  -0.57485  -0.55497  -0.55063  -0.52832
 Alpha  occ. eigenvalues --   -0.52621  -0.52460  -0.52233  -0.50113  -0.49699
 Alpha  occ. eigenvalues --   -0.47948  -0.47848  -0.46692  -0.46540  -0.45840
 Alpha  occ. eigenvalues --   -0.45763  -0.45728  -0.45683  -0.43812  -0.43742
 Alpha virt. eigenvalues --    0.21124   0.23190   0.23558   0.24978   0.26057
 Alpha virt. eigenvalues --    0.26961   0.27071   0.27208   0.28030   0.29144
 Alpha virt. eigenvalues --    0.30476   0.31217   0.31540   0.31787   0.32301

 Mulliken charges:
               1
     1  C   -0.298309
     2  C   -0.299654
     3  C   -0.475719
     4  H    0.149643
     5  H    0.149698
     6  H    0.151794
     7  H    0.152004
     8  H    0.155255
     9  H    0.155204
    10  H    0.160284
    11  C   -0.298237
    12  C   -0.302180
    13  C   -0.480484
    14  H    0.149172
    15  H    0.149919
    16  H    0.153269
    17  H    0.152533
    18  H    0.156405
    19  H    0.154370
    20  H    0.164962
    21  C   -0.298646
    22  C   -0.299412
    23  C   -0.484907
    24  H    0.148900
    25  H    0.149624
    26  H    0.151395
    27  H    0.151644
    28  H    0.153980
    29  H    0.167817
    30  H    0.159689
    31  C   -0.298245
    32  C   -0.299581
    33  C   -0.475703
    34  H    0.149437
    35  H    0.149885
    36  H    0.151482
    37  H    0.152010
    38  H    0.155288
    39  H    0.155162
    40  H    0.160252
 Sum of Mulliken charges =  -0.00000

 Dipole moment (field-independent basis, Debye):
    X=             -0.0333    Y=             -0.0190    Z=             -0.0073  Tot=              0.0390
 Quadrupole moment (field-independent basis, Debye-Ang):
   XX=            -84.3956   YY=            -86.0795   ZZ=            -84.3031
   XY=              0.2741   XZ=             -0.5419   YZ=              0.4662

 Normal termination of Gaussian 16 at Wed May  5 23:08:52 2021.
