 Gaussian 16, Revision A.03,
 Gaussian 16:  EM64L-G16RevA.03 25-Dec-2016

 -------------
 #p 6-31g* mp2
 -------------

 ------------------------------------------------------
 Input file generated by CHIRIPA (05-May-2021 14:51:10)
 ------------------------------------------------------
 Symbolic Z-matrix:
 Charge =  0 Multiplicity = 1

                         Standard orientation:
 ---------------------------------------------------------------------
 Center     Atomic      Atomic             Coordinates (Angstroms)
 Number     Number       Type             X           Y           Z
 ---------------------------------------------------------------------
      1          6           0       -3.775289    0.635241    0.195508
      2          6           0       -3.388804    1.740369   -0.788009
      3          6           0       -2.645712    2.895799   -0.116750
      4          1           0       -4.401315    1.063109    0.990471
      5          1           0       -2.867450    0.254320    0.683484
      6          1           0       -4.296960    2.118140   -1.274998
      7          1           0       -2.763784    1.309783   -1.580828
      8          1           0       -1.723880    2.539202    0.354063
      9          1           0       -3.265766    3.352152    0.661630
     10          1           0       -2.378992    3.674561   -0.838034
     11          6           0       -4.518852   -0.526817   -0.460590
     12          6           0       -4.905337   -1.631946    0.522926
     13          6           0       -5.648430   -2.787376   -0.148333
     14          1           0       -5.426691   -0.145896   -0.948567
     15          1           0       -3.892826   -0.954685   -1.255553
     16          1           0       -5.530357   -1.201359    1.315745
     17          1           0       -3.997182   -2.009716    1.009916
     18          1           0       -5.028375   -3.243728   -0.926713
     19          1           0       -6.570262   -2.430778   -0.619146
     20          1           0       -5.915149   -3.566138    0.572951
     21          6           0        4.758098   -0.082136   -0.324950
     22          6           0        5.861035   -1.006316    0.192162
     23          6           0        7.076817   -1.051603   -0.733915
     24          1           0        4.447305   -0.416089   -1.324364
     25          1           0        5.165458    0.931102   -0.446608
     26          1           0        5.451352   -2.017208    0.314124
     27          1           0        6.169104   -0.670239    1.190541
     28          1           0        7.512168   -0.053488   -0.847220
     29          1           0        6.790337   -1.408110   -1.728618
     30          1           0        7.852995   -1.718145   -0.345164
     31          6           0        3.536043   -0.026288    0.590032
     32          6           0        2.433106    0.897892    0.072922
     33          6           0        1.217325    0.943179    0.998998
     34          1           0        3.128683   -1.039526    0.711691
     35          1           0        3.846836    0.307665    1.589446
     36          1           0        2.125037    0.561815   -0.925458
     37          1           0        2.842789    1.908784   -0.049041
     38          1           0        1.503804    1.299687    1.993701
     39          1           0        0.781974   -0.054935    1.112303
     40          1           0        0.441147    1.609723    0.610247
 ---------------------------------------------------------------------

 SCF Done:  E(RHF) =  -470.733363882     A.U. after   11 cycles
 E2 =    -0.1582331848D+01 EUMP2 =    -0.47231569573046D+03

 The electronic state is 1-A.
 Alpha  occ. eigenvalues --  -11.21642 -11.21619 -11.21587 -11.21582 -11.21431
 Alpha  occ. eigenvalues --  -11.21379 -11.21371 -11.21318 -11.21124 -11.21085
 Alpha  occ. eigenvalues --  -11.21062 -11.21043  -1.08458  -1.08408  -1.03565
 Alpha  occ. eigenvalues --   -1.03509  -0.96026  -0.95952  -0.87053  -0.86960
 Alpha  occ. eigenvalues --   -0.79642  -0.79557  -0.78269  -0.78218  -0.65089
 Alpha  occ. eigenvalues --   -0.65041  -0.60968  -0.60933  -0.59413  -0.59307
 Alpha  occ. eigenvalues --   -0.57682  -0.57524  -0.55297  -0.55263  -0.52778
 Alpha  occ. eigenvalues --   -0.52657  -0.52471  -0.52297  -0.49953  -0.49888
 Alpha  occ. eigenvalues --   -0.47983  -0.47844  -0.46658  -0.46600  -0.45811
 Alpha  occ. eigenvalues --   -0.45764  -0.45736  -0.45682  -0.43786  -0.43762
 Alpha virt. eigenvalues --    0.21487   0.23031   0.23570   0.24936   0.26199
 Alpha virt. eigenvalues --    0.26613   0.27135   0.27295   0.27824   0.28787
 Alpha virt. eigenvalues --    0.30108   0.31320   0.31720   0.31838   0.31980

 Mulliken charges:
               1
     1  C   -0.299012
     2  C   -0.299060
     3  C   -0.483357
     4  H    0.149594
     5  H    0.150703
     6  H    0.151871
     7  H    0.151724
     8  H    0.161861
     9  H    0.155508
    10  H    0.160038
    11  C   -0.298293
    12  C   -0.299622
    13  C   -0.475684
    14  H    0.149436
    15  H    0.149483
    16  H    0.151979
    17  H    0.151913
    18  H    0.155057
    19  H    0.155169
    20  H    0.160205
    21  C   -0.298243
    22  C   -0.299655
    23  C   -0.475720
    24  H    0.149640
    25  H    0.149648
    26  H    0.151918
    27  H    0.152008
    28  H    0.155238
    29  H    0.155185
    30  H    0.160314
    31  C   -0.298705
    32  C   -0.298758
    33  C   -0.484006
    34  H    0.149446
    35  H    0.149809
    36  H    0.151871
    37  H    0.152345
    38  H    0.155924
    39  H    0.154801
    40  H    0.167426
 Sum of Mulliken charges =  -0.00000

 Dipole moment (field-independent basis, Debye):
    X=              0.0208    Y=              0.0042    Z=              0.0086  Tot=              0.0229
 Quadrupole moment (field-independent basis, Debye-Ang):
   XX=            -85.0068   YY=            -84.8188   ZZ=            -84.9400
   XY=             -0.4346   XZ=              0.3849   YZ=              0.1324

 Normal termination of Gaussian 16 at Wed May  5 23:00:54 2021.
