 Gaussian 16, Revision A.03,
 Gaussian 16:  EM64L-G16RevA.03 25-Dec-2016

 -------------
 #p 6-31g* mp2
 -------------

 ------------------------------------------------------
 Input file generated by CHIRIPA (05-May-2021 14:51:12)
 ------------------------------------------------------
 Symbolic Z-matrix:
 Charge =  0 Multiplicity = 1

                         Standard orientation:
 ---------------------------------------------------------------------
 Center     Atomic      Atomic             Coordinates (Angstroms)
 Number     Number       Type             X           Y           Z
 ---------------------------------------------------------------------
      1          6           0       -4.188341    0.549370   -0.270251
      2          6           0       -5.621294    0.928600    0.105005
      3          6           0       -6.156325    2.102508   -0.715651
      4          1           0       -3.536438    1.422744   -0.131740
      5          1           0       -4.151001    0.297855   -1.339241
      6          1           0       -5.656192    1.177989    1.173276
      7          1           0       -6.269828    0.054167   -0.034232
      8          1           0       -6.150439    1.860532   -1.783365
      9          1           0       -5.533317    2.990739   -0.568996
     10          1           0       -7.182090    2.356835   -0.431075
     11          6           0       -3.639467   -0.622575    0.541544
     12          6           0       -2.206515   -1.001805    0.166288
     13          6           0       -1.671484   -2.175712    0.986944
     14          1           0       -3.676807   -0.371060    1.610535
     15          1           0       -4.291371   -1.495949    0.403034
     16          1           0       -1.557981   -0.127372    0.305525
     17          1           0       -2.171617   -1.251194   -0.901983
     18          1           0       -2.294492   -3.063944    0.840290
     19          1           0       -1.677369   -1.933737    2.054659
     20          1           0       -0.645719   -2.430040    0.702369
     21          6           0        4.473871    0.531424   -0.293826
     22          6           0        4.448600    1.778668    0.590327
     23          6           0        5.574968    2.759069    0.261838
     24          1           0        5.444140    0.028812   -0.180227
     25          1           0        4.400870    0.835642   -1.347162
     26          1           0        4.520233    1.472107    1.641757
     27          1           0        3.478206    2.278264    0.474757
     28          1           0        5.503623    3.093345   -0.778244
     29          1           0        6.551569    2.282607    0.395388
     30          1           0        5.538019    3.643351    0.905686
     31          6           0        3.353937   -0.458219    0.022532
     32          6           0        3.379208   -1.705464   -0.861621
     33          6           0        2.252841   -2.685864   -0.533131
     34          1           0        3.426938   -0.762437    1.075869
     35          1           0        2.383669    0.044392   -0.091067
     36          1           0        4.349602   -2.205060   -0.746050
     37          1           0        3.307575   -1.398902   -1.913050
     38          1           0        1.276239   -2.209403   -0.666681
     39          1           0        2.324186   -3.020141    0.506950
     40          1           0        2.289789   -3.570145   -1.176980
 ---------------------------------------------------------------------

 SCF Done:  E(RHF) =  -470.733233118     A.U. after   11 cycles
 E2 =    -0.1582413324D+01 EUMP2 =    -0.47231564644202D+03

 The electronic state is 1-A.
 Alpha  occ. eigenvalues --  -11.21624 -11.21612 -11.21595 -11.21584 -11.21418
 Alpha  occ. eigenvalues --  -11.21393 -11.21358 -11.21333 -11.21100 -11.21079
 Alpha  occ. eigenvalues --  -11.21068 -11.20953  -1.08447  -1.08413  -1.03559
 Alpha  occ. eigenvalues --   -1.03497  -0.96027  -0.95926  -0.87061  -0.86926
 Alpha  occ. eigenvalues --   -0.79636  -0.79549  -0.78259  -0.78229  -0.65076
 Alpha  occ. eigenvalues --   -0.65043  -0.60961  -0.60900  -0.59430  -0.59296
 Alpha  occ. eigenvalues --   -0.57758  -0.57432  -0.55288  -0.55230  -0.52845
 Alpha  occ. eigenvalues --   -0.52680  -0.52458  -0.52157  -0.49930  -0.49888
 Alpha  occ. eigenvalues --   -0.48025  -0.47769  -0.46638  -0.46605  -0.45796
 Alpha  occ. eigenvalues --   -0.45771  -0.45722  -0.45693  -0.43804  -0.43732
 Alpha virt. eigenvalues --    0.21878   0.23046   0.23444   0.24872   0.26390
 Alpha virt. eigenvalues --    0.26591   0.26825   0.27440   0.27820   0.28915
 Alpha virt. eigenvalues --    0.30881   0.31338   0.31427   0.31795   0.32108

 Mulliken charges:
               1
     1  C   -0.298266
     2  C   -0.299647
     3  C   -0.475695
     4  H    0.149441
     5  H    0.149398
     6  H    0.151951
     7  H    0.151973
     8  H    0.155138
     9  H    0.155112
    10  H    0.160251
    11  C   -0.298050
    12  C   -0.299778
    13  C   -0.483299
    14  H    0.149641
    15  H    0.149772
    16  H    0.151159
    17  H    0.151372
    18  H    0.154772
    19  H    0.154701
    20  H    0.168790
    21  C   -0.298304
    22  C   -0.299649
    23  C   -0.475718
    24  H    0.149708
    25  H    0.149597
    26  H    0.151953
    27  H    0.151877
    28  H    0.155221
    29  H    0.155213
    30  H    0.160256
    31  C   -0.298441
    32  C   -0.299595
    33  C   -0.480759
    34  H    0.149638
    35  H    0.149710
    36  H    0.152070
    37  H    0.152053
    38  H    0.159912
    39  H    0.155773
    40  H    0.160752
 Sum of Mulliken charges =  -0.00000

 Dipole moment (field-independent basis, Debye):
    X=              0.0337    Y=             -0.0135    Z=             -0.0058  Tot=              0.0368
 Quadrupole moment (field-independent basis, Debye-Ang):
   XX=            -85.1695   YY=            -85.4642   ZZ=            -84.1104
   XY=             -0.2606   XZ=              0.5011   YZ=              0.6876

 Normal termination of Gaussian 16 at Wed May  5 23:09:48 2021.
