 Gaussian 16, Revision A.03,
 Gaussian 16:  EM64L-G16RevA.03 25-Dec-2016

 -------------
 #p 6-31g* mp2
 -------------

 ------------------------------------------------------
 Input file generated by CHIRIPA (05-May-2021 14:53:14)
 ------------------------------------------------------
 Symbolic Z-matrix:
 Charge =  0 Multiplicity = 1

                         Standard orientation:
 ---------------------------------------------------------------------
 Center     Atomic      Atomic             Coordinates (Angstroms)
 Number     Number       Type             X           Y           Z
 ---------------------------------------------------------------------
      1          6           0       -2.639078    0.332514    0.170576
      2          6           0       -4.079671    0.004919   -0.223581
      3          6           0       -4.492814   -1.413121    0.171729
      4          1           0       -1.962500   -0.393059   -0.301367
      5          1           0       -2.525436    0.205672    1.256114
      6          1           0       -4.190918    0.133679   -1.307860
      7          1           0       -4.752882    0.731472    0.249201
      8          1           0       -4.410169   -1.550670    1.254711
      9          1           0       -3.845011   -2.151860   -0.311197
     10          1           0       -5.526119   -1.626112   -0.119433
     11          6           0       -2.211338    1.746656   -0.217969
     12          6           0       -0.770746    2.074251    0.176189
     13          6           0       -0.357603    3.492290   -0.219122
     14          1           0       -2.324981    1.873498   -1.303507
     15          1           0       -2.887917    2.472229    0.253974
     16          1           0       -0.097534    1.347698   -0.296594
     17          1           0       -0.659499    1.945491    1.260468
     18          1           0       -1.005406    4.231029    0.263804
     19          1           0       -0.440248    3.629840   -1.302104
     20          1           0        0.675703    3.705282    0.072040
     21          6           0       -0.053233   -2.413620   -0.064441
     22          6           0        0.350853   -1.865571    1.157392
     23          6           0        1.428819   -0.977207    1.215236
     24          6           0        2.083012   -0.657354    0.026532
     25          6           0        1.704212   -1.186755   -1.206162
     26          6           0        0.623544   -2.073063   -1.240246
     27          1           0       -0.891672   -3.102925   -0.100147
     28          1           0       -0.172882   -2.128253    2.072131
     29          1           0        1.762648   -0.538248    2.147594
     30          1           0        2.245880   -0.905943   -2.101236
     31          1           0        0.311926   -2.497147   -2.190558
     32          7           0        3.225637    0.282030    0.075192
     33          8           0        3.785448    0.547814   -0.986225
     34          8           0        3.539780    0.734746    1.173828
 ---------------------------------------------------------------------

 SCF Done:  E(RHF) =  -669.533829577     A.U. after   15 cycles
 E2 =    -0.2095958019D+01 EUMP2 =    -0.67162978759612D+03

 The electronic state is 1-A.
 Alpha  occ. eigenvalues --  -20.60826 -20.60820 -15.85880 -11.31246 -11.27862
 Alpha  occ. eigenvalues --  -11.27810 -11.27570 -11.26876 -11.26813 -11.22030
 Alpha  occ. eigenvalues --  -11.21791 -11.21584 -11.21524 -11.21462 -11.20845
 Alpha  occ. eigenvalues --   -1.59902  -1.39454  -1.19462  -1.08863  -1.08628
 Alpha  occ. eigenvalues --   -1.04851  -1.03745  -0.96201  -0.95674  -0.87219
 Alpha  occ. eigenvalues --   -0.86247  -0.82500  -0.79831  -0.78455  -0.77539
 Alpha  occ. eigenvalues --   -0.72098  -0.71230  -0.70559  -0.65302  -0.65099
 Alpha  occ. eigenvalues --   -0.64847  -0.62192  -0.61162  -0.59598  -0.57805
 Alpha  occ. eigenvalues --   -0.55530  -0.55347  -0.53421  -0.52938  -0.52785
 Alpha  occ. eigenvalues --   -0.52635  -0.50178  -0.48859  -0.48851  -0.48177
 Alpha  occ. eigenvalues --   -0.46908  -0.45952  -0.45714  -0.44853  -0.43958
 Alpha  occ. eigenvalues --   -0.37281  -0.36437
 Alpha virt. eigenvalues --    0.04951   0.11135   0.16335   0.20367   0.22941
 Alpha virt. eigenvalues --    0.23886   0.25613   0.26513   0.27512   0.27871
 Alpha virt. eigenvalues --    0.28805   0.30061   0.31361   0.31853   0.32213

 Mulliken charges:
               1
     1  C   -0.303997
     2  C   -0.299138
     3  C   -0.474806
     4  H    0.156610
     5  H    0.143690
     6  H    0.152105
     7  H    0.153825
     8  H    0.153764
     9  H    0.145302
    10  H    0.163208
    11  C   -0.297221
    12  C   -0.303796
    13  C   -0.477148
    14  H    0.148629
    15  H    0.149535
    16  H    0.155952
    17  H    0.149048
    18  H    0.153879
    19  H    0.154579
    20  H    0.167846
    21  C   -0.175264
    22  C   -0.211501
    23  C   -0.169505
    24  C    0.159975
    25  C   -0.173564
    26  C   -0.217718
    27  H    0.228351
    28  H    0.224256
    29  H    0.275701
    30  H    0.276102
    31  H    0.223996
    32  N    0.488175
    33  O   -0.460525
    34  O   -0.460345
 Sum of Mulliken charges =  -0.00000

 Dipole moment (field-independent basis, Debye):
    X=             -3.9025    Y=             -3.3003    Z=             -0.1576  Tot=              5.1133
 Quadrupole moment (field-independent basis, Debye-Ang):
   XX=           -112.6330   YY=            -91.8744   ZZ=            -89.1189
   XY=             -4.8734   XZ=             -1.2617   YZ=              1.0287

 Normal termination of Gaussian 16 at Thu May  6 13:46:46 2021.
