 Gaussian 16, Revision A.03,
 Gaussian 16:  EM64L-G16RevA.03 25-Dec-2016

 -------------
 #p 6-31g* mp2
 -------------

 ------------------------------------------------------
 Input file generated by CHIRIPA (05-May-2021 14:57:27)
 ------------------------------------------------------
 Symbolic Z-matrix:
 Charge =  0 Multiplicity = 1

                         Standard orientation:
 ---------------------------------------------------------------------
 Center     Atomic      Atomic             Coordinates (Angstroms)
 Number     Number       Type             X           Y           Z
 ---------------------------------------------------------------------
      1          6           0       -1.585582    1.011901    1.149593
      2          6           0       -2.810276    1.687623    1.156277
      3          6           0       -3.942495    1.111067    0.573002
      4          6           0       -3.813569   -0.148261   -0.010746
      5          6           0       -2.607285   -0.846585   -0.033405
      6          6           0       -1.488167   -0.250820    0.555820
      7          1           0       -0.711135    1.467245    1.605006
      8          1           0       -2.888877    2.668385    1.616684
      9          1           0       -4.902886    1.612053    0.564059
     10          1           0       -2.559991   -1.823041   -0.500004
     11          1           0       -0.538340   -0.777915    0.549150
     12          7           0       -5.005264   -0.768803   -0.631382
     13          8           0       -4.865457   -1.879298   -1.139212
     14          8           0       -6.056557   -0.132939   -0.598255
     15          6           0        4.491461   -2.241841    0.514564
     16          6           0        3.354046   -1.735608    1.152169
     17          6           0        2.860744   -0.469230    0.824318
     18          6           0        3.532640    0.267167   -0.150139
     19          6           0        4.668178   -0.209683   -0.803175
     20          6           0        5.143746   -1.478608   -0.459355
     21          1           0        4.867781   -3.226584    0.775449
     22          1           0        2.845437   -2.326124    1.908908
     23          1           0        1.982231   -0.053037    1.302246
     24          1           0        5.153738    0.402392   -1.553518
     25          1           0        6.027290   -1.869209   -0.956171
     26          7           0        3.019789    1.609174   -0.505672
     27          8           0        3.629836    2.238168   -1.367557
     28          8           0        2.017481    2.006633    0.084278
 ---------------------------------------------------------------------

 SCF Done:  E(RHF) =  -868.338406316     A.U. after   16 cycles
 E2 =    -0.2599820441D+01 EUMP2 =    -0.87093822675707D+03

 The electronic state is 1-A.
 Alpha  occ. eigenvalues --  -20.61770 -20.61722 -20.60490 -20.60481 -15.86795
 Alpha  occ. eigenvalues --  -15.85543 -11.32116 -11.30811 -11.28767 -11.28589
 Alpha  occ. eigenvalues --  -11.28319 -11.27690 -11.27590 -11.27443 -11.27380
 Alpha  occ. eigenvalues --  -11.27019 -11.26430 -11.26300  -1.60805  -1.59567
 Alpha  occ. eigenvalues --   -1.40369  -1.39123  -1.20260  -1.18983  -1.09645
 Alpha  occ. eigenvalues --   -1.08370  -1.05664  -1.04395  -0.96502  -0.95219
 Alpha  occ. eigenvalues --   -0.87056  -0.85790  -0.83346  -0.82072  -0.78422
 Alpha  occ. eigenvalues --   -0.77157  -0.73027  -0.72116  -0.71763  -0.71359
 Alpha  occ. eigenvalues --   -0.70890  -0.70017  -0.65912  -0.65664  -0.64635
 Alpha  occ. eigenvalues --   -0.64430  -0.63016  -0.61755  -0.56118  -0.54798
 Alpha  occ. eigenvalues --   -0.53974  -0.53752  -0.52699  -0.52488  -0.49786
 Alpha  occ. eigenvalues --   -0.49741  -0.48522  -0.48512  -0.45780  -0.44551
 Alpha  occ. eigenvalues --   -0.38196  -0.37261  -0.36896  -0.36008
 Alpha virt. eigenvalues --    0.04096   0.05416   0.10333   0.11660   0.15637
 Alpha virt. eigenvalues --    0.16940   0.18966   0.22003   0.25335   0.26889
 Alpha virt. eigenvalues --    0.27849   0.28979   0.30552   0.31089   0.32024

 Mulliken charges:
               1
     1  C   -0.167540
     2  C   -0.219527
     3  C   -0.170519
     4  C    0.157598
     5  C   -0.171360
     6  C   -0.219783
     7  H    0.237132
     8  H    0.224933
     9  H    0.274846
    10  H    0.272913
    11  H    0.213733
    12  N    0.488267
    13  O   -0.462549
    14  O   -0.460941
    15  C   -0.169948
    16  C   -0.219222
    17  C   -0.175417
    18  C    0.160370
    19  C   -0.169820
    20  C   -0.217417
    21  H    0.229263
    22  H    0.225001
    23  H    0.267924
    24  H    0.278398
    25  H    0.227272
    26  N    0.490960
    27  O   -0.453982
    28  O   -0.470586
 Sum of Mulliken charges =  -0.00000

 Dipole moment (field-independent basis, Debye):
    X=              6.4171    Y=             -2.4518    Z=              3.3642  Tot=              7.6491
 Quadrupole moment (field-independent basis, Debye-Ang):
   XX=           -119.4414   YY=           -105.2541   ZZ=           -103.8914
   XY=            -28.1607   XZ=             -8.2994   YZ=              1.4010

 Normal termination of Gaussian 16 at Wed May  5 22:52:39 2021.
