 Gaussian 16, Revision A.03,
 Gaussian 16:  EM64L-G16RevA.03 25-Dec-2016

 -------------
 #p 6-31g* mp2
 -------------

 ------------------------------------------------------
 Input file generated by CHIRIPA (05-May-2021 14:53:17)
 ------------------------------------------------------
 Symbolic Z-matrix:
 Charge =  0 Multiplicity = 1

                         Standard orientation:
 ---------------------------------------------------------------------
 Center     Atomic      Atomic             Coordinates (Angstroms)
 Number     Number       Type             X           Y           Z
 ---------------------------------------------------------------------
      1          6           0        2.907562   -1.068077    0.142418
      2          6           0        1.521664   -1.075723   -0.503503
      3          6           0        0.661400   -2.252937   -0.043168
      4          1           0        3.419347   -2.011630   -0.091522
      5          1           0        2.795052   -1.036056    1.234989
      6          1           0        1.636767   -1.106324   -1.594572
      7          1           0        1.013193   -0.131961   -0.268158
      8          1           0        0.517027   -2.223569    1.041679
      9          1           0        1.144143   -3.203467   -0.292271
     10          1           0       -0.324989   -2.238911   -0.517193
     11          6           0        3.779346    0.102810   -0.307853
     12          6           0        5.165243    0.110456    0.338068
     13          6           0        6.025508    1.287670   -0.122266
     14          1           0        3.891855    0.070789   -1.400424
     15          1           0        3.267561    1.046363   -0.073913
     16          1           0        5.673714   -0.833306    0.102723
     17          1           0        5.050141    0.141057    1.429137
     18          1           0        5.542764    2.238200    0.126836
     19          1           0        6.169881    1.258302   -1.207114
     20          1           0        7.011897    1.273644    0.351758
     21          6           0       -3.048706   -2.107939    0.072990
     22          6           0       -2.661154   -1.461340    1.251223
     23          6           0       -2.416582   -0.084865    1.258286
     24          6           0       -2.569861    0.617298    0.063814
     25          6           0       -2.954688    0.001656   -1.126221
     26          6           0       -3.193979   -1.375668   -1.109886
     27          1           0       -3.236643   -3.177548    0.076591
     28          1           0       -2.547542   -2.027495    2.171336
     29          1           0       -2.115406    0.440928    2.156201
     30          1           0       -3.059621    0.592746   -2.027897
     31          1           0       -3.494837   -1.875182   -2.026411
     32          7           0       -2.313740    2.074959    0.058906
     33          8           0       -2.455803    2.671007   -1.006543
     34          8           0       -1.975777    2.593826    1.120601
 ---------------------------------------------------------------------

 SCF Done:  E(RHF) =  -669.534125834     A.U. after   15 cycles
 E2 =    -0.2093804399D+01 EUMP2 =    -0.67162793023321D+03

 The electronic state is 1-A.
 Alpha  occ. eigenvalues --  -20.60836 -20.60830 -15.85891 -11.31284 -11.27850
 Alpha  occ. eigenvalues --  -11.27829 -11.27530 -11.26850 -11.26804 -11.21588
 Alpha  occ. eigenvalues --  -11.21475 -11.21344 -11.21223 -11.21065 -11.20902
 Alpha  occ. eigenvalues --   -1.59912  -1.39464  -1.19452  -1.08846  -1.08349
 Alpha  occ. eigenvalues --   -1.04846  -1.03464  -0.95926  -0.95665  -0.86948
 Alpha  occ. eigenvalues --   -0.86240  -0.82496  -0.79540  -0.78159  -0.77543
 Alpha  occ. eigenvalues --   -0.72106  -0.71237  -0.70542  -0.65093  -0.64987
 Alpha  occ. eigenvalues --   -0.64841  -0.62189  -0.60881  -0.59381  -0.57582
 Alpha  occ. eigenvalues --   -0.55342  -0.55261  -0.53545  -0.52932  -0.52421
 Alpha  occ. eigenvalues --   -0.52021  -0.49860  -0.48868  -0.48860  -0.47854
 Alpha  occ. eigenvalues --   -0.46579  -0.45704  -0.45626  -0.44865  -0.43738
 Alpha  occ. eigenvalues --   -0.37298  -0.36424
 Alpha virt. eigenvalues --    0.04967   0.11165   0.16413   0.21257   0.22917
 Alpha virt. eigenvalues --    0.24354   0.26574   0.27074   0.27598   0.28059
 Alpha virt. eigenvalues --    0.28383   0.30684   0.31399   0.31978   0.32320

 Mulliken charges:
               1
     1  C   -0.297958
     2  C   -0.299142
     3  C   -0.479566
     4  H    0.148115
     5  H    0.148376
     6  H    0.151158
     7  H    0.153460
     8  H    0.148468
     9  H    0.150493
    10  H    0.166528
    11  C   -0.299212
    12  C   -0.299540
    13  C   -0.475944
    14  H    0.149306
    15  H    0.153830
    16  H    0.150538
    17  H    0.151707
    18  H    0.157381
    19  H    0.154997
    20  H    0.159617
    21  C   -0.174747
    22  C   -0.210635
    23  C   -0.171685
    24  C    0.159996
    25  C   -0.170595
    26  C   -0.218678
    27  H    0.226645
    28  H    0.223876
    29  H    0.275682
    30  H    0.276174
    31  H    0.224176
    32  N    0.487636
    33  O   -0.459957
    34  O   -0.460499
 Sum of Mulliken charges =  -0.00000

 Dipole moment (field-independent basis, Debye):
    X=             -1.0287    Y=             -5.0672    Z=              0.0141  Tot=              5.1706
 Quadrupole moment (field-independent basis, Debye-Ang):
   XX=            -91.0167   YY=           -102.2822   ZZ=            -89.4963
   XY=             12.3679   XZ=              1.0193   YZ=              0.0931

 Normal termination of Gaussian 16 at Wed May  5 17:16:03 2021.
