 Gaussian 16, Revision A.03,
 Gaussian 16:  EM64L-G16RevA.03 25-Dec-2016

 -------------
 #p 6-31g* mp2
 -------------

 ------------------------------------------------------
 Input file generated by CHIRIPA (05-May-2021 14:53:12)
 ------------------------------------------------------
 Symbolic Z-matrix:
 Charge =  0 Multiplicity = 1

                         Standard orientation:
 ---------------------------------------------------------------------
 Center     Atomic      Atomic             Coordinates (Angstroms)
 Number     Number       Type             X           Y           Z
 ---------------------------------------------------------------------
      1          6           0        4.345856   -0.322708    0.201485
      2          6           0        5.697332   -0.891040   -0.232674
      3          6           0        5.870845   -2.361170    0.149955
      4          1           0        4.240469   -0.434857    1.289263
      5          1           0        3.542275   -0.918263   -0.253450
      6          1           0        6.498125   -0.293740    0.221835
      7          1           0        5.799595   -0.777352   -1.319520
      8          1           0        5.092700   -2.974789   -0.315408
      9          1           0        5.795198   -2.488430    1.234705
     10          1           0        6.843784   -2.747119   -0.169879
     11          6           0        4.157483    1.146056   -0.173981
     12          6           0        2.806006    1.714389    0.260179
     13          6           0        2.632494    3.184519   -0.122451
     14          1           0        4.961064    1.741611    0.280954
     15          1           0        4.262870    1.258205   -1.261759
     16          1           0        2.703743    1.600700    1.347024
     17          1           0        2.005213    1.117089   -0.194331
     18          1           0        2.708140    3.311779   -1.207201
     19          1           0        3.410639    3.798138    0.342912
     20          1           0        1.659555    3.570467    0.197383
     21          6           0       -0.941472   -1.157110   -0.063604
     22          6           0       -1.200097    0.216172   -0.002519
     23          6           0       -2.514918    0.690415    0.027231
     24          6           0       -3.551721   -0.240849   -0.005633
     25          6           0       -3.326321   -1.615177   -0.066529
     26          6           0       -2.003538   -2.066797   -0.095359
     27          1           0        0.083005   -1.516727   -0.086357
     28          1           0       -0.377259    0.924952    0.022255
     29          1           0       -2.743615    1.748188    0.074489
     30          1           0       -4.167383   -2.297437   -0.090031
     31          1           0       -1.805671   -3.133870   -0.142802
     32          7           0       -4.947877    0.249238    0.025373
     33          8           0       -5.843726   -0.591711   -0.004588
     34          8           0       -5.119899    1.465035    0.079052
 ---------------------------------------------------------------------

 SCF Done:  E(RHF) =  -669.535561470     A.U. after   15 cycles
 E2 =    -0.2091237952D+01 EUMP2 =    -0.67162679942181D+03

 The electronic state is 1-A.
 Alpha  occ. eigenvalues --  -20.60721 -20.60716 -15.85773 -11.31129 -11.27699
 Alpha  occ. eigenvalues --  -11.27686 -11.27432 -11.26716 -11.26663 -11.22786
 Alpha  occ. eigenvalues --  -11.22381 -11.22338 -11.22291 -11.22039 -11.21762
 Alpha  occ. eigenvalues --   -1.59797  -1.39350  -1.19299  -1.09377  -1.08696
 Alpha  occ. eigenvalues --   -1.04702  -1.04443  -0.96864  -0.95533  -0.87876
 Alpha  occ. eigenvalues --   -0.86103  -0.82365  -0.80533  -0.79198  -0.77413
 Alpha  occ. eigenvalues --   -0.71992  -0.71120  -0.70409  -0.66024  -0.64950
 Alpha  occ. eigenvalues --   -0.64715  -0.62130  -0.61764  -0.60239  -0.58486
 Alpha  occ. eigenvalues --   -0.56135  -0.55196  -0.53557  -0.53285  -0.53032
 Alpha  occ. eigenvalues --   -0.52801  -0.50793  -0.48857  -0.48748  -0.48720
 Alpha  occ. eigenvalues --   -0.47553  -0.46725  -0.46639  -0.44758  -0.44698
 Alpha  occ. eigenvalues --   -0.37281  -0.36303
 Alpha virt. eigenvalues --    0.05119   0.11340   0.16615   0.19028   0.22349
 Alpha virt. eigenvalues --    0.23110   0.24791   0.25710   0.26201   0.28305
 Alpha virt. eigenvalues --    0.29435   0.30325   0.30648   0.31102   0.32005

 Mulliken charges:
               1
     1  C   -0.298176
     2  C   -0.300349
     3  C   -0.476077
     4  H    0.151209
     5  H    0.142512
     6  H    0.154621
     7  H    0.153591
     8  H    0.153443
     9  H    0.156114
    10  H    0.163188
    11  C   -0.298171
    12  C   -0.304970
    13  C   -0.477155
    14  H    0.153951
    15  H    0.152305
    16  H    0.155200
    17  H    0.141934
    18  H    0.158541
    19  H    0.160714
    20  H    0.158942
    21  C   -0.173614
    22  C   -0.225429
    23  C   -0.171956
    24  C    0.158933
    25  C   -0.171364
    26  C   -0.218570
    27  H    0.225966
    28  H    0.233629
    29  H    0.275693
    30  H    0.275362
    31  H    0.223181
    32  N    0.487952
    33  O   -0.460622
    34  O   -0.460528
 Sum of Mulliken charges =  -0.00000

 Dipole moment (field-independent basis, Debye):
    X=              5.2068    Y=             -1.6485    Z=             -0.0941  Tot=              5.4623
 Quadrupole moment (field-independent basis, Debye-Ang):
   XX=           -128.4767   YY=            -90.2085   ZZ=            -94.8651
   XY=              7.4684   XZ=              0.7786   YZ=              0.7193

 Normal termination of Gaussian 16 at Thu May  6 11:58:30 2021.
