 Gaussian 16, Revision A.03,
 Gaussian 16:  EM64L-G16RevA.03 25-Dec-2016

 -------------
 #p 6-31g* mp2
 -------------

 ------------------------------------------------------
 Input file generated by CHIRIPA (05-May-2021 14:55:22)
 ------------------------------------------------------
 Symbolic Z-matrix:
 Charge =  0 Multiplicity = 1

                         Standard orientation:
 ---------------------------------------------------------------------
 Center     Atomic      Atomic             Coordinates (Angstroms)
 Number     Number       Type             X           Y           Z
 ---------------------------------------------------------------------
      1          6           0        2.073770    1.773053   -0.231775
      2          6           0        3.405720    2.029327   -0.573470
      3          6           0        4.370045    1.021729   -0.476658
      4          6           0        3.965680   -0.236236   -0.032470
      5          6           0        2.646471   -0.522597    0.315343
      6          6           0        1.699057    0.500153    0.210761
      7          1           0        1.331228    2.561665   -0.309998
      8          1           0        3.699596    3.016929   -0.917452
      9          1           0        5.408118    1.192748   -0.734680
     10          1           0        2.383760   -1.517083    0.655046
     11          1           0        0.665373    0.298258    0.476808
     12          7           0        4.977616   -1.310955    0.074133
     13          8           0        4.595840   -2.410785    0.468162
     14          8           0        6.133387   -1.033140   -0.238358
     15          6           0       -5.257650   -0.459217   -0.311807
     16          6           0       -6.720138   -0.551701    0.124728
     17          6           0       -7.497383   -1.626229   -0.636239
     18          1           0       -5.215831   -0.250022   -1.389505
     19          1           0       -4.775694   -1.435569   -0.163995
     20          1           0       -7.198828    0.424913   -0.022569
     21          1           0       -6.758481   -0.760510    1.201549
     22          1           0       -7.046031   -2.611385   -0.480191
     23          1           0       -7.488881   -1.419226   -1.711264
     24          1           0       -8.540452   -1.675165   -0.308409
     25          6           0       -4.467536    0.610537    0.439908
     26          6           0       -3.005050    0.703020    0.003373
     27          6           0       -2.227804    1.777549    0.764340
     28          1           0       -4.949493    1.586889    0.292095
     29          1           0       -4.509355    0.401341    1.517606
     30          1           0       -2.966706    0.911830   -1.073449
     31          1           0       -2.526358   -0.273594    0.150669
     32          1           0       -2.236305    1.570546    1.839365
     33          1           0       -2.679155    2.762705    0.608291
     34          1           0       -1.184735    1.826484    0.436509
 ---------------------------------------------------------------------

 SCF Done:  E(RHF) =  -669.535276842     A.U. after   15 cycles
 E2 =    -0.2091198797D+01 EUMP2 =    -0.67162647563945D+03

 The electronic state is 1-A.
 Alpha  occ. eigenvalues --  -20.60727 -20.60722 -15.85780 -11.31137 -11.27705
 Alpha  occ. eigenvalues --  -11.27697 -11.27441 -11.26725 -11.26679 -11.22614
 Alpha  occ. eigenvalues --  -11.22350 -11.22141 -11.22068 -11.21950 -11.21443
 Alpha  occ. eigenvalues --   -1.59802  -1.39356  -1.19307  -1.09151  -1.08707
 Alpha  occ. eigenvalues --   -1.04711  -1.04293  -0.96756  -0.95543  -0.87776
 Alpha  occ. eigenvalues --   -0.86110  -0.82374  -0.80365  -0.78908  -0.77425
 Alpha  occ. eigenvalues --   -0.71999  -0.71125  -0.70431  -0.65777  -0.64967
 Alpha  occ. eigenvalues --   -0.64768  -0.62121  -0.61667  -0.60134  -0.58333
 Alpha  occ. eigenvalues --   -0.56018  -0.55216  -0.53519  -0.53208  -0.53039
 Alpha  occ. eigenvalues --   -0.52707  -0.50670  -0.48763  -0.48754  -0.48666
 Alpha  occ. eigenvalues --   -0.47381  -0.46460  -0.46351  -0.44764  -0.44537
 Alpha  occ. eigenvalues --   -0.37290  -0.36311
 Alpha virt. eigenvalues --    0.05112   0.11337   0.16607   0.19337   0.22475
 Alpha virt. eigenvalues --    0.23829   0.25700   0.25923   0.26545   0.27186
 Alpha virt. eigenvalues --    0.28607   0.29993   0.30704   0.31466   0.31729

 Mulliken charges:
               1
     1  C   -0.173680
     2  C   -0.218439
     3  C   -0.171191
     4  C    0.158661
     5  C   -0.171348
     6  C   -0.223211
     7  H    0.226875
     8  H    0.223286
     9  H    0.275410
    10  H    0.275477
    11  H    0.230040
    12  N    0.488003
    13  O   -0.460557
    14  O   -0.460533
    15  C   -0.298977
    16  C   -0.300260
    17  C   -0.476146
    18  H    0.150677
    19  H    0.150584
    20  H    0.152501
    21  H    0.152795
    22  H    0.156110
    23  H    0.155775
    24  H    0.161745
    25  C   -0.299049
    26  C   -0.301079
    27  C   -0.481158
    28  H    0.151324
    29  H    0.151376
    30  H    0.154600
    31  H    0.150556
    32  H    0.159966
    33  H    0.160566
    34  H    0.149300
 Sum of Mulliken charges =  -0.00000

 Dipole moment (field-independent basis, Debye):
    X=             -3.8322    Y=              3.7850    Z=             -0.3700  Tot=              5.3990
 Quadrupole moment (field-independent basis, Debye-Ang):
   XX=           -120.2708   YY=            -94.9713   ZZ=            -94.6807
   XY=             17.8362   XZ=             -2.8849   YZ=             -2.0764

 Normal termination of Gaussian 16 at Thu May  6 07:48:10 2021.
