 Gaussian 16, Revision A.03,
 Gaussian 16:  EM64L-G16RevA.03 25-Dec-2016

 -------------
 #p 6-31g* mp2
 -------------

 ------------------------------------------------------
 Input file generated by CHIRIPA (05-May-2021 14:57:21)
 ------------------------------------------------------
 Symbolic Z-matrix:
 Charge =  0 Multiplicity = 1

                         Standard orientation:
 ---------------------------------------------------------------------
 Center     Atomic      Atomic             Coordinates (Angstroms)
 Number     Number       Type             X           Y           Z
 ---------------------------------------------------------------------
      1          6           0       -3.086191   -2.001434    1.086982
      2          6           0       -3.181830   -0.817669    1.825949
      3          6           0       -2.962926    0.420509    1.214766
      4          6           0       -2.648879    0.438124   -0.143304
      5          6           0       -2.546298   -0.723925   -0.906462
      6          6           0       -2.769289   -1.950873   -0.274465
      7          1           0       -3.257829   -2.958919    1.569847
      8          1           0       -3.427784   -0.853905    2.883417
      9          1           0       -3.030529    1.352264    1.763109
     10          1           0       -2.299471   -0.655875   -1.959013
     11          1           0       -2.694340   -2.868595   -0.850846
     12          7           0       -2.414972    1.742984   -0.801353
     13          8           0       -2.139688    1.731547   -1.999153
     14          8           0       -2.511349    2.752461   -0.106872
     15          6           0        3.823923    1.924904    0.713473
     16          6           0        4.588524    0.827205    0.304856
     17          6           0        3.969511   -0.367925   -0.073342
     18          6           0        2.577558   -0.430725   -0.030757
     19          6           0        1.788293    0.645553    0.371704
     20          6           0        2.428708    1.830739    0.745536
     21          1           0        4.313100    2.849447    1.005570
     22          1           0        5.672239    0.897465    0.278972
     23          1           0        4.537197   -1.233065   -0.393784
     24          1           0        0.709810    0.545286    0.387139
     25          1           0        1.832368    2.681618    1.062442
     26          7           0        1.910908   -1.690692   -0.428827
     27          8           0        0.683062   -1.720499   -0.382556
     28          8           0        2.628858   -2.624591   -0.779568
 ---------------------------------------------------------------------

 SCF Done:  E(RHF) =  -868.339241670     A.U. after   16 cycles
 E2 =    -0.2600784236D+01 EUMP2 =    -0.87094002590558D+03

 The electronic state is 1-A.
 Alpha  occ. eigenvalues --  -20.60921 -20.60895 -20.60656 -20.60617 -15.85941
 Alpha  occ. eigenvalues --  -15.85679 -11.31088 -11.30681 -11.27647 -11.27601
 Alpha  occ. eigenvalues --  -11.27323 -11.27288 -11.27100 -11.26838 -11.26623
 Alpha  occ. eigenvalues --  -11.26531 -11.26205 -11.25976  -1.59988  -1.59737
 Alpha  occ. eigenvalues --   -1.39548  -1.39292  -1.19236  -1.18805  -1.08675
 Alpha  occ. eigenvalues --   -1.08274  -1.04599  -1.04127  -0.95553  -0.95167
 Alpha  occ. eigenvalues --   -0.86011  -0.85566  -0.82394  -0.81996  -0.77465
 Alpha  occ. eigenvalues --   -0.77097  -0.72202  -0.71894  -0.71295  -0.71085
 Alpha  occ. eigenvalues --   -0.70343  -0.69917  -0.64892  -0.64596  -0.64453
 Alpha  occ. eigenvalues --   -0.64139  -0.61953  -0.61499  -0.55119  -0.54664
 Alpha  occ. eigenvalues --   -0.52945  -0.52730  -0.52413  -0.52231  -0.48939
 Alpha  occ. eigenvalues --   -0.48923  -0.48671  -0.48621  -0.45009  -0.44768
 Alpha  occ. eigenvalues --   -0.37208  -0.36760  -0.36188  -0.35621
 Alpha virt. eigenvalues --    0.05019   0.05407   0.11460   0.11978   0.16594
 Alpha virt. eigenvalues --    0.16986   0.21520   0.22046   0.27188   0.27983
 Alpha virt. eigenvalues --    0.28211   0.28881   0.30987   0.31588   0.32235

 Mulliken charges:
               1
     1  C   -0.169060
     2  C   -0.218553
     3  C   -0.178402
     4  C    0.149156
     5  C   -0.157592
     6  C   -0.202755
     7  H    0.225338
     8  H    0.220093
     9  H    0.270123
    10  H    0.276181
    11  H    0.228188
    12  N    0.486114
    13  O   -0.459202
    14  O   -0.467673
    15  C   -0.170220
    16  C   -0.218782
    17  C   -0.171040
    18  C    0.156617
    19  C   -0.169574
    20  C   -0.219039
    21  H    0.226517
    22  H    0.222951
    23  H    0.274240
    24  H    0.274697
    25  H    0.230127
    26  N    0.491951
    27  O   -0.468895
    28  O   -0.461507
 Sum of Mulliken charges =  -0.00000

 Dipole moment (field-independent basis, Debye):
    X=              1.5854    Y=             -0.4153    Z=              3.5877  Tot=              3.9443
 Quadrupole moment (field-independent basis, Debye-Ang):
   XX=            -85.3148   YY=           -111.4902   ZZ=           -102.7324
   XY=             21.1474   XZ=             -3.8180   YZ=              3.8459

 Normal termination of Gaussian 16 at Thu May  6 17:50:15 2021.
