 Gaussian 16, Revision A.03,
 Gaussian 16:  EM64L-G16RevA.03 25-Dec-2016

 -------------
 #p 6-31g* mp2
 -------------

 ------------------------------------------------------
 Input file generated by CHIRIPA (05-May-2021 14:53:14)
 ------------------------------------------------------
 Symbolic Z-matrix:
 Charge =  0 Multiplicity = 1

                         Standard orientation:
 ---------------------------------------------------------------------
 Center     Atomic      Atomic             Coordinates (Angstroms)
 Number     Number       Type             X           Y           Z
 ---------------------------------------------------------------------
      1          6           0       -2.421422    0.790003   -0.120910
      2          6           0       -2.356803    1.788840   -1.276822
      3          6           0       -1.762861    3.135325   -0.862085
      4          1           0       -3.018978    1.220470    0.694302
      5          1           0       -1.409708    0.637694    0.279879
      6          1           0       -3.368143    1.938167   -1.676210
      7          1           0       -1.759492    1.355867   -2.089453
      8          1           0       -0.743852    3.006548   -0.483091
      9          1           0       -2.361642    3.592156   -0.067499
     10          1           0       -1.726066    3.834168   -1.703586
     11          6           0       -3.012883   -0.560825   -0.519868
     12          6           0       -3.077502   -1.559662    0.636045
     13          6           0       -3.671444   -2.906146    0.221308
     14          1           0       -4.024597   -0.408516   -0.920657
     15          1           0       -2.415327   -0.991292   -1.335080
     16          1           0       -3.674813   -1.126688    1.448676
     17          1           0       -2.066163   -1.708988    1.035432
     18          1           0       -3.072663   -3.362978   -0.573279
     19          1           0       -4.690453   -2.777370   -0.157687
     20          1           0       -3.708239   -3.604989    1.062809
     21          6           0        3.095877   -1.847306   -1.275866
     22          6           0        3.238469   -0.491570   -1.589186
     23          6           0        2.703375    0.490993   -0.750858
     24          6           0        2.028699    0.080414    0.397848
     25          6           0        1.870064   -1.262328    0.737220
     26          6           0        2.413334   -2.227686   -0.115709
     27          1           0        3.514727   -2.603902   -1.932770
     28          1           0        3.768046   -0.193239   -2.489514
     29          1           0        2.799145    1.547629   -0.969416
     30          1           0        1.336933   -1.528926    1.641716
     31          1           0        2.301063   -3.279828    0.130135
     32          7           0        1.457892    1.111502    1.293077
     33          8           0        0.867911    0.723783    2.299175
     34          8           0        1.611283    2.287866    0.971707
 ---------------------------------------------------------------------

 SCF Done:  E(RHF) =  -669.536311714     A.U. after   15 cycles
 E2 =    -0.2093152631D+01 EUMP2 =    -0.67162946434517D+03

 The electronic state is 1-A.
 Alpha  occ. eigenvalues --  -20.61068 -20.61055 -15.86050 -11.31356 -11.27913
 Alpha  occ. eigenvalues --  -11.27906 -11.27638 -11.26911 -11.26901 -11.21338
 Alpha  occ. eigenvalues --  -11.21030 -11.20985 -11.20969 -11.20766 -11.20069
 Alpha  occ. eigenvalues --   -1.60104  -1.39662  -1.19519  -1.08929  -1.07971
 Alpha  occ. eigenvalues --   -1.04908  -1.03053  -0.95775  -0.95481  -0.86492
 Alpha  occ. eigenvalues --   -0.86310  -0.82608  -0.79126  -0.77769  -0.77649
 Alpha  occ. eigenvalues --   -0.72283  -0.71425  -0.70623  -0.65173  -0.64909
 Alpha  occ. eigenvalues --   -0.64608  -0.62254  -0.60456  -0.58890  -0.57085
 Alpha  occ. eigenvalues --   -0.55412  -0.54780  -0.53239  -0.52997  -0.52191
 Alpha  occ. eigenvalues --   -0.51890  -0.49442  -0.49058  -0.49042  -0.47426
 Alpha  occ. eigenvalues --   -0.46204  -0.45281  -0.45225  -0.44923  -0.43308
 Alpha  occ. eigenvalues --   -0.37491  -0.36504
 Alpha virt. eigenvalues --    0.04808   0.11097   0.16262   0.21096   0.23058
 Alpha virt. eigenvalues --    0.24635   0.26150   0.27246   0.27601   0.28424
 Alpha virt. eigenvalues --    0.28743   0.31022   0.31134   0.32087   0.32217

 Mulliken charges:
               1
     1  C   -0.297849
     2  C   -0.299940
     3  C   -0.483972
     4  H    0.153733
     5  H    0.149656
     6  H    0.148875
     7  H    0.145577
     8  H    0.172569
     9  H    0.156202
    10  H    0.154087
    11  C   -0.298089
    12  C   -0.297998
    13  C   -0.475553
    14  H    0.148546
    15  H    0.145455
    16  H    0.155142
    17  H    0.149165
    18  H    0.151407
    19  H    0.155677
    20  H    0.158722
    21  C   -0.170481
    22  C   -0.218484
    23  C   -0.170980
    24  C    0.156353
    25  C   -0.172206
    26  C   -0.218472
    27  H    0.226346
    28  H    0.224223
    29  H    0.276263
    30  H    0.276560
    31  H    0.224321
    32  N    0.488425
    33  O   -0.456060
    34  O   -0.457220
 Sum of Mulliken charges =  -0.00000

 Dipole moment (field-independent basis, Debye):
    X=              2.1973    Y=             -3.5707    Z=             -2.9970  Tot=              5.1537
 Quadrupole moment (field-independent basis, Debye-Ang):
   XX=            -86.0485   YY=            -94.1745   ZZ=            -95.9474
   XY=             -6.7759   XZ=             -7.6512   YZ=             -3.9568

 Normal termination of Gaussian 16 at Wed May  5 21:52:55 2021.
