 Gaussian 16, Revision A.03,
 Gaussian 16:  EM64L-G16RevA.03 25-Dec-2016

 -------------
 #p 6-31g* mp2
 -------------

 ------------------------------------------------------
 Input file generated by CHIRIPA (05-May-2021 14:55:24)
 ------------------------------------------------------
 Symbolic Z-matrix:
 Charge =  0 Multiplicity = 1

                         Standard orientation:
 ---------------------------------------------------------------------
 Center     Atomic      Atomic             Coordinates (Angstroms)
 Number     Number       Type             X           Y           Z
 ---------------------------------------------------------------------
      1          6           0       -2.010487    1.997185   -1.035505
      2          6           0       -1.271427    1.080313   -0.280748
      3          6           0       -1.872328   -0.082149    0.211336
      4          6           0       -3.220321   -0.297026   -0.071563
      5          6           0       -3.983291    0.597477   -0.820583
      6          6           0       -3.361678    1.753271   -1.302542
      7          1           0       -1.535647    2.897624   -1.413835
      8          1           0       -0.221911    1.267137   -0.071806
      9          1           0       -1.323667   -0.808725    0.798258
     10          1           0       -5.027778    0.383816   -1.012452
     11          1           0       -3.938104    2.463569   -1.888422
     12          7           0       -3.867432   -1.524143    0.444025
     13          8           0       -5.056470   -1.690296    0.180932
     14          8           0       -3.173345   -2.296569    1.101474
     15          6           0        4.225203   -0.600092    0.125964
     16          6           0        5.375759   -0.757212   -0.868781
     17          6           0        5.844269   -2.206097   -1.006709
     18          1           0        4.542717   -0.979247    1.106969
     19          1           0        3.383688   -1.229560   -0.194997
     20          1           0        6.214347   -0.126570   -0.546791
     21          1           0        5.055534   -0.377462   -1.847485
     22          1           0        5.024412   -2.845006   -1.350558
     23          1           0        6.189809   -2.592688   -0.042474
     24          1           0        6.667237   -2.295487   -1.722665
     25          6           0        3.745791    0.842735    0.274774
     26          6           0        2.595234    0.999855    1.269519
     27          6           0        2.126725    2.448740    1.407447
     28          1           0        4.587306    1.472203    0.595736
     29          1           0        3.428277    1.221890   -0.706231
     30          1           0        2.915460    0.620105    2.248224
     31          1           0        1.756646    0.369213    0.947530
     32          1           0        1.781184    2.835332    0.443212
     33          1           0        2.946582    3.087648    1.751297
     34          1           0        1.303757    2.538130    2.123403
 ---------------------------------------------------------------------

 SCF Done:  E(RHF) =  -669.535216692     A.U. after   15 cycles
 E2 =    -0.2091734302D+01 EUMP2 =    -0.67162695099431D+03

 The electronic state is 1-A.
 Alpha  occ. eigenvalues --  -20.60725 -20.60720 -15.85777 -11.31134 -11.27700
 Alpha  occ. eigenvalues --  -11.27686 -11.27431 -11.26718 -11.26641 -11.22659
 Alpha  occ. eigenvalues --  -11.22193 -11.22180 -11.22056 -11.21944 -11.21394
 Alpha  occ. eigenvalues --   -1.59801  -1.39354  -1.19300  -1.09167  -1.08696
 Alpha  occ. eigenvalues --   -1.04709  -1.04269  -0.96709  -0.95535  -0.87721
 Alpha  occ. eigenvalues --   -0.86100  -0.82371  -0.80354  -0.78921  -0.77422
 Alpha  occ. eigenvalues --   -0.71996  -0.71124  -0.70414  -0.65910  -0.64951
 Alpha  occ. eigenvalues --   -0.64692  -0.62260  -0.61450  -0.60084  -0.58291
 Alpha  occ. eigenvalues --   -0.56022  -0.55183  -0.53407  -0.53117  -0.53025
 Alpha  occ. eigenvalues --   -0.52744  -0.50667  -0.48760  -0.48752  -0.48636
 Alpha  occ. eigenvalues --   -0.47418  -0.46462  -0.46367  -0.44762  -0.44495
 Alpha  occ. eigenvalues --   -0.37282  -0.36302
 Alpha virt. eigenvalues --    0.05113   0.11334   0.16599   0.19104   0.22780
 Alpha virt. eigenvalues --    0.23853   0.25128   0.25959   0.27036   0.28384
 Alpha virt. eigenvalues --    0.28820   0.30634   0.30903   0.31086   0.32003

 Mulliken charges:
               1
     1  C   -0.173092
     2  C   -0.227914
     3  C   -0.174769
     4  C    0.159025
     5  C   -0.171435
     6  C   -0.218383
     7  H    0.225470
     8  H    0.239905
     9  H    0.275292
    10  H    0.275363
    11  H    0.223117
    12  N    0.488072
    13  O   -0.460706
    14  O   -0.460515
    15  C   -0.299148
    16  C   -0.300183
    17  C   -0.476290
    18  H    0.152216
    19  H    0.150242
    20  H    0.152686
    21  H    0.151834
    22  H    0.156673
    23  H    0.156455
    24  H    0.161606
    25  C   -0.298103
    26  C   -0.305344
    27  C   -0.481605
    28  H    0.152931
    29  H    0.147584
    30  H    0.159850
    31  H    0.144334
    32  H    0.146743
    33  H    0.163501
    34  H    0.164588
 Sum of Mulliken charges =  -0.00000

 Dipole moment (field-independent basis, Debye):
    X=              2.5305    Y=              4.3195    Z=             -1.7483  Tot=              5.3027
 Quadrupole moment (field-independent basis, Debye-Ang):
   XX=           -104.7375   YY=            -98.4511   ZZ=            -93.5735
   XY=            -15.5809   XZ=              8.7050   YZ=             -0.4342

 Normal termination of Gaussian 16 at Thu May  6 14:21:09 2021.
