 Gaussian 16, Revision A.03,
 Gaussian 16:  EM64L-G16RevA.03 25-Dec-2016

 -------------
 #p 6-31g* mp2
 -------------

 ------------------------------------------------------
 Input file generated by CHIRIPA (05-May-2021 14:51:10)
 ------------------------------------------------------
 Symbolic Z-matrix:
 Charge =  0 Multiplicity = 1

                         Standard orientation:
 ---------------------------------------------------------------------
 Center     Atomic      Atomic             Coordinates (Angstroms)
 Number     Number       Type             X           Y           Z
 ---------------------------------------------------------------------
      1          6           0        4.878302   -0.406138    0.407035
      2          6           0        5.741052   -1.210579   -0.565859
      3          6           0        6.656051   -2.209832    0.142705
      4          1           0        5.531290    0.127729    1.110978
      5          1           0        4.271727   -1.098573    1.007032
      6          1           0        6.344801   -0.516766   -1.164798
      7          1           0        5.085939   -1.742442   -1.267688
      8          1           0        6.067091   -2.924730    0.726356
      9          1           0        7.333105   -1.692090    0.829831
     10          1           0        7.263799   -2.774079   -0.571528
     11          6           0        3.958199    0.597078   -0.286289
     12          6           0        3.095449    1.401518    0.686605
     13          6           0        2.180450    2.400772   -0.021959
     14          1           0        4.564774    1.289513   -0.886286
     15          1           0        3.305211    0.063210   -0.990232
     16          1           0        3.750562    1.933381    1.388434
     17          1           0        2.491700    0.707705    1.285544
     18          1           0        1.503396    1.883029   -0.709085
     19          1           0        2.769410    3.115669   -0.605610
     20          1           0        1.572702    2.965018    0.692274
     21          6           0       -3.665289   -0.192275   -0.144695
     22          6           0       -2.884162    1.121929   -0.171044
     23          6           0       -1.379173    0.911802   -0.340302
     24          1           0       -3.286931   -0.819988    0.673697
     25          1           0       -3.473503   -0.743462   -1.075719
     26          1           0       -3.078456    1.671109    0.759154
     27          1           0       -3.264553    1.746666   -0.989349
     28          1           0       -1.166560    0.385546   -1.276492
     29          1           0       -0.979405    0.309561    0.481945
     30          1           0       -0.840157    1.864200   -0.356517
     31          6           0       -5.171212    0.001335    0.023950
     32          6           0       -5.952339   -1.312868    0.050297
     33          6           0       -7.457328   -1.102742    0.219557
     34          1           0       -5.362998    0.552523    0.954973
     35          1           0       -5.549570    0.629049   -0.794444
     36          1           0       -5.571948   -1.937604    0.868602
     37          1           0       -5.758045   -1.862049   -0.879900
     38          1           0       -7.857096   -0.500499   -0.602691
     39          1           0       -7.669942   -0.576485    1.155745
     40          1           0       -7.996344   -2.055138    0.235770
 ---------------------------------------------------------------------

 SCF Done:  E(RHF) =  -470.732796425     A.U. after   11 cycles
 E2 =    -0.1582493732D+01 EUMP2 =    -0.47231529015739D+03

 The electronic state is 1-A.
 Alpha  occ. eigenvalues --  -11.21600 -11.21581 -11.21577 -11.21544 -11.21397
 Alpha  occ. eigenvalues --  -11.21366 -11.21338 -11.21306 -11.21070 -11.21052
 Alpha  occ. eigenvalues --  -11.21014 -11.20956  -1.08424  -1.08386  -1.03539
 Alpha  occ. eigenvalues --   -1.03466  -0.96030  -0.95881  -0.87087  -0.86865
 Alpha  occ. eigenvalues --   -0.79650  -0.79491  -0.78239  -0.78199  -0.65054
 Alpha  occ. eigenvalues --   -0.65019  -0.60941  -0.60898  -0.59412  -0.59241
 Alpha  occ. eigenvalues --   -0.57590  -0.57544  -0.55278  -0.55233  -0.52855
 Alpha  occ. eigenvalues --   -0.52535  -0.52378  -0.52281  -0.49914  -0.49825
 Alpha  occ. eigenvalues --   -0.47902  -0.47865  -0.46628  -0.46568  -0.45785
 Alpha  occ. eigenvalues --   -0.45738  -0.45706  -0.45666  -0.43818  -0.43634
 Alpha virt. eigenvalues --    0.22250   0.22979   0.23664   0.24813   0.26472
 Alpha virt. eigenvalues --    0.26583   0.27221   0.27530   0.27568   0.28965
 Alpha virt. eigenvalues --    0.30575   0.30979   0.31221   0.31955   0.32221

 Mulliken charges:
               1
     1  C   -0.298271
     2  C   -0.299627
     3  C   -0.475678
     4  H    0.149526
     5  H    0.149446
     6  H    0.151863
     7  H    0.151935
     8  H    0.155134
     9  H    0.155124
    10  H    0.160163
    11  C   -0.298610
    12  C   -0.299454
    13  C   -0.480166
    14  H    0.149333
    15  H    0.150093
    16  H    0.151452
    17  H    0.152034
    18  H    0.162762
    19  H    0.154094
    20  H    0.159206
    21  C   -0.298464
    22  C   -0.300060
    23  C   -0.479565
    24  H    0.149409
    25  H    0.149332
    26  H    0.151832
    27  H    0.151911
    28  H    0.153677
    29  H    0.154666
    30  H    0.166958
    31  C   -0.298247
    32  C   -0.299591
    33  C   -0.475691
    34  H    0.149501
    35  H    0.149645
    36  H    0.151871
    37  H    0.151872
    38  H    0.155185
    39  H    0.155181
    40  H    0.160221
 Sum of Mulliken charges =  -0.00000

 Dipole moment (field-independent basis, Debye):
    X=             -0.0058    Y=              0.0116    Z=             -0.0095  Tot=              0.0160
 Quadrupole moment (field-independent basis, Debye-Ang):
   XX=            -86.1817   YY=            -84.9061   ZZ=            -83.8962
   XY=              1.0075   XZ=              0.0043   YZ=              0.2573

 Normal termination of Gaussian 16 at Wed May  5 18:13:23 2021.
