 Gaussian 16, Revision A.03,
 Gaussian 16:  EM64L-G16RevA.03 25-Dec-2016

 -------------
 #p 6-31g* mp2
 -------------

 ------------------------------------------------------
 Input file generated by CHIRIPA (05-May-2021 14:57:22)
 ------------------------------------------------------
 Symbolic Z-matrix:
 Charge =  0 Multiplicity = 1

                         Standard orientation:
 ---------------------------------------------------------------------
 Center     Atomic      Atomic             Coordinates (Angstroms)
 Number     Number       Type             X           Y           Z
 ---------------------------------------------------------------------
      1          6           0       -3.020117    2.715239    0.452000
      2          6           0       -3.964313    1.879321    1.057191
      3          6           0       -3.981594    0.509341    0.778972
      4          6           0       -3.035881    0.006654   -0.113341
      5          6           0       -2.082545    0.813720   -0.732280
      6          6           0       -2.083897    2.180713   -0.439232
      7          1           0       -3.013930    3.778312    0.673887
      8          1           0       -4.692590    2.291677    1.749737
      9          1           0       -4.701432   -0.160546    1.233398
     10          1           0       -1.369168    0.373548   -1.418398
     11          1           0       -1.349456    2.827514   -0.910709
     12          7           0       -3.044313   -1.442101   -0.415727
     13          8           0       -2.200496   -1.860388   -1.205440
     14          8           0       -3.894578   -2.131915    0.142700
     15          6           0        1.768998   -2.387090    0.485083
     16          6           0        1.613039   -1.709143   -0.728418
     17          6           0        2.309205   -0.521650   -0.972875
     18          6           0        3.156834   -0.038378    0.022746
     19          6           0        3.333368   -0.690841    1.241934
     20          6           0        2.627152   -1.876675    1.464660
     21          1           0        1.224297   -3.308919    0.666543
     22          1           0        0.947266   -2.103201   -1.490986
     23          1           0        2.207124    0.023482   -1.903374
     24          1           0        4.004226   -0.273400    1.982954
     25          1           0        2.750230   -2.401051    2.408019
     26          7           0        3.899154    1.217889   -0.224546
     27          8           0        4.639852    1.622861    0.668762
     28          8           0        3.726229    1.773792   -1.306999
 ---------------------------------------------------------------------

 SCF Done:  E(RHF) =  -868.340185708     A.U. after   16 cycles
 E2 =    -0.2599108635D+01 EUMP2 =    -0.87093929434286D+03

 The electronic state is 1-A.
 Alpha  occ. eigenvalues --  -20.61472 -20.61422 -20.60807 -20.60792 -15.86486
 Alpha  occ. eigenvalues --  -15.85846 -11.31569 -11.31040 -11.28113 -11.28099
 Alpha  occ. eigenvalues --  -11.27761 -11.27567 -11.27553 -11.27133 -11.27051
 Alpha  occ. eigenvalues --  -11.27008 -11.26531 -11.26371  -1.60515  -1.59883
 Alpha  occ. eigenvalues --   -1.40080  -1.39441  -1.19708  -1.19160  -1.09149
 Alpha  occ. eigenvalues --   -1.08558  -1.05068  -1.04527  -0.96036  -0.95438
 Alpha  occ. eigenvalues --   -0.86477  -0.85905  -0.82884  -0.82275  -0.77972
 Alpha  occ. eigenvalues --   -0.77364  -0.72725  -0.72064  -0.71821  -0.71208
 Alpha  occ. eigenvalues --   -0.70812  -0.70213  -0.65366  -0.65060  -0.64788
 Alpha  occ. eigenvalues --   -0.64458  -0.62431  -0.61858  -0.55565  -0.54945
 Alpha  occ. eigenvalues --   -0.53412  -0.53165  -0.52861  -0.52571  -0.49482
 Alpha  occ. eigenvalues --   -0.49436  -0.48836  -0.48799  -0.45546  -0.44887
 Alpha  occ. eigenvalues --   -0.37662  -0.37088  -0.36672  -0.36122
 Alpha virt. eigenvalues --    0.04530   0.05123   0.10990   0.11530   0.16096
 Alpha virt. eigenvalues --    0.16639   0.20766   0.21993   0.26198   0.27482
 Alpha virt. eigenvalues --    0.28579   0.28950   0.30673   0.31426   0.32636

 Mulliken charges:
               1
     1  C   -0.169917
     2  C   -0.218564
     3  C   -0.171192
     4  C    0.157706
     5  C   -0.168329
     6  C   -0.218796
     7  H    0.228656
     8  H    0.224698
     9  H    0.275313
    10  H    0.270142
    11  H    0.229231
    12  N    0.490137
    13  O   -0.471028
    14  O   -0.457949
    15  C   -0.172276
    16  C   -0.220440
    17  C   -0.179220
    18  C    0.158594
    19  C   -0.172599
    20  C   -0.218761
    21  H    0.232822
    22  H    0.240791
    23  H    0.270884
    24  H    0.273942
    25  H    0.223238
    26  N    0.487886
    27  O   -0.460839
    28  O   -0.464128
 Sum of Mulliken charges =  -0.00000

 Dipole moment (field-independent basis, Debye):
    X=             -2.8009    Y=              0.6260    Z=              2.0170  Tot=              3.5079
 Quadrupole moment (field-independent basis, Debye-Ang):
   XX=           -118.9622   YY=           -104.7936   ZZ=            -99.7559
   XY=            -29.8140   XZ=             -1.2970   YZ=             -1.4611

 Normal termination of Gaussian 16 at Fri May  7 04:50:47 2021.
