 Gaussian 16, Revision A.03,
 Gaussian 16:  EM64L-G16RevA.03 25-Dec-2016

 -------------
 #p 6-31g* mp2
 -------------

 ------------------------------------------------------
 Input file generated by CHIRIPA (05-May-2021 14:53:12)
 ------------------------------------------------------
 Symbolic Z-matrix:
 Charge =  0 Multiplicity = 1

                         Standard orientation:
 ---------------------------------------------------------------------
 Center     Atomic      Atomic             Coordinates (Angstroms)
 Number     Number       Type             X           Y           Z
 ---------------------------------------------------------------------
      1          6           0        3.612997    0.458285   -0.325977
      2          6           0        3.341687    1.746539    0.451698
      3          6           0        2.162011    2.539674   -0.111414
      4          1           0        3.805401    0.706627   -1.378713
      5          1           0        2.709619   -0.167110   -0.312426
      6          1           0        4.245753    2.368703    0.437857
      7          1           0        3.150095    1.495117    1.502743
      8          1           0        1.246128    1.940569   -0.082551
      9          1           0        2.348011    2.819117   -1.153487
     10          1           0        1.985701    3.456675    0.459448
     11          6           0        4.789417   -0.345593    0.224971
     12          6           0        5.060727   -1.633847   -0.552704
     13          6           0        6.240403   -2.426982    0.010408
     14          1           0        5.692795    0.279802    0.211420
     15          1           0        4.597013   -0.593935    1.277706
     16          1           0        5.252319   -1.382426   -1.603749
     17          1           0        4.156661   -2.256011   -0.538863
     18          1           0        6.054403   -2.706426    1.052481
     19          1           0        7.156286   -1.827877   -0.018456
     20          1           0        6.416713   -3.343983   -0.560454
     21          6           0       -1.685940    1.907449    0.137782
     22          6           0       -2.387457    1.635649   -1.041420
     23          6           0       -3.274481    0.557042   -1.107317
     24          6           0       -3.436513   -0.232681    0.029950
     25          6           0       -2.752044    0.012469    1.219359
     26          6           0       -1.870147    1.096421    1.262426
     27          1           0       -0.998870    2.747413    0.180105
     28          1           0       -2.246388    2.263810   -1.916382
     29          1           0       -3.830342    0.323991   -2.007386
     30          1           0       -2.913622   -0.631570    2.075235
     31          1           0       -1.326678    1.305131    2.179555
     32          7           0       -4.372851   -1.377383   -0.027727
     33          8           0       -4.497913   -2.058053    0.987992
     34          8           0       -4.963962   -1.572257   -1.087562
 ---------------------------------------------------------------------

 SCF Done:  E(RHF) =  -669.535303947     A.U. after   15 cycles
 E2 =    -0.2091439094D+01 EUMP2 =    -0.67162674304053D+03

 The electronic state is 1-A.
 Alpha  occ. eigenvalues --  -20.60769 -20.60764 -15.85823 -11.31192 -11.27764
 Alpha  occ. eigenvalues --  -11.27757 -11.27445 -11.26775 -11.26757 -11.22345
 Alpha  occ. eigenvalues --  -11.22050 -11.21932 -11.21916 -11.21790 -11.21322
 Alpha  occ. eigenvalues --   -1.59845  -1.39398  -1.19366  -1.08954  -1.08756
 Alpha  occ. eigenvalues --   -1.04767  -1.04091  -0.96567  -0.95587  -0.87593
 Alpha  occ. eigenvalues --   -0.86161  -0.82424  -0.80170  -0.78727  -0.77470
 Alpha  occ. eigenvalues --   -0.72040  -0.71168  -0.70479  -0.65582  -0.65012
 Alpha  occ. eigenvalues --   -0.64766  -0.62113  -0.61493  -0.59950  -0.58153
 Alpha  occ. eigenvalues --   -0.55989  -0.55169  -0.53266  -0.53172  -0.52881
 Alpha  occ. eigenvalues --   -0.52853  -0.50474  -0.48800  -0.48795  -0.48469
 Alpha  occ. eigenvalues --   -0.47175  -0.46279  -0.46176  -0.44803  -0.44333
 Alpha  occ. eigenvalues --   -0.37305  -0.36377
 Alpha virt. eigenvalues --    0.05024   0.11261   0.16427   0.20980   0.22463
 Alpha virt. eigenvalues --    0.23905   0.26181   0.26506   0.27070   0.27348
 Alpha virt. eigenvalues --    0.28965   0.30207   0.30988   0.31361   0.32077

 Mulliken charges:
               1
     1  C   -0.299425
     2  C   -0.298454
     3  C   -0.485683
     4  H    0.150522
     5  H    0.151568
     6  H    0.154523
     7  H    0.151197
     8  H    0.155785
     9  H    0.158030
    10  H    0.156408
    11  C   -0.298706
    12  C   -0.300235
    13  C   -0.476012
    14  H    0.150098
    15  H    0.149861
    16  H    0.152396
    17  H    0.153368
    18  H    0.155617
    19  H    0.155294
    20  H    0.161791
    21  C   -0.171902
    22  C   -0.220611
    23  C   -0.170855
    24  C    0.158541
    25  C   -0.170799
    26  C   -0.221025
    27  H    0.232504
    28  H    0.224055
    29  H    0.275640
    30  H    0.275512
    31  H    0.223802
    32  N    0.488068
    33  O   -0.460507
    34  O   -0.460365
 Sum of Mulliken charges =  -0.00000

 Dipole moment (field-independent basis, Debye):
    X=              3.4070    Y=              3.9851    Z=              0.1719  Tot=              5.2458
 Quadrupole moment (field-independent basis, Debye-Ang):
   XX=           -117.8220   YY=            -97.3912   ZZ=            -89.9779
   XY=            -14.2835   XZ=             -0.1011   YZ=             -1.3412

 Normal termination of Gaussian 16 at Wed May  5 15:29:07 2021.
