 Gaussian 16, Revision A.03,
 Gaussian 16:  EM64L-G16RevA.03 25-Dec-2016

 -------------
 #p 6-31g* mp2
 -------------

 ------------------------------------------------------
 Input file generated by CHIRIPA (05-May-2021 14:57:24)
 ------------------------------------------------------
 Symbolic Z-matrix:
 Charge =  0 Multiplicity = 1

                         Standard orientation:
 ---------------------------------------------------------------------
 Center     Atomic      Atomic             Coordinates (Angstroms)
 Number     Number       Type             X           Y           Z
 ---------------------------------------------------------------------
      1          6           0       -3.601936    2.232144    0.926808
      2          6           0       -4.620849    1.317698    1.213382
      3          6           0       -4.582746    0.023735    0.685409
      4          6           0       -3.506061   -0.323687   -0.129045
      5          6           0       -2.475736    0.564779   -0.432936
      6          6           0       -2.534513    1.853434    0.106010
      7          1           0       -3.639565    3.235264    1.341212
      8          1           0       -5.451043    1.609045    1.850516
      9          1           0       -5.358182   -0.704157    0.891057
     10          1           0       -1.661008    0.245214   -1.071304
     11          1           0       -1.741810    2.561512   -0.118246
     12          7           0       -3.454780   -1.690738   -0.693795
     13          8           0       -2.495369   -1.972218   -1.408594
     14          8           0       -4.374967   -2.454867   -0.410954
     15          6           0        2.423210    2.198751   -0.837774
     16          6           0        3.813891    2.058359   -0.890849
     17          6           0        4.429346    0.898958   -0.409649
     18          6           0        3.620016   -0.104675    0.120438
     19          6           0        2.231963    0.005527    0.187175
     20          6           0        1.638069    1.173694   -0.299879
     21          1           0        1.953485    3.102806   -1.213857
     22          1           0        4.426147    2.852799   -1.308046
     23          1           0        5.503774    0.764088   -0.438509
     24          1           0        1.648022   -0.803617    0.608741
     25          1           0        0.557818    1.279980   -0.257380
     26          7           0        4.260157   -1.336722    0.632962
     27          8           0        3.524860   -2.206397    1.095173
     28          8           0        5.485077   -1.409394    0.562764
 ---------------------------------------------------------------------

 SCF Done:  E(RHF) =  -868.336059158     A.U. after   16 cycles
 E2 =    -0.2600678017D+01 EUMP2 =    -0.87093673717520D+03

 The electronic state is 1-A.
 Alpha  occ. eigenvalues --  -20.61283 -20.61274 -20.60827 -20.60812 -15.86345
 Alpha  occ. eigenvalues --  -15.85883 -11.31906 -11.31395 -11.28592 -11.28443
 Alpha  occ. eigenvalues --  -11.28255 -11.28010 -11.28001 -11.27866 -11.27668
 Alpha  occ. eigenvalues --  -11.27472 -11.27162 -11.27044  -1.60353  -1.59895
 Alpha  occ. eigenvalues --   -1.39903  -1.39443  -1.20102  -1.19613  -1.09445
 Alpha  occ. eigenvalues --   -1.08998  -1.05565  -1.05044  -0.96251  -0.95794
 Alpha  occ. eigenvalues --   -0.86929  -0.86462  -0.83112  -0.82623  -0.78147
 Alpha  occ. eigenvalues --   -0.77616  -0.72556  -0.72100  -0.71682  -0.71220
 Alpha  occ. eigenvalues --   -0.71197  -0.70747  -0.65784  -0.65580  -0.65275
 Alpha  occ. eigenvalues --   -0.65122  -0.62994  -0.62271  -0.56008  -0.55589
 Alpha  occ. eigenvalues --   -0.53855  -0.53665  -0.53350  -0.53135  -0.49329
 Alpha  occ. eigenvalues --   -0.49301  -0.48875  -0.48841  -0.45266  -0.44816
 Alpha  occ. eigenvalues --   -0.38054  -0.37625  -0.37158  -0.36641
 Alpha virt. eigenvalues --    0.04407   0.04918   0.10483   0.10980   0.15726
 Alpha virt. eigenvalues --    0.16311   0.18577   0.22108   0.25019   0.26682
 Alpha virt. eigenvalues --    0.27982   0.29241   0.30128   0.31017   0.32258

 Mulliken charges:
               1
     1  C   -0.170030
     2  C   -0.217892
     3  C   -0.169158
     4  C    0.159791
     5  C   -0.175975
     6  C   -0.219219
     7  H    0.227740
     8  H    0.226837
     9  H    0.278903
    10  H    0.273139
    11  H    0.215882
    12  N    0.488253
    13  O   -0.459483
    14  O   -0.456866
    15  C   -0.171733
    16  C   -0.218365
    17  C   -0.169746
    18  C    0.158946
    19  C   -0.170171
    20  C   -0.223661
    21  H    0.221747
    22  H    0.224103
    23  H    0.277038
    24  H    0.280987
    25  H    0.218282
    26  N    0.487958
    27  O   -0.457080
    28  O   -0.460227
 Sum of Mulliken charges =  -0.00000

 Dipole moment (field-independent basis, Debye):
    X=             -2.5766    Y=              8.9675    Z=              0.2877  Tot=              9.3348
 Quadrupole moment (field-independent basis, Debye-Ang):
   XX=           -110.4115   YY=           -109.1129   ZZ=           -105.8153
   XY=              1.9977   XZ=            -17.7279   YZ=             -1.5286

 Normal termination of Gaussian 16 at Thu May  6 01:52:55 2021.
