 Gaussian 16, Revision A.03,
 Gaussian 16:  EM64L-G16RevA.03 25-Dec-2016

 -------------
 #p 6-31g* mp2
 -------------

 ------------------------------------------------------
 Input file generated by CHIRIPA (05-May-2021 14:51:08)
 ------------------------------------------------------
 Symbolic Z-matrix:
 Charge =  0 Multiplicity = 1

                         Standard orientation:
 ---------------------------------------------------------------------
 Center     Atomic      Atomic             Coordinates (Angstroms)
 Number     Number       Type             X           Y           Z
 ---------------------------------------------------------------------
      1          6           0       -3.628267   -0.512897    0.348427
      2          6           0       -4.076508   -1.669189   -0.546031
      3          6           0       -3.986126   -3.026285    0.152479
      4          1           0       -2.594665   -0.690293    0.675753
      5          1           0       -4.246107   -0.500540    1.257006
      6          1           0       -3.458920   -1.678515   -1.453287
      7          1           0       -5.109098   -1.488924   -0.871421
      8          1           0       -4.616086   -3.041462    1.047756
      9          1           0       -2.956532   -3.232130    0.462584
     10          1           0       -4.311274   -3.838640   -0.504953
     11          6           0       -3.712914    0.850326   -0.335815
     12          6           0       -3.264674    2.006618    0.558642
     13          6           0       -3.355056    3.363714   -0.139867
     14          1           0       -3.095074    0.837969   -1.244394
     15          1           0       -4.746516    1.027722   -0.663141
     16          1           0       -2.232084    1.826353    0.884033
     17          1           0       -3.882262    2.015944    1.465899
     18          1           0       -4.384650    3.569559   -0.449972
     19          1           0       -2.725096    3.378891   -1.035144
     20          1           0       -3.029907    4.176069    0.517565
     21          6           0        4.284189    0.262237   -0.151943
     22          6           0        5.605021   -0.428262    0.189518
     23          6           0        6.823410    0.446484   -0.107367
     24          1           0        4.287313    0.540578   -1.214704
     25          1           0        4.210913    1.199740    0.416489
     26          1           0        5.675155   -1.364867   -0.378343
     27          1           0        5.598674   -0.705163    1.251547
     28          1           0        6.780575    1.375542    0.470231
     29          1           0        6.857490    0.712089   -1.168919
     30          1           0        7.756873   -0.066609    0.144112
     31          6           0        3.056993   -0.599666    0.139331
     32          6           0        1.736160    0.090833   -0.202130
     33          6           0        0.517772   -0.783913    0.094755
     34          1           0        3.130269   -1.537169   -0.429101
     35          1           0        3.053868   -0.878007    1.202092
     36          1           0        1.742508    0.367735   -1.264157
     37          1           0        1.666026    1.027439    0.365732
     38          1           0        0.483691   -1.049517    1.156307
     39          1           0        0.560607   -1.712971   -0.482843
     40          1           0       -0.415691   -0.270820   -0.156723
 ---------------------------------------------------------------------

 SCF Done:  E(RHF) =  -470.733150066     A.U. after   11 cycles
 E2 =    -0.1582993813D+01 EUMP2 =    -0.47231614387898D+03

 The electronic state is 1-A.
 Alpha  occ. eigenvalues --  -11.21681 -11.21631 -11.21591 -11.21538 -11.21453
 Alpha  occ. eigenvalues --  -11.21391 -11.21364 -11.21259 -11.21169 -11.21094
 Alpha  occ. eigenvalues --  -11.21062 -11.21006  -1.08485  -1.08388  -1.03589
 Alpha  occ. eigenvalues --   -1.03489  -0.96054  -0.95930  -0.87070  -0.86949
 Alpha  occ. eigenvalues --   -0.79665  -0.79547  -0.78296  -0.78193  -0.65115
 Alpha  occ. eigenvalues --   -0.65065  -0.60986  -0.60886  -0.59416  -0.59306
 Alpha  occ. eigenvalues --   -0.57668  -0.57536  -0.55334  -0.55232  -0.52771
 Alpha  occ. eigenvalues --   -0.52629  -0.52464  -0.52337  -0.49984  -0.49874
 Alpha  occ. eigenvalues --   -0.47973  -0.47870  -0.46688  -0.46588  -0.45842
 Alpha  occ. eigenvalues --   -0.45762  -0.45734  -0.45665  -0.43790  -0.43716
 Alpha virt. eigenvalues --    0.20515   0.23002   0.24007   0.24689   0.26148
 Alpha virt. eigenvalues --    0.26600   0.27224   0.27409   0.27767   0.29215
 Alpha virt. eigenvalues --    0.30562   0.31289   0.31757   0.31924   0.32231

 Mulliken charges:
               1
     1  C   -0.305191
     2  C   -0.299108
     3  C   -0.476063
     4  H    0.157305
     5  H    0.149277
     6  H    0.151731
     7  H    0.151545
     8  H    0.154878
     9  H    0.156128
    10  H    0.159831
    11  C   -0.298985
    12  C   -0.301200
    13  C   -0.475575
    14  H    0.149016
    15  H    0.149900
    16  H    0.152712
    17  H    0.152144
    18  H    0.155217
    19  H    0.155134
    20  H    0.160156
    21  C   -0.298323
    22  C   -0.299676
    23  C   -0.475736
    24  H    0.149717
    25  H    0.149657
    26  H    0.151987
    27  H    0.152028
    28  H    0.155250
    29  H    0.155221
    30  H    0.160368
    31  C   -0.298672
    32  C   -0.299655
    33  C   -0.482351
    34  H    0.149670
    35  H    0.149854
    36  H    0.152051
    37  H    0.152204
    38  H    0.155589
    39  H    0.155610
    40  H    0.166357
 Sum of Mulliken charges =  -0.00000

 Dipole moment (field-independent basis, Debye):
    X=              0.0413    Y=             -0.0056    Z=              0.0082  Tot=              0.0425
 Quadrupole moment (field-independent basis, Debye-Ang):
   XX=            -84.9035   YY=            -86.0340   ZZ=            -83.9248
   XY=             -0.6334   XZ=             -0.2398   YZ=              0.8782

 Normal termination of Gaussian 16 at Wed May  5 15:04:24 2021.
