 Gaussian 16, Revision A.03,
 Gaussian 16:  EM64L-G16RevA.03 25-Dec-2016

 -------------
 #p 6-31g* mp2
 -------------

 ------------------------------------------------------
 Input file generated by CHIRIPA (05-May-2021 14:55:24)
 ------------------------------------------------------
 Symbolic Z-matrix:
 Charge =  0 Multiplicity = 1

                         Standard orientation:
 ---------------------------------------------------------------------
 Center     Atomic      Atomic             Coordinates (Angstroms)
 Number     Number       Type             X           Y           Z
 ---------------------------------------------------------------------
      1          6           0        0.644679   -0.173128    1.137164
      2          6           0        0.826842    0.370882   -0.138528
      3          6           0        2.101734    0.431687   -0.709055
      4          6           0        3.177010   -0.062902    0.027460
      5          6           0        3.027761   -0.610791    1.300579
      6          6           0        1.743783   -0.661367    1.851387
      7          1           0       -0.349217   -0.216390    1.572704
      8          1           0       -0.024906    0.750808   -0.695508
      9          1           0        2.271210    0.847653   -1.694787
     10          1           0        3.896111   -0.981584    1.831521
     11          1           0        1.605295   -1.084396    2.842302
     12          7           0        4.531491   -0.003945   -0.566093
     13          8           0        5.462528   -0.446379    0.103279
     14          8           0        4.636448    0.483583   -1.689453
     15          6           0       -4.057306   -0.575799    0.084105
     16          6           0       -3.777994   -1.734138   -0.874134
     17          6           0       -4.337256   -3.065349   -0.371247
     18          1           0       -3.625081   -0.808910    1.066850
     19          1           0       -5.142241   -0.485888    0.233181
     20          1           0       -2.693981   -1.820958   -1.022442
     21          1           0       -4.210767   -1.498159   -1.854765
     22          1           0       -5.422439   -3.002606   -0.240714
     23          1           0       -3.897036   -3.327239    0.596339
     24          1           0       -4.126295   -3.879612   -1.071484
     25          6           0       -3.504359    0.761705   -0.404835
     26          6           0       -3.783670    1.920042    0.553405
     27          6           0       -3.224408    3.251254    0.050518
     28          1           0       -2.419422    0.671793   -0.553910
     29          1           0       -3.936582    0.994815   -1.387580
     30          1           0       -3.350896    1.684063    1.534036
     31          1           0       -4.867682    2.006863    0.701712
     32          1           0       -3.664627    3.513144   -0.917068
     33          1           0       -2.139224    3.188511   -0.080016
     34          1           0       -3.435368    4.065517    0.750755
 ---------------------------------------------------------------------

 SCF Done:  E(RHF) =  -669.535441271     A.U. after   15 cycles
 E2 =    -0.2091792102D+01 EUMP2 =    -0.67162723337281D+03

 The electronic state is 1-A.
 Alpha  occ. eigenvalues --  -20.60762 -20.60757 -15.85816 -11.31189 -11.27762
 Alpha  occ. eigenvalues --  -11.27756 -11.27510 -11.26779 -11.26757 -11.22630
 Alpha  occ. eigenvalues --  -11.22556 -11.22454 -11.22379 -11.21972 -11.21770
 Alpha  occ. eigenvalues --   -1.59837  -1.39391  -1.19364  -1.09454  -1.08758
 Alpha  occ. eigenvalues --   -1.04769  -1.04436  -0.96888  -0.95591  -0.87896
 Alpha  occ. eigenvalues --   -0.86172  -0.82423  -0.80502  -0.79280  -0.77468
 Alpha  occ. eigenvalues --   -0.72034  -0.71160  -0.70481  -0.66160  -0.65014
 Alpha  occ. eigenvalues --   -0.64745  -0.62143  -0.61809  -0.60248  -0.58493
 Alpha  occ. eigenvalues --   -0.56190  -0.55272  -0.53530  -0.53313  -0.53095
 Alpha  occ. eigenvalues --   -0.52869  -0.50834  -0.48832  -0.48788  -0.48773
 Alpha  occ. eigenvalues --   -0.47548  -0.46782  -0.46739  -0.44794  -0.44725
 Alpha  occ. eigenvalues --   -0.37347  -0.36370
 Alpha virt. eigenvalues --    0.05066   0.11237   0.16549   0.17822   0.22604
 Alpha virt. eigenvalues --    0.23592   0.24521   0.25191   0.26908   0.28378
 Alpha virt. eigenvalues --    0.29896   0.30690   0.30932   0.31360   0.31457

 Mulliken charges:
               1
     1  C   -0.173811
     2  C   -0.225553
     3  C   -0.171175
     4  C    0.158936
     5  C   -0.171022
     6  C   -0.218595
     7  H    0.226512
     8  H    0.231415
     9  H    0.276235
    10  H    0.275659
    11  H    0.223456
    12  N    0.487903
    13  O   -0.460409
    14  O   -0.460279
    15  C   -0.298269
    16  C   -0.300762
    17  C   -0.475903
    18  H    0.144776
    19  H    0.154362
    20  H    0.150358
    21  H    0.154944
    22  H    0.157135
    23  H    0.154251
    24  H    0.163642
    25  C   -0.304321
    26  C   -0.300004
    27  C   -0.476246
    28  H    0.141650
    29  H    0.155303
    30  H    0.148530
    31  H    0.156858
    32  H    0.158365
    33  H    0.151431
    34  H    0.164628
 Sum of Mulliken charges =  -0.00000

 Dipole moment (field-independent basis, Debye):
    X=             -4.9999    Y=             -0.2016    Z=              2.0497  Tot=              5.4075
 Quadrupole moment (field-independent basis, Debye-Ang):
   XX=           -123.1554   YY=            -95.1189   ZZ=            -91.2749
   XY=             -1.9213   XZ=              9.0476   YZ=             -2.0026

 Normal termination of Gaussian 16 at Thu May  6 11:01:30 2021.
