 Gaussian 16, Revision A.03,
 Gaussian 16:  EM64L-G16RevA.03 25-Dec-2016

 -------------
 #p 6-31g* mp2
 -------------

 ------------------------------------------------------
 Input file generated by CHIRIPA (05-May-2021 14:57:23)
 ------------------------------------------------------
 Symbolic Z-matrix:
 Charge =  0 Multiplicity = 1

                         Standard orientation:
 ---------------------------------------------------------------------
 Center     Atomic      Atomic             Coordinates (Angstroms)
 Number     Number       Type             X           Y           Z
 ---------------------------------------------------------------------
      1          6           0        3.372481    2.514395   -0.055556
      2          6           0        4.692517    2.105759   -0.272448
      3          6           0        5.026228    0.748156   -0.262567
      4          6           0        4.010255   -0.177995   -0.031627
      5          6           0        2.685882    0.197776    0.187743
      6          6           0        2.375135    1.560780    0.173444
      7          1           0        3.122166    3.571111   -0.064947
      8          1           0        5.469131    2.844133   -0.450549
      9          1           0        6.040049    0.404131   -0.427588
     10          1           0        1.933440   -0.561621    0.362571
     11          1           0        1.349127    1.875231    0.342188
     12          7           0        4.351384   -1.618087   -0.018827
     13          8           0        3.437968   -2.414314    0.186921
     14          8           0        5.525718   -1.923337   -0.214786
     15          6           0       -6.450956   -0.095065   -0.326841
     16          6           0       -5.729843   -1.293386   -0.303589
     17          6           0       -4.346053   -1.285570   -0.104559
     18          6           0       -3.712639   -0.055898    0.068595
     19          6           0       -4.403356    1.154836    0.050534
     20          6           0       -5.786583    1.123074   -0.150017
     21          1           0       -7.525699   -0.110437   -0.482043
     22          1           0       -6.243166   -2.240890   -0.440634
     23          1           0       -3.763307   -2.198433   -0.082053
     24          1           0       -3.863857    2.083751    0.190090
     25          1           0       -6.344044    2.055261   -0.167604
     26          7           0       -2.247981   -0.034947    0.280105
     27          8           0       -1.713406    1.061569    0.430170
     28          8           0       -1.662288   -1.115440    0.291815
 ---------------------------------------------------------------------

 SCF Done:  E(RHF) =  -868.340871602     A.U. after   16 cycles
 E2 =    -0.2598547141D+01 EUMP2 =    -0.87093941874301D+03

 The electronic state is 1-A.
 Alpha  occ. eigenvalues --  -20.61656 -20.61610 -20.59712 -20.59685 -15.86629
 Alpha  occ. eigenvalues --  -15.84743 -11.31708 -11.29940 -11.28262 -11.28210
 Alpha  occ. eigenvalues --  -11.27933 -11.27204 -11.27169 -11.26581 -11.26294
 Alpha  occ. eigenvalues --  -11.26244 -11.25609 -11.25248  -1.60677  -1.58782
 Alpha  occ. eigenvalues --   -1.40236  -1.38336  -1.19852  -1.18098  -1.09303
 Alpha  occ. eigenvalues --   -1.07545  -1.05210  -1.03436  -0.96186  -0.94401
 Alpha  occ. eigenvalues --   -0.86622  -0.84859  -0.83027  -0.81206  -0.78104
 Alpha  occ. eigenvalues --   -0.76259  -0.72865  -0.71961  -0.70968  -0.70957
 Alpha  occ. eigenvalues --   -0.70104  -0.69228  -0.65509  -0.65212  -0.63738
 Alpha  occ. eigenvalues --   -0.63408  -0.62558  -0.60745  -0.55725  -0.54013
 Alpha  occ. eigenvalues --   -0.53555  -0.53298  -0.51839  -0.51492  -0.49633
 Alpha  occ. eigenvalues --   -0.49601  -0.47731  -0.47707  -0.45697  -0.43778
 Alpha  occ. eigenvalues --   -0.37815  -0.36798  -0.36132  -0.35046
 Alpha virt. eigenvalues --    0.04415   0.06209   0.10861   0.12587   0.15966
 Alpha virt. eigenvalues --    0.17730   0.21015   0.22799   0.26957   0.27845
 Alpha virt. eigenvalues --    0.28893   0.29594   0.30638   0.31984   0.32369

 Mulliken charges:
               1
     1  C   -0.172644
     2  C   -0.219206
     3  C   -0.173478
     4  C    0.157214
     5  C   -0.176131
     6  C   -0.227673
     7  H    0.221235
     8  H    0.217999
     9  H    0.271090
    10  H    0.289355
    11  H    0.244672
    12  N    0.487678
    13  O   -0.458533
    14  O   -0.465905
    15  C   -0.169718
    16  C   -0.218642
    17  C   -0.169888
    18  C    0.157702
    19  C   -0.170470
    20  C   -0.218582
    21  H    0.227561
    22  H    0.226022
    23  H    0.278571
    24  H    0.273911
    25  H    0.224482
    26  N    0.491112
    27  O   -0.471538
    28  O   -0.456196
 Sum of Mulliken charges =  -0.00000

 Dipole moment (field-independent basis, Debye):
    X=             -7.0516    Y=              4.8438    Z=             -0.7584  Tot=              8.5885
 Quadrupole moment (field-independent basis, Debye-Ang):
   XX=            -73.1787   YY=           -102.2020   ZZ=           -106.5259
   XY=             22.3754   XZ=              1.5795   YZ=              0.0412

 Normal termination of Gaussian 16 at Thu May  6 09:45:50 2021.
