 Gaussian 16, Revision A.03,
 Gaussian 16:  EM64L-G16RevA.03 25-Dec-2016

 -------------
 #p 6-31g* mp2
 -------------

 ------------------------------------------------------
 Input file generated by CHIRIPA (05-May-2021 14:51:13)
 ------------------------------------------------------
 Symbolic Z-matrix:
 Charge =  0 Multiplicity = 1

                         Standard orientation:
 ---------------------------------------------------------------------
 Center     Atomic      Atomic             Coordinates (Angstroms)
 Number     Number       Type             X           Y           Z
 ---------------------------------------------------------------------
      1          6           0        3.653057   -0.219779    0.211575
      2          6           0        3.958928    0.049465   -1.262174
      3          6           0        5.385807   -0.339260   -1.650381
      4          1           0        4.368060    0.334296    0.835047
      5          1           0        3.814167   -1.285866    0.423466
      6          1           0        3.795956    1.114462   -1.471546
      7          1           0        3.242994   -0.505165   -1.882206
      8          1           0        5.557338   -1.405341   -1.469689
      9          1           0        6.113442    0.223489   -1.056695
     10          1           0        5.582966   -0.138400   -2.708040
     11          6           0        2.230378    0.163677    0.614902
     12          6           0        1.924507   -0.105567    2.088651
     13          6           0        0.497628    0.283158    2.476858
     14          1           0        2.069268    1.229764    0.403011
     15          1           0        1.515375   -0.390398   -0.008569
     16          1           0        2.640441    0.449063    2.708684
     17          1           0        2.087479   -1.170564    2.298024
     18          1           0       -0.230007   -0.279591    1.883173
     19          1           0        0.326097    1.349239    2.296166
     20          1           0        0.300469    0.082298    3.534518
     21          6           0       -2.840120    0.700335   -0.065182
     22          6           0       -2.822211    1.886204   -1.030263
     23          6           0       -2.618112    3.224196   -0.318987
     24          1           0       -3.638698    0.849644    0.674360
     25          1           0       -1.895226    0.678335    0.495253
     26          1           0       -3.766293    1.905148   -1.589698
     27          1           0       -2.023707    1.733962   -1.767711
     28          1           0       -1.668090    3.230272    0.225094
     29          1           0       -3.420578    3.402430    0.404118
     30          1           0       -2.608569    4.058224   -1.027625
     31          6           0       -3.043315   -0.644234   -0.761295
     32          6           0       -3.061224   -1.830102    0.203786
     33          6           0       -3.265323   -3.168094   -0.507490
     34          1           0       -3.988209   -0.622233   -1.321730
     35          1           0       -2.244737   -0.793541   -1.500838
     36          1           0       -3.859729   -1.677860    0.941233
     37          1           0       -2.117143   -1.849045    0.763220
     38          1           0       -2.462857   -3.346328   -1.230596
     39          1           0       -4.215345   -3.174170   -1.051571
     40          1           0       -3.274865   -4.002122    0.201147
 ---------------------------------------------------------------------

 SCF Done:  E(RHF) =  -470.733002469     A.U. after   11 cycles
 E2 =    -0.1583488582D+01 EUMP2 =    -0.47231649105117D+03

 The electronic state is 1-A.
 Alpha  occ. eigenvalues --  -11.21669 -11.21648 -11.21616 -11.21539 -11.21476
 Alpha  occ. eigenvalues --  -11.21412 -11.21357 -11.21240 -11.21134 -11.21105
 Alpha  occ. eigenvalues --  -11.21085 -11.21031  -1.08498  -1.08388  -1.03592
 Alpha  occ. eigenvalues --   -1.03503  -0.96050  -0.95944  -0.87067  -0.86963
 Alpha  occ. eigenvalues --   -0.79671  -0.79565  -0.78345  -0.78159  -0.65171
 Alpha  occ. eigenvalues --   -0.64998  -0.61010  -0.60885  -0.59409  -0.59316
 Alpha  occ. eigenvalues --   -0.57699  -0.57529  -0.55377  -0.55202  -0.52731
 Alpha  occ. eigenvalues --   -0.52668  -0.52518  -0.52333  -0.50013  -0.49886
 Alpha  occ. eigenvalues --   -0.48064  -0.47873  -0.46758  -0.46580  -0.46020
 Alpha  occ. eigenvalues --   -0.45776  -0.45714  -0.45287  -0.43845  -0.43746
 Alpha virt. eigenvalues --    0.20552   0.23214   0.23478   0.24255   0.25692
 Alpha virt. eigenvalues --    0.26381   0.26910   0.27708   0.27999   0.29301
 Alpha virt. eigenvalues --    0.30594   0.31400   0.31761   0.31886   0.32385

 Mulliken charges:
               1
     1  C   -0.298266
     2  C   -0.299708
     3  C   -0.475760
     4  H    0.149978
     5  H    0.149728
     6  H    0.152049
     7  H    0.151806
     8  H    0.155275
     9  H    0.155303
    10  H    0.160416
    11  C   -0.298517
    12  C   -0.299553
    13  C   -0.484006
    14  H    0.149439
    15  H    0.148791
    16  H    0.152346
    17  H    0.152109
    18  H    0.162682
    19  H    0.155656
    20  H    0.161307
    21  C   -0.306839
    22  C   -0.299023
    23  C   -0.475904
    24  H    0.149069
    25  H    0.159689
    26  H    0.151469
    27  H    0.151765
    28  H    0.155062
    29  H    0.155178
    30  H    0.159928
    31  C   -0.297924
    32  C   -0.303567
    33  C   -0.475512
    34  H    0.149489
    35  H    0.148855
    36  H    0.152483
    37  H    0.154139
    38  H    0.154826
    39  H    0.155514
    40  H    0.160226
 Sum of Mulliken charges =  -0.00000

 Dipole moment (field-independent basis, Debye):
    X=              0.0320    Y=             -0.0040    Z=              0.0321  Tot=              0.0456
 Quadrupole moment (field-independent basis, Debye-Ang):
   XX=            -84.6586   YY=            -85.0782   ZZ=            -85.0163
   XY=              0.3200   XZ=              0.3109   YZ=             -0.2340

 Normal termination of Gaussian 16 at Thu May  6 00:47:41 2021.
