 Gaussian 16, Revision A.03,
 Gaussian 16:  EM64L-G16RevA.03 25-Dec-2016

 -------------
 #p 6-31g* mp2
 -------------

 ------------------------------------------------------
 Input file generated by CHIRIPA (05-May-2021 14:53:15)
 ------------------------------------------------------
 Symbolic Z-matrix:
 Charge =  0 Multiplicity = 1

                         Standard orientation:
 ---------------------------------------------------------------------
 Center     Atomic      Atomic             Coordinates (Angstroms)
 Number     Number       Type             X           Y           Z
 ---------------------------------------------------------------------
      1          6           0       -3.465118   -0.294265   -0.571470
      2          6           0       -2.930746   -1.708910   -0.345168
      3          6           0       -3.602076   -2.745637   -1.246448
      4          1           0       -4.549739   -0.286574   -0.396872
      5          1           0       -3.316049   -0.017577   -1.624379
      6          1           0       -3.079523   -1.982322    0.707318
      7          1           0       -1.847241   -1.713193   -0.520139
      8          1           0       -3.442488   -2.500051   -2.301351
      9          1           0       -4.681772   -2.770709   -1.066920
     10          1           0       -3.205091   -3.749853   -1.068084
     11          6           0       -2.803696    0.753357    0.322251
     12          6           0       -3.338068    2.168001    0.095949
     13          6           0       -2.666738    3.204728    0.997229
     14          1           0       -2.952765    0.476668    1.375160
     15          1           0       -1.719076    0.745665    0.147653
     16          1           0       -4.421573    2.172284    0.270920
     17          1           0       -3.189291    2.441413   -0.956537
     18          1           0       -1.587043    3.229800    0.817701
     19          1           0       -2.826326    2.959142    2.052132
     20          1           0       -3.063723    4.208944    0.818865
     21          6           0        3.755676    0.903158   -1.769758
     22          6           0        2.380528    0.689333   -1.910359
     23          6           0        1.646350    0.090398   -0.882348
     24          6           0        2.322407   -0.283984    0.277857
     25          6           0        3.691531   -0.084316    0.447924
     26          6           0        4.405642    0.516334   -0.593140
     27          1           0        4.318208    1.369091   -2.573411
     28          1           0        1.873121    0.988727   -2.823018
     29          1           0        0.580900   -0.086937   -0.964741
     30          1           0        4.169584   -0.393507    1.369490
     31          1           0        5.473511    0.681157   -0.481174
     32          7           0        1.555787   -0.918957    1.373075
     33          8           0        2.174829   -1.239719    2.385269
     34          8           0        0.350386   -1.083863    1.198575
 ---------------------------------------------------------------------

 SCF Done:  E(RHF) =  -669.535436183     A.U. after   15 cycles
 E2 =    -0.2092738901D+01 EUMP2 =    -0.67162817508354D+03

 The electronic state is 1-A.
 Alpha  occ. eigenvalues --  -20.60925 -20.60918 -15.85951 -11.31304 -11.27874
 Alpha  occ. eigenvalues --  -11.27859 -11.27601 -11.26881 -11.26870 -11.21204
 Alpha  occ. eigenvalues --  -11.20827 -11.20744 -11.20701 -11.20686 -11.20474
 Alpha  occ. eigenvalues --   -1.59987  -1.39543  -1.19472  -1.08870  -1.07836
 Alpha  occ. eigenvalues --   -1.04873  -1.02971  -0.95712  -0.95450  -0.86469
 Alpha  occ. eigenvalues --   -0.86273  -0.82549  -0.79007  -0.77821  -0.77367
 Alpha  occ. eigenvalues --   -0.72172  -0.71298  -0.70583  -0.65134  -0.64909
 Alpha  occ. eigenvalues --   -0.64468  -0.62219  -0.60390  -0.58808  -0.57030
 Alpha  occ. eigenvalues --   -0.55375  -0.54769  -0.53200  -0.52969  -0.52155
 Alpha  occ. eigenvalues --   -0.51859  -0.49421  -0.48977  -0.48935  -0.47334
 Alpha  occ. eigenvalues --   -0.46078  -0.45136  -0.45050  -0.44836  -0.43215
 Alpha  occ. eigenvalues --   -0.37448  -0.36473
 Alpha virt. eigenvalues --    0.04896   0.11138   0.16406   0.20186   0.22938
 Alpha virt. eigenvalues --    0.24691   0.25576   0.27566   0.27642   0.28337
 Alpha virt. eigenvalues --    0.29434   0.31289   0.31750   0.32201   0.32420

 Mulliken charges:
               1
     1  C   -0.299444
     2  C   -0.302328
     3  C   -0.475799
     4  H    0.147749
     5  H    0.140371
     6  H    0.159105
     7  H    0.162562
     8  H    0.148813
     9  H    0.152990
    10  H    0.160789
    11  C   -0.300187
    12  C   -0.299386
    13  C   -0.474280
    14  H    0.156896
    15  H    0.153370
    16  H    0.151277
    17  H    0.145637
    18  H    0.152201
    19  H    0.158200
    20  H    0.157475
    21  C   -0.170299
    22  C   -0.220348
    23  C   -0.173525
    24  C    0.156268
    25  C   -0.170350
    26  C   -0.218613
    27  H    0.226100
    28  H    0.224271
    29  H    0.282108
    30  H    0.275917
    31  H    0.223927
    32  N    0.492039
    33  O   -0.459166
    34  O   -0.464337
 Sum of Mulliken charges =  -0.00000

 Dipole moment (field-independent basis, Debye):
    X=              2.8963    Y=              2.1332    Z=             -3.6431  Tot=              5.1197
 Quadrupole moment (field-independent basis, Debye-Ang):
   XX=            -78.9069   YY=            -97.9723   ZZ=            -95.8049
   XY=              4.1601   XZ=             -7.1860   YZ=              0.6094

 Normal termination of Gaussian 16 at Thu May  6 09:03:15 2021.
