 Gaussian 16, Revision A.03,
 Gaussian 16:  EM64L-G16RevA.03 25-Dec-2016

 -------------
 #p 6-31g* mp2
 -------------

 ------------------------------------------------------
 Input file generated by CHIRIPA (05-May-2021 14:51:12)
 ------------------------------------------------------
 Symbolic Z-matrix:
 Charge =  0 Multiplicity = 1

                         Standard orientation:
 ---------------------------------------------------------------------
 Center     Atomic      Atomic             Coordinates (Angstroms)
 Number     Number       Type             X           Y           Z
 ---------------------------------------------------------------------
      1          6           0        2.799325   -0.046437   -0.040390
      2          6           0        3.647801   -0.480501   -1.236075
      3          6           0        3.955535   -1.978185   -1.229972
      4          1           0        3.323431   -0.310745    0.888265
      5          1           0        1.858998   -0.614925   -0.041269
      6          1           0        4.585651    0.089629   -1.233723
      7          1           0        3.121702   -0.214956   -2.161991
      8          1           0        3.029644   -2.561825   -1.256229
      9          1           0        4.501910   -2.255510   -0.322687
     10          1           0        4.563059   -2.266729   -2.093405
     11          6           0        2.483345    1.448161   -0.032476
     12          6           0        1.634869    1.882225    1.163209
     13          6           0        1.327135    3.379909    1.157106
     14          1           0        3.423672    2.016649   -0.031597
     15          1           0        1.959240    1.712469   -0.961130
     16          1           0        2.160969    1.616680    2.089125
     17          1           0        0.697020    1.312095    1.160857
     18          1           0        0.780760    3.657234    0.249821
     19          1           0        2.253027    3.963549    1.183363
     20          1           0        0.719612    3.668453    2.020539
     21          6           0       -2.779642   -0.226384   -0.545954
     22          6           0       -4.055694    0.596908   -0.367444
     23          6           0       -4.318817    1.541382   -1.540700
     24          1           0       -1.926050    0.454148   -0.669249
     25          1           0       -2.853324   -0.807041   -1.475902
     26          1           0       -3.980208    1.174783    0.562598
     27          1           0       -4.906320   -0.085663   -0.244367
     28          1           0       -4.420517    0.977685   -2.473708
     29          1           0       -3.489143    2.245293   -1.662158
     30          1           0       -5.235808    2.120150   -1.392328
     31          6           0       -2.503029   -1.175339    0.618820
     32          6           0       -1.226977   -1.998632    0.440310
     33          6           0       -0.963854   -2.943106    1.613565
     34          1           0       -2.429346   -0.594683    1.548768
     35          1           0       -3.356621   -1.855871    0.742116
     36          1           0       -0.376350   -1.316061    0.317233
     37          1           0       -1.302462   -2.576506   -0.489733
     38          1           0       -1.793528   -3.647016    1.735023
     39          1           0       -0.862154   -2.379409    2.546574
     40          1           0       -0.046863   -3.521873    1.465193
 ---------------------------------------------------------------------

 SCF Done:  E(RHF) =  -470.733354311     A.U. after   11 cycles
 E2 =    -0.1583486348D+01 EUMP2 =    -0.47231684065951D+03

 The electronic state is 1-A.
 Alpha  occ. eigenvalues --  -11.21669 -11.21635 -11.21634 -11.21607 -11.21452
 Alpha  occ. eigenvalues --  -11.21430 -11.21391 -11.21360 -11.21127 -11.21099
 Alpha  occ. eigenvalues --  -11.21087 -11.21071  -1.08489  -1.08447  -1.03566
 Alpha  occ. eigenvalues --   -1.03558  -0.96017  -0.96000  -0.87030  -0.87018
 Alpha  occ. eigenvalues --   -0.79652  -0.79609  -0.78372  -0.78196  -0.65274
 Alpha  occ. eigenvalues --   -0.64941  -0.60976  -0.60946  -0.59392  -0.59363
 Alpha  occ. eigenvalues --   -0.57655  -0.57587  -0.55346  -0.55248  -0.52710
 Alpha  occ. eigenvalues --   -0.52694  -0.52448  -0.52420  -0.50002  -0.49910
 Alpha  occ. eigenvalues --   -0.48001  -0.47921  -0.46813  -0.46645  -0.46123
 Alpha  occ. eigenvalues --   -0.45789  -0.45780  -0.45235  -0.43821  -0.43808
 Alpha virt. eigenvalues --    0.19575   0.23083   0.23816   0.24420   0.25523
 Alpha virt. eigenvalues --    0.26929   0.27150   0.27556   0.27980   0.29483
 Alpha virt. eigenvalues --    0.31011   0.31567   0.31726   0.31924   0.32321

 Mulliken charges:
               1
     1  C   -0.308168
     2  C   -0.298909
     3  C   -0.475918
     4  H    0.149693
     5  H    0.158856
     6  H    0.151912
     7  H    0.152034
     8  H    0.155446
     9  H    0.155128
    10  H    0.160283
    11  C   -0.297683
    12  C   -0.302497
    13  C   -0.475642
    14  H    0.149868
    15  H    0.149450
    16  H    0.152375
    17  H    0.152913
    18  H    0.155005
    19  H    0.155674
    20  H    0.160260
    21  C   -0.299188
    22  C   -0.299656
    23  C   -0.475722
    24  H    0.149309
    25  H    0.149661
    26  H    0.152201
    27  H    0.152148
    28  H    0.155176
    29  H    0.155087
    30  H    0.160476
    31  C   -0.297412
    32  C   -0.310741
    33  C   -0.475179
    34  H    0.149710
    35  H    0.150005
    36  H    0.160870
    37  H    0.151737
    38  H    0.155293
    39  H    0.155538
    40  H    0.160607
 Sum of Mulliken charges =  -0.00000

 Dipole moment (field-independent basis, Debye):
    X=              0.0009    Y=             -0.0062    Z=              0.0067  Tot=              0.0092
 Quadrupole moment (field-independent basis, Debye-Ang):
   XX=            -83.9039   YY=            -85.8607   ZZ=            -84.8701
   XY=              1.1313   XZ=              0.5186   YZ=              0.8644

 Normal termination of Gaussian 16 at Thu May  6 02:20:27 2021.
