 Gaussian 16, Revision A.03,
 Gaussian 16:  EM64L-G16RevA.03 25-Dec-2016

 -------------
 #p 6-31g* mp2
 -------------

 ------------------------------------------------------
 Input file generated by CHIRIPA (05-May-2021 14:57:24)
 ------------------------------------------------------
 Symbolic Z-matrix:
 Charge =  0 Multiplicity = 1

                         Standard orientation:
 ---------------------------------------------------------------------
 Center     Atomic      Atomic             Coordinates (Angstroms)
 Number     Number       Type             X           Y           Z
 ---------------------------------------------------------------------
      1          6           0        6.166164    0.644321    0.726296
      2          6           0        5.577632    1.329980   -0.341423
      3          6           0        4.290134    0.999124   -0.774357
      4          6           0        3.616770   -0.027307   -0.113820
      5          6           0        4.176181   -0.728968    0.952960
      6          6           0        5.464797   -0.381157    1.368947
      7          1           0        7.166758    0.907923    1.056027
      8          1           0        6.119972    2.126816   -0.842386
      9          1           0        3.810725    1.513595   -1.598314
     10          1           0        3.610771   -1.518692    1.432613
     11          1           0        5.919365   -0.915362    2.198427
     12          7           0        2.253162   -0.386544   -0.563177
     13          8           0        1.680846   -1.294716    0.035417
     14          8           0        1.782501    0.246861   -1.505469
     15          6           0       -5.566240    1.738891    0.545255
     16          6           0       -5.916155    0.385638    0.598006
     17          6           0       -4.968717   -0.604073    0.319832
     18          6           0       -3.674768   -0.203093   -0.009109
     19          6           0       -3.295452    1.136946   -0.069983
     20          6           0       -4.259309    2.109573    0.212015
     21          1           0       -6.308610    2.501087    0.762832
     22          1           0       -6.930379    0.094833    0.856520
     23          1           0       -5.212534   -1.658990    0.353331
     24          1           0       -2.276453    1.395978   -0.330678
     25          1           0       -3.984721    3.159766    0.170279
     26          7           0       -2.663067   -1.241814   -0.305624
     27          8           0       -1.529826   -0.862499   -0.592892
     28          8           0       -3.022493   -2.415608   -0.245150
 ---------------------------------------------------------------------

 SCF Done:  E(RHF) =  -868.334432848     A.U. after   16 cycles
 E2 =    -0.2600803630D+01 EUMP2 =    -0.87093523647765D+03

 The electronic state is 1-A.
 Alpha  occ. eigenvalues --  -20.59760 -20.59696 -20.59405 -20.59257 -15.84809
 Alpha  occ. eigenvalues --  -15.84384 -11.30578 -11.30215 -11.27208 -11.27175
 Alpha  occ. eigenvalues --  -11.27008 -11.26868 -11.26805 -11.26696 -11.26305
 Alpha  occ. eigenvalues --  -11.26283 -11.25982 -11.25958  -1.58789  -1.58416
 Alpha  occ. eigenvalues --   -1.38343  -1.37951  -1.18786  -1.18441  -1.08103
 Alpha  occ. eigenvalues --   -1.07756  -1.04249  -1.03910  -0.94870  -0.94500
 Alpha  occ. eigenvalues --   -0.85628  -0.85287  -0.81705  -0.81326  -0.76684
 Alpha  occ. eigenvalues --   -0.76296  -0.71011  -0.70573  -0.70148  -0.69889
 Alpha  occ. eigenvalues --   -0.69771  -0.69546  -0.64428  -0.64255  -0.64071
 Alpha  occ. eigenvalues --   -0.63922  -0.61592  -0.61246  -0.54733  -0.54411
 Alpha  occ. eigenvalues --   -0.52559  -0.52345  -0.52222  -0.52008  -0.47881
 Alpha  occ. eigenvalues --   -0.47745  -0.47349  -0.47175  -0.43691  -0.43227
 Alpha  occ. eigenvalues --   -0.36792  -0.36457  -0.35873  -0.35537
 Alpha virt. eigenvalues --    0.05845   0.06244   0.11775   0.12110   0.17272
 Alpha virt. eigenvalues --    0.17647   0.21868   0.22183   0.27751   0.28062
 Alpha virt. eigenvalues --    0.28793   0.29137   0.31388   0.31700   0.33049

 Mulliken charges:
               1
     1  C   -0.172209
     2  C   -0.218524
     3  C   -0.172280
     4  C    0.159087
     5  C   -0.171788
     6  C   -0.218536
     7  H    0.223198
     8  H    0.220929
     9  H    0.273859
    10  H    0.276658
    11  H    0.221783
    12  N    0.486204
    13  O   -0.446054
    14  O   -0.461446
    15  C   -0.172409
    16  C   -0.218761
    17  C   -0.172003
    18  C    0.158762
    19  C   -0.172412
    20  C   -0.218943
    21  H    0.221819
    22  H    0.220060
    23  H    0.274012
    24  H    0.280719
    25  H    0.220311
    26  N    0.485487
    27  O   -0.439321
    28  O   -0.468206
 Sum of Mulliken charges =  -0.00000

 Dipole moment (field-independent basis, Debye):
    X=              1.3961    Y=              4.7632    Z=              2.5497  Tot=              5.5802
 Quadrupole moment (field-independent basis, Debye-Ang):
   XX=            -45.8954   YY=           -102.4486   ZZ=           -103.9725
   XY=             -5.5520   XZ=              0.7791   YZ=             -4.0079

 Normal termination of Gaussian 16 at Thu May  6 22:46:24 2021.
