 Gaussian 16, Revision A.03,
 Gaussian 16:  EM64L-G16RevA.03 25-Dec-2016

 -------------
 #p 6-31g* mp2
 -------------

 ------------------------------------------------------
 Input file generated by CHIRIPA (05-May-2021 14:55:25)
 ------------------------------------------------------
 Symbolic Z-matrix:
 Charge =  0 Multiplicity = 1

                         Standard orientation:
 ---------------------------------------------------------------------
 Center     Atomic      Atomic             Coordinates (Angstroms)
 Number     Number       Type             X           Y           Z
 ---------------------------------------------------------------------
      1          6           0       -0.512448   -1.739211    1.834248
      2          6           0       -0.930505   -0.424119    2.062899
      3          6           0       -1.758934    0.227417    1.144338
      4          6           0       -2.152056   -0.469145    0.002608
      5          6           0       -1.752335   -1.779856   -0.253420
      6          6           0       -0.923971   -2.411697    0.678855
      7          1           0        0.131071   -2.237691    2.553136
      8          1           0       -0.612473    0.100597    2.959321
      9          1           0       -2.097404    1.245119    1.296452
     10          1           0       -2.085825   -2.277046   -1.156196
     11          1           0       -0.600856   -3.433056    0.498673
     12          7           0       -3.029042    0.210182   -0.977091
     13          8           0       -3.361486   -0.425334   -1.975208
     14          8           0       -3.367373    1.365292   -0.728311
     15          6           0        3.272587    0.468436   -0.325945
     16          6           0        3.290559   -1.019497   -0.677680
     17          6           0        4.703979   -1.555779   -0.906674
     18          1           0        3.755053    1.035514   -1.133778
     19          1           0        3.878494    0.632212    0.575969
     20          1           0        2.683665   -1.180618   -1.577867
     21          1           0        2.807823   -1.583080    0.130995
     22          1           0        5.316186   -1.424053   -0.008647
     23          1           0        5.191323   -1.019306   -1.727218
     24          1           0        4.693487   -2.621222   -1.156840
     25          6           0        1.866659    1.019196   -0.094086
     26          6           0        1.848687    2.507129    0.257649
     27          6           0        0.435267    3.043411    0.486643
     28          1           0        1.260752    0.855420   -0.995999
     29          1           0        1.384193    0.452118    0.713747
     30          1           0        2.331423    3.070712   -0.551026
     31          1           0        2.455581    2.668251    1.157836
     32          1           0       -0.052077    2.506938    1.307188
     33          1           0       -0.176940    2.911686   -0.411383
     34          1           0        0.445759    4.108854    0.736808
 ---------------------------------------------------------------------

 SCF Done:  E(RHF) =  -669.533308696     A.U. after   15 cycles
 E2 =    -0.2095800479D+01 EUMP2 =    -0.67162910917405D+03

 The electronic state is 1-A.
 Alpha  occ. eigenvalues --  -20.60829 -20.60820 -15.85873 -11.31230 -11.27819
 Alpha  occ. eigenvalues --  -11.27768 -11.27568 -11.26830 -11.26794 -11.21909
 Alpha  occ. eigenvalues --  -11.21738 -11.21575 -11.21378 -11.21360 -11.21215
 Alpha  occ. eigenvalues --   -1.59897  -1.39450  -1.19424  -1.08828  -1.08604
 Alpha  occ. eigenvalues --   -1.04844  -1.03745  -0.96197  -0.95645  -0.87224
 Alpha  occ. eigenvalues --   -0.86217  -0.82491  -0.79827  -0.78436  -0.77516
 Alpha  occ. eigenvalues --   -0.72092  -0.71217  -0.70541  -0.65283  -0.65073
 Alpha  occ. eigenvalues --   -0.64837  -0.62234  -0.61142  -0.59562  -0.57798
 Alpha  occ. eigenvalues --   -0.55508  -0.55317  -0.53311  -0.53007  -0.52845
 Alpha  occ. eigenvalues --   -0.52509  -0.50148  -0.48852  -0.48843  -0.48123
 Alpha  occ. eigenvalues --   -0.46866  -0.45908  -0.45878  -0.44841  -0.43968
 Alpha  occ. eigenvalues --   -0.37355  -0.36277
 Alpha virt. eigenvalues --    0.04973   0.11126   0.16333   0.20715   0.22871
 Alpha virt. eigenvalues --    0.23986   0.26061   0.26554   0.27199   0.28180
 Alpha virt. eigenvalues --    0.28635   0.30358   0.31520   0.31599   0.32124

 Mulliken charges:
               1
     1  C   -0.169693
     2  C   -0.222957
     3  C   -0.163626
     4  C    0.157288
     5  C   -0.170947
     6  C   -0.216828
     7  H    0.225902
     8  H    0.223538
     9  H    0.278535
    10  H    0.275783
    11  H    0.223995
    12  N    0.487846
    13  O   -0.460303
    14  O   -0.460080
    15  C   -0.297843
    16  C   -0.298326
    17  C   -0.475656
    18  H    0.150983
    19  H    0.146817
    20  H    0.153502
    21  H    0.145237
    22  H    0.154256
    23  H    0.157368
    24  H    0.158787
    25  C   -0.305222
    26  C   -0.299525
    27  C   -0.476544
    28  H    0.150713
    29  H    0.155447
    30  H    0.154025
    31  H    0.148325
    32  H    0.141529
    33  H    0.165693
    34  H    0.161981
 Sum of Mulliken charges =  -0.00000

 Dipole moment (field-independent basis, Debye):
    X=              2.9676    Y=             -2.3901    Z=              3.3732  Tot=              5.0890
 Quadrupole moment (field-independent basis, Debye-Ang):
   XX=           -110.0773   YY=            -89.5798   ZZ=            -92.6566
   XY=              4.2081   XZ=             -7.3376   YZ=              0.4751

 Normal termination of Gaussian 16 at Thu May  6 09:36:51 2021.
