 Gaussian 16, Revision A.03,
 Gaussian 16:  EM64L-G16RevA.03 25-Dec-2016

 -------------
 #p 6-31g* mp2
 -------------

 ------------------------------------------------------
 Input file generated by CHIRIPA (05-May-2021 14:57:25)
 ------------------------------------------------------
 Symbolic Z-matrix:
 Charge =  0 Multiplicity = 1

                         Standard orientation:
 ---------------------------------------------------------------------
 Center     Atomic      Atomic             Coordinates (Angstroms)
 Number     Number       Type             X           Y           Z
 ---------------------------------------------------------------------
      1          6           0       -3.275294    2.425834    0.884743
      2          6           0       -2.642440    1.381557    1.567019
      3          6           0       -2.688459    0.076484    1.067803
      4          6           0       -3.379305   -0.149535   -0.121708
      5          6           0       -4.019857    0.869782   -0.824544
      6          6           0       -3.960774    2.167070   -0.306760
      7          1           0       -3.234472    3.436623    1.279758
      8          1           0       -2.109358    1.579576    2.492576
      9          1           0       -2.207368   -0.750599    1.575644
     10          1           0       -4.543574    0.641401   -1.744859
     11          1           0       -4.453184    2.976116   -0.838758
     12          7           0       -3.434938   -1.527036   -0.660034
     13          8           0       -4.050063   -1.700000   -1.709959
     14          8           0       -2.862365   -2.407676   -0.021856
     15          6           0        1.207706   -1.004954    0.943828
     16          6           0        2.420866   -1.631973    1.246499
     17          6           0        3.625113   -1.126844    0.747319
     18          6           0        3.579192    0.012169   -0.055071
     19          6           0        2.386524    0.659347   -0.374437
     20          6           0        1.194430    0.136693    0.135750
     21          1           0        0.276938   -1.404157    1.335879
     22          1           0        2.434199   -2.518734    1.873812
     23          1           0        4.578449   -1.592440    0.965924
     24          1           0        2.405095    1.541791   -1.002422
     25          1           0        0.253756    0.625721   -0.100955
     26          7           0        4.847642    0.556203   -0.589358
     27          8           0        4.780285    1.560962   -1.294028
     28          8           0        5.885191   -0.032442   -0.293345
 ---------------------------------------------------------------------

 SCF Done:  E(RHF) =  -868.337872258     A.U. after   16 cycles
 E2 =    -0.2600804808D+01 EUMP2 =    -0.87093867706515D+03

 The electronic state is 1-A.
 Alpha  occ. eigenvalues --  -20.61780 -20.61743 -20.60743 -20.60736 -15.86817
 Alpha  occ. eigenvalues --  -15.85794 -11.32296 -11.31139 -11.28938 -11.28759
 Alpha  occ. eigenvalues --  -11.28501 -11.27890 -11.27779 -11.27710 -11.27690
 Alpha  occ. eigenvalues --  -11.27437 -11.26697 -11.26678  -1.60831  -1.59818
 Alpha  occ. eigenvalues --   -1.40386  -1.39372  -1.20452  -1.19305  -1.09796
 Alpha  occ. eigenvalues --   -1.08705  -1.05861  -1.04702  -0.96627  -0.95546
 Alpha  occ. eigenvalues --   -0.87234  -0.86102  -0.83450  -0.82379  -0.78513
 Alpha  occ. eigenvalues --   -0.77427  -0.73027  -0.72160  -0.72013  -0.71533
 Alpha  occ. eigenvalues --   -0.71140  -0.70414  -0.66078  -0.65816  -0.64957
 Alpha  occ. eigenvalues --   -0.64712  -0.63193  -0.62057  -0.56295  -0.55221
 Alpha  occ. eigenvalues --   -0.54207  -0.53887  -0.53035  -0.52756  -0.49798
 Alpha  occ. eigenvalues --   -0.49774  -0.48771  -0.48768  -0.45763  -0.44782
 Alpha  occ. eigenvalues --   -0.38396  -0.37488  -0.37263  -0.36304
 Alpha virt. eigenvalues --    0.03987   0.05102   0.10102   0.11346   0.15524
 Alpha virt. eigenvalues --    0.16599   0.19392   0.21782   0.24992   0.26894
 Alpha virt. eigenvalues --    0.27309   0.28928   0.30038   0.30738   0.32376

 Mulliken charges:
               1
     1  C   -0.171506
     2  C   -0.220655
     3  C   -0.182835
     4  C    0.159876
     5  C   -0.170410
     6  C   -0.217677
     7  H    0.230481
     8  H    0.227591
     9  H    0.272830
    10  H    0.279407
    11  H    0.228347
    12  N    0.488698
    13  O   -0.454477
    14  O   -0.464243
    15  C   -0.173358
    16  C   -0.218755
    17  C   -0.171093
    18  C    0.158719
    19  C   -0.171501
    20  C   -0.224144
    21  H    0.227607
    22  H    0.225232
    23  H    0.275687
    24  H    0.274267
    25  H    0.225359
    26  N    0.488055
    27  O   -0.461337
    28  O   -0.460165
 Sum of Mulliken charges =  -0.00000

 Dipole moment (field-independent basis, Debye):
    X=             -4.5848    Y=              3.0245    Z=              3.6958  Tot=              6.6202
 Quadrupole moment (field-independent basis, Debye-Ang):
   XX=           -135.3567   YY=           -103.5430   ZZ=           -102.2475
   XY=            -27.3398   XZ=              4.6450   YZ=             -4.0141

 Normal termination of Gaussian 16 at Wed May  5 21:09:08 2021.
