 Gaussian 16, Revision A.03,
 Gaussian 16:  EM64L-G16RevA.03 25-Dec-2016

 -------------
 #p 6-31g* mp2
 -------------

 ------------------------------------------------------
 Input file generated by CHIRIPA (05-May-2021 14:57:26)
 ------------------------------------------------------
 Symbolic Z-matrix:
 Charge =  0 Multiplicity = 1

                         Standard orientation:
 ---------------------------------------------------------------------
 Center     Atomic      Atomic             Coordinates (Angstroms)
 Number     Number       Type             X           Y           Z
 ---------------------------------------------------------------------
      1          6           0        2.954292   -2.258135    0.458008
      2          6           0        2.235568   -1.394056    1.290670
      3          6           0        2.245186   -0.015084    1.060690
      4          6           0        2.987590    0.467783   -0.015863
      5          6           0        3.713892   -0.367485   -0.863273
      6          6           0        3.689863   -1.742999   -0.614415
      7          1           0        2.941222   -3.328011    0.643994
      8          1           0        1.663432   -1.791308    2.124274
      9          1           0        1.697792    0.676476    1.689595
     10          1           0        4.274933    0.058118   -1.686385
     11          1           0        4.248978   -2.411683   -1.262718
     12          7           0        3.005400    1.925809   -0.269325
     13          8           0        3.667305    2.326222   -1.224411
     14          8           0        2.357118    2.640588    0.491896
     15          6           0       -4.332324    1.901146    0.110652
     16          6           0       -3.307745    1.660992    1.032111
     17          6           0       -2.554574    0.485023    0.965950
     18          6           0       -2.854367   -0.433270   -0.039113
     19          6           0       -3.868835   -0.222743   -0.971756
     20          6           0       -4.609111    0.960170   -0.886582
     21          1           0       -4.912397    2.817364    0.169433
     22          1           0       -3.090567    2.389988    1.807639
     23          1           0       -1.755781    0.273743    1.666455
     24          1           0       -4.061917   -0.968176   -1.733639
     25          1           0       -5.404226    1.144019   -1.603545
     26          7           0       -2.063844   -1.681892   -0.119218
     27          8           0       -2.347728   -2.475093   -1.014136
     28          8           0       -1.175316   -1.843717    0.714430
 ---------------------------------------------------------------------

 SCF Done:  E(RHF) =  -868.339420579     A.U. after   16 cycles
 E2 =    -0.2599496492D+01 EUMP2 =    -0.87093891707099D+03

 The electronic state is 1-A.
 Alpha  occ. eigenvalues --  -20.61195 -20.61179 -20.60377 -20.60358 -15.86223
 Alpha  occ. eigenvalues --  -15.85411 -11.31367 -11.30494 -11.27933 -11.27892
 Alpha  occ. eigenvalues --  -11.27577 -11.27002 -11.26991 -11.26863 -11.26845
 Alpha  occ. eigenvalues --  -11.26589 -11.25983 -11.25852  -1.60250  -1.59449
 Alpha  occ. eigenvalues --   -1.39816  -1.39012  -1.19508  -1.18599  -1.08940
 Alpha  occ. eigenvalues --   -1.08033  -1.04880  -1.03955  -0.95821  -0.94933
 Alpha  occ. eigenvalues --   -0.86290  -0.85364  -0.82672  -0.81777  -0.77751
 Alpha  occ. eigenvalues --   -0.76876  -0.72475  -0.71641  -0.71552  -0.70765
 Alpha  occ. eigenvalues --   -0.70621  -0.69702  -0.65170  -0.64881  -0.64248
 Alpha  occ. eigenvalues --   -0.63941  -0.62245  -0.61328  -0.55381  -0.54436
 Alpha  occ. eigenvalues --   -0.53210  -0.52975  -0.52284  -0.52045  -0.49236
 Alpha  occ. eigenvalues --   -0.49183  -0.48412  -0.48362  -0.45270  -0.44482
 Alpha  occ. eigenvalues --   -0.37462  -0.36520  -0.36459  -0.35492
 Alpha virt. eigenvalues --    0.04762   0.05648   0.11181   0.12143   0.16313
 Alpha virt. eigenvalues --    0.17262   0.20912   0.22277   0.26251   0.27635
 Alpha virt. eigenvalues --    0.28735   0.29301   0.31126   0.31782   0.32240

 Mulliken charges:
               1
     1  C   -0.169098
     2  C   -0.200061
     3  C   -0.174154
     4  C    0.157654
     5  C   -0.173254
     6  C   -0.218057
     7  H    0.227321
     8  H    0.228937
     9  H    0.266177
    10  H    0.272295
    11  H    0.221451
    12  N    0.488414
    13  O   -0.461921
    14  O   -0.466408
    15  C   -0.169713
    16  C   -0.216357
    17  C   -0.168481
    18  C    0.158834
    19  C   -0.170683
    20  C   -0.218087
    21  H    0.227615
    22  H    0.226409
    23  H    0.269085
    24  H    0.275349
    25  H    0.224413
    26  N    0.491350
    27  O   -0.459064
    28  O   -0.469966
 Sum of Mulliken charges =  -0.00000

 Dipole moment (field-independent basis, Debye):
    X=             -3.1036    Y=             -0.9018    Z=              1.1921  Tot=              3.4448
 Quadrupole moment (field-independent basis, Debye-Ang):
   XX=            -87.1158   YY=           -113.9270   ZZ=            -99.2677
   XY=            -27.6363   XZ=              1.9892   YZ=              2.0897

 Normal termination of Gaussian 16 at Thu May  6 06:46:19 2021.
