 Gaussian 16, Revision A.03,
 Gaussian 16:  EM64L-G16RevA.03 25-Dec-2016

 -------------
 #p 6-31g* mp2
 -------------

 ------------------------------------------------------
 Input file generated by CHIRIPA (05-May-2021 14:55:25)
 ------------------------------------------------------
 Symbolic Z-matrix:
 Charge =  0 Multiplicity = 1

                         Standard orientation:
 ---------------------------------------------------------------------
 Center     Atomic      Atomic             Coordinates (Angstroms)
 Number     Number       Type             X           Y           Z
 ---------------------------------------------------------------------
      1          6           0        0.605717    0.699564    0.690210
      2          6           0        0.820202   -0.460917   -0.060656
      3          6           0        2.117299   -0.858500   -0.398315
      4          6           0        3.181579   -0.068404    0.033364
      5          6           0        3.000285    1.093047    0.782665
      6          6           0        1.694524    1.471482    1.108737
      7          1           0       -0.405264    1.000979    0.948012
      8          1           0       -0.023481   -1.062342   -0.387048
      9          1           0        2.311937   -1.752286   -0.978557
     10          1           0        3.861314    1.672097    1.093711
     11          1           0        1.530949    2.373211    1.691980
     12          7           0        4.559344   -0.479172   -0.317968
     13          8           0        5.480089    0.234195    0.074430
     14          8           0        4.692404   -1.506719   -0.979086
     15          6           0       -3.881851   -0.713712   -0.367306
     16          6           0       -4.020656   -1.737497    0.759895
     17          6           0       -4.220284   -3.162520    0.242926
     18          1           0       -4.777713   -0.752901   -1.002004
     19          1           0       -3.033455   -0.995123   -1.006390
     20          1           0       -4.867683   -1.453474    1.397461
     21          1           0       -3.124445   -1.695733    1.392094
     22          1           0       -3.371432   -3.470137   -0.376283
     23          1           0       -5.124575   -3.226503   -0.370886
     24          1           0       -4.317192   -3.878072    1.065393
     25          6           0       -3.681688    0.715516    0.133663
     26          6           0       -3.542882    1.739302   -0.993539
     27          6           0       -3.343254    3.164324   -0.476570
     28          1           0       -4.530082    0.996927    0.772746
     29          1           0       -2.785826    0.754705    0.768360
     30          1           0       -4.439094    1.697538   -1.625738
     31          1           0       -2.695854    1.455277   -1.631105
     32          1           0       -2.438963    3.228306    0.137242
     33          1           0       -4.192107    3.471941    0.142639
     34          1           0       -3.246345    3.879877   -1.299038
 ---------------------------------------------------------------------

 SCF Done:  E(RHF) =  -669.535417097     A.U. after   15 cycles
 E2 =    -0.2091875635D+01 EUMP2 =    -0.67162729273134D+03

 The electronic state is 1-A.
 Alpha  occ. eigenvalues --  -20.60760 -20.60754 -15.85814 -11.31184 -11.27757
 Alpha  occ. eigenvalues --  -11.27751 -11.27481 -11.26775 -11.26762 -11.22648
 Alpha  occ. eigenvalues --  -11.22590 -11.22560 -11.22463 -11.22058 -11.21865
 Alpha  occ. eigenvalues --   -1.59835  -1.39388  -1.19357  -1.09519  -1.08750
 Alpha  occ. eigenvalues --   -1.04762  -1.04511  -0.96965  -0.95587  -0.87973
 Alpha  occ. eigenvalues --   -0.86159  -0.82422  -0.80566  -0.79337  -0.77465
 Alpha  occ. eigenvalues --   -0.72031  -0.71158  -0.70503  -0.66191  -0.65007
 Alpha  occ. eigenvalues --   -0.64741  -0.62113  -0.61913  -0.60322  -0.58566
 Alpha  occ. eigenvalues --   -0.56285  -0.55275  -0.53603  -0.53374  -0.53089
 Alpha  occ. eigenvalues --   -0.52856  -0.50914  -0.48879  -0.48787  -0.48786
 Alpha  occ. eigenvalues --   -0.47614  -0.46855  -0.46801  -0.44795  -0.44793
 Alpha  occ. eigenvalues --   -0.37336  -0.36367
 Alpha virt. eigenvalues --    0.05065   0.11269   0.16518   0.17474   0.21982
 Alpha virt. eigenvalues --    0.23510   0.25042   0.25277   0.26796   0.28243
 Alpha virt. eigenvalues --    0.29601   0.30362   0.30966   0.31406   0.32001

 Mulliken charges:
               1
     1  C   -0.177608
     2  C   -0.223842
     3  C   -0.170826
     4  C    0.158449
     5  C   -0.170608
     6  C   -0.220130
     7  H    0.235860
     8  H    0.225083
     9  H    0.275725
    10  H    0.275606
    11  H    0.224040
    12  N    0.487988
    13  O   -0.460383
    14  O   -0.460444
    15  C   -0.299813
    16  C   -0.300759
    17  C   -0.475685
    18  H    0.155356
    19  H    0.145099
    20  H    0.155523
    21  H    0.148662
    22  H    0.153477
    23  H    0.158047
    24  H    0.163808
    25  C   -0.302597
    26  C   -0.301700
    27  C   -0.475008
    28  H    0.155346
    29  H    0.140352
    30  H    0.157057
    31  H    0.152452
    32  H    0.147907
    33  H    0.158250
    34  H    0.165315
 Sum of Mulliken charges =  -0.00000

 Dipole moment (field-independent basis, Debye):
    X=             -5.1201    Y=              1.4507    Z=              1.1852  Tot=              5.4520
 Quadrupole moment (field-independent basis, Debye-Ang):
   XX=           -123.2085   YY=            -92.8008   ZZ=            -94.1751
   XY=              6.3399   XZ=              4.9550   YZ=              1.8463

 Normal termination of Gaussian 16 at Thu May  6 09:34:02 2021.
