 Gaussian 16, Revision A.03,
 Gaussian 16:  EM64L-G16RevA.03 25-Dec-2016

 -------------
 #p 6-31g* mp2
 -------------

 ------------------------------------------------------
 Input file generated by CHIRIPA (05-May-2021 14:55:22)
 ------------------------------------------------------
 Symbolic Z-matrix:
 Charge =  0 Multiplicity = 1

                         Standard orientation:
 ---------------------------------------------------------------------
 Center     Atomic      Atomic             Coordinates (Angstroms)
 Number     Number       Type             X           Y           Z
 ---------------------------------------------------------------------
      1          6           0       -2.837059   -1.625284   -1.904854
      2          6           0       -1.841255   -0.643114   -1.889442
      3          6           0       -1.697460    0.204961   -0.787335
      4          6           0       -2.570660    0.042285    0.287071
      5          6           0       -3.572679   -0.926756    0.301558
      6          6           0       -3.698074   -1.763726   -0.811233
      7          1           0       -2.941615   -2.279776   -2.765147
      8          1           0       -1.171159   -0.533309   -2.737357
      9          1           0       -0.935256    0.973726   -0.749071
     10          1           0       -4.225705   -1.012100    1.161611
     11          1           0       -4.472342   -2.525612   -0.820443
     12          7           0       -2.428170    0.934226    1.459478
     13          8           0       -3.210089    0.770548    2.393528
     14          8           0       -1.537265    1.780118    1.422161
     15          6           0        2.854742    0.467684   -0.625273
     16          6           0        2.895814    1.995218   -0.571100
     17          6           0        1.958703    2.648202   -1.587579
     18          1           0        3.121395    0.135745   -1.638021
     19          1           0        1.824870    0.128950   -0.446343
     20          1           0        3.925563    2.330914   -0.748707
     21          1           0        2.629219    2.323553    0.441688
     22          1           0        0.922927    2.341826   -1.408963
     23          1           0        2.226637    2.349229   -2.606121
     24          1           0        2.003918    3.740301   -1.531587
     25          6           0        3.786266   -0.199606    0.385032
     26          6           0        3.745194   -1.727140    0.330859
     27          6           0        4.682307   -2.380123    1.347338
     28          1           0        4.816140    0.139129    0.206102
     29          1           0        3.519613    0.132333    1.397780
     30          1           0        4.011790   -2.055474   -0.681930
     31          1           0        2.715447   -2.062835    0.508465
     32          1           0        4.414373   -2.081150    2.365880
     33          1           0        5.718082   -2.073747    1.168722
     34          1           0        4.637091   -3.472222    1.291345
 ---------------------------------------------------------------------

 SCF Done:  E(RHF) =  -669.535635926     A.U. after   15 cycles
 E2 =    -0.2091693634D+01 EUMP2 =    -0.67162732955960D+03

 The electronic state is 1-A.
 Alpha  occ. eigenvalues --  -20.60804 -20.60797 -15.85854 -11.31208 -11.27775
 Alpha  occ. eigenvalues --  -11.27763 -11.27511 -11.26794 -11.26777 -11.21654
 Alpha  occ. eigenvalues --  -11.21626 -11.21534 -11.21387 -11.21334 -11.21075
 Alpha  occ. eigenvalues --   -1.59878  -1.39432  -1.19380  -1.08776  -1.08503
 Alpha  occ. eigenvalues --   -1.04781  -1.03608  -0.96078  -0.95614  -0.87096
 Alpha  occ. eigenvalues --   -0.86180  -0.82445  -0.79671  -0.78333  -0.77492
 Alpha  occ. eigenvalues --   -0.72075  -0.71200  -0.70498  -0.65154  -0.65030
 Alpha  occ. eigenvalues --   -0.64763  -0.62170  -0.60963  -0.59435  -0.57689
 Alpha  occ. eigenvalues --   -0.55419  -0.55245  -0.53111  -0.52895  -0.52754
 Alpha  occ. eigenvalues --   -0.52497  -0.50021  -0.48832  -0.48830  -0.47992
 Alpha  occ. eigenvalues --   -0.46679  -0.45869  -0.45771  -0.44839  -0.43859
 Alpha  occ. eigenvalues --   -0.37359  -0.36376
 Alpha virt. eigenvalues --    0.05011   0.11235   0.16512   0.19740   0.22938
 Alpha virt. eigenvalues --    0.23771   0.25702   0.27057   0.27637   0.27859
 Alpha virt. eigenvalues --    0.29369   0.30425   0.31467   0.31701   0.31991

 Mulliken charges:
               1
     1  C   -0.170628
     2  C   -0.222965
     3  C   -0.182766
     4  C    0.158218
     5  C   -0.169834
     6  C   -0.218919
     7  H    0.225839
     8  H    0.224814
     9  H    0.292272
    10  H    0.275684
    11  H    0.223606
    12  N    0.486308
    13  O   -0.460061
    14  O   -0.461135
    15  C   -0.299842
    16  C   -0.300619
    17  C   -0.478849
    18  H    0.145950
    19  H    0.146194
    20  H    0.152421
    21  H    0.162376
    22  H    0.150013
    23  H    0.151781
    24  H    0.166270
    25  C   -0.298882
    26  C   -0.299825
    27  C   -0.475925
    28  H    0.149825
    29  H    0.154929
    30  H    0.149592
    31  H    0.152000
    32  H    0.157446
    33  H    0.155202
    34  H    0.159508
 Sum of Mulliken charges =  -0.00000

 Dipole moment (field-independent basis, Debye):
    X=             -0.4449    Y=             -3.0855    Z=             -4.0350  Tot=              5.0989
 Quadrupole moment (field-independent basis, Debye-Ang):
   XX=            -89.1206   YY=            -94.6836   ZZ=            -96.7408
   XY=             10.9970   XZ=              7.9847   YZ=             -1.6760

 Normal termination of Gaussian 16 at Wed May  5 23:52:32 2021.
