 Gaussian 16, Revision A.03,
 Gaussian 16:  EM64L-G16RevA.03 25-Dec-2016

 -------------
 #p 6-31g* mp2
 -------------

 ------------------------------------------------------
 Input file generated by CHIRIPA (05-May-2021 14:57:22)
 ------------------------------------------------------
 Symbolic Z-matrix:
 Charge =  0 Multiplicity = 1

                         Standard orientation:
 ---------------------------------------------------------------------
 Center     Atomic      Atomic             Coordinates (Angstroms)
 Number     Number       Type             X           Y           Z
 ---------------------------------------------------------------------
      1          6           0        2.522951    2.099977    0.283955
      2          6           0        2.244325    0.965261    1.052921
      3          6           0        3.004136   -0.198592    0.902318
      4          6           0        4.039803   -0.192707   -0.030768
      5          6           0        4.341986    0.921820   -0.811668
      6          6           0        3.569048    2.074680   -0.644248
      7          1           0        1.927613    2.999816    0.407479
      8          1           0        1.432522    0.982032    1.774543
      9          1           0        2.810123   -1.091186    1.484601
     10          1           0        5.157651    0.874803   -1.522934
     11          1           0        3.787706    2.954434   -1.242802
     12          7           0        4.851129   -1.419007   -0.199106
     13          8           0        5.758134   -1.388241   -1.027980
     14          8           0        4.564680   -2.387726    0.501013
     15          6           0       -2.298693    1.893556    0.404222
     16          6           0       -3.499962    2.123238   -0.274540
     17          6           0       -4.398080    1.076346   -0.502460
     18          6           0       -4.061484   -0.193373   -0.035762
     19          6           0       -2.872478   -0.453944    0.643693
     20          6           0       -1.989329    0.607964    0.860367
     21          1           0       -1.606827    2.712639    0.576908
     22          1           0       -3.742842    3.120615   -0.629920
     23          1           0       -5.334989    1.226158   -1.025122
     24          1           0       -2.658014   -1.459044    0.986036
     25          1           0       -1.057134    0.426654    1.387798
     26          7           0       -5.004356   -1.309620   -0.271099
     27          8           0       -4.684471   -2.419071    0.150125
     28          8           0       -6.045413   -1.053947   -0.872324
 ---------------------------------------------------------------------

 SCF Done:  E(RHF) =  -868.336092848     A.U. after   16 cycles
 E2 =    -0.2599984155D+01 EUMP2 =    -0.87093607700278D+03

 The electronic state is 1-A.
 Alpha  occ. eigenvalues --  -20.61280 -20.61275 -20.61137 -20.61131 -15.86343
 Alpha  occ. eigenvalues --  -15.86197 -11.31886 -11.31707 -11.28535 -11.28461
 Alpha  occ. eigenvalues --  -11.28356 -11.28312 -11.28283 -11.28174 -11.27682
 Alpha  occ. eigenvalues --  -11.27511 -11.27450 -11.27353  -1.60352  -1.60209
 Alpha  occ. eigenvalues --   -1.39901  -1.39758  -1.20100  -1.19912  -1.09476
 Alpha  occ. eigenvalues --   -1.09300  -1.05543  -1.05339  -0.96272  -0.96103
 Alpha  occ. eigenvalues --   -0.86960  -0.86735  -0.83111  -0.82928  -0.78122
 Alpha  occ. eigenvalues --   -0.77927  -0.72559  -0.72414  -0.71677  -0.71534
 Alpha  occ. eigenvalues --   -0.71249  -0.71059  -0.65773  -0.65741  -0.65573
 Alpha  occ. eigenvalues --   -0.65252  -0.62947  -0.62618  -0.56113  -0.55881
 Alpha  occ. eigenvalues --   -0.53864  -0.53737  -0.53649  -0.53350  -0.49334
 Alpha  occ. eigenvalues --   -0.49300  -0.49184  -0.49157  -0.45266  -0.45131
 Alpha  occ. eigenvalues --   -0.38120  -0.37910  -0.37144  -0.36914
 Alpha virt. eigenvalues --    0.04439   0.04614   0.10347   0.10793   0.15800
 Alpha virt. eigenvalues --    0.16073   0.17807   0.22183   0.24246   0.25668
 Alpha virt. eigenvalues --    0.27938   0.28976   0.29874   0.31501   0.32223

 Mulliken charges:
               1
     1  C   -0.170301
     2  C   -0.220711
     3  C   -0.169750
     4  C    0.159451
     5  C   -0.169007
     6  C   -0.217887
     7  H    0.221095
     8  H    0.216216
     9  H    0.276936
    10  H    0.278461
    11  H    0.225549
    12  N    0.488056
    13  O   -0.458089
    14  O   -0.458582
    15  C   -0.170427
    16  C   -0.218045
    17  C   -0.170035
    18  C    0.159470
    19  C   -0.170400
    20  C   -0.217454
    21  H    0.217796
    22  H    0.224213
    23  H    0.277531
    24  H    0.278110
    25  H    0.217238
    26  N    0.487928
    27  O   -0.458357
    28  O   -0.459006
 Sum of Mulliken charges =  -0.00000

 Dipole moment (field-independent basis, Debye):
    X=              0.5289    Y=              8.1310    Z=              1.2594  Tot=              8.2450
 Quadrupole moment (field-independent basis, Debye-Ang):
   XX=           -150.6245   YY=           -105.8794   ZZ=           -102.5605
   XY=              0.6390   XZ=             -1.6627   YZ=             -4.3754

 Normal termination of Gaussian 16 at Thu May  6 21:07:59 2021.
