 Gaussian 16, Revision A.03,
 Gaussian 16:  EM64L-G16RevA.03 25-Dec-2016

 -------------
 #p 6-31g* mp2
 -------------

 ------------------------------------------------------
 Input file generated by CHIRIPA (05-May-2021 14:55:23)
 ------------------------------------------------------
 Symbolic Z-matrix:
 Charge =  0 Multiplicity = 1

                         Standard orientation:
 ---------------------------------------------------------------------
 Center     Atomic      Atomic             Coordinates (Angstroms)
 Number     Number       Type             X           Y           Z
 ---------------------------------------------------------------------
      1          6           0        2.922608    2.014379    0.994039
      2          6           0        1.622257    1.515474    1.123280
      3          6           0        1.287955    0.261491    0.603360
      4          6           0        2.283270   -0.470117   -0.042695
      5          6           0        3.587741   -0.000332   -0.187431
      6          6           0        3.899477    1.256220    0.340248
      7          1           0        3.173537    2.989500    1.400939
      8          1           0        0.861569    2.102073    1.630530
      9          1           0        0.289119   -0.148820    0.689323
     10          1           0        4.324556   -0.608242   -0.698280
     11          1           0        4.910170    1.641152    0.238401
     12          7           0        1.941304   -1.799012   -0.597219
     13          8           0        2.836308   -2.424007   -1.162007
     14          8           0        0.784742   -2.190443   -0.456567
     15          6           0       -2.513216    0.912571   -0.108208
     16          6           0       -3.094959    2.111721   -0.857608
     17          6           0       -2.119819    3.286426   -0.941050
     18          1           0       -2.226350    1.225515    0.905063
     19          1           0       -1.589969    0.589081   -0.608571
     20          1           0       -4.017577    2.431987   -0.356787
     21          1           0       -3.380650    1.795838   -1.869149
     22          1           0       -1.202548    2.989559   -1.459784
     23          1           0       -1.843095    3.629322    0.061171
     24          1           0       -2.556052    4.132755   -1.480762
     25          6           0       -3.476237   -0.269758   -0.016457
     26          6           0       -2.894494   -1.468907    0.732944
     27          6           0       -3.869634   -2.643614    0.816386
     28          1           0       -4.399484    0.053733    0.483907
     29          1           0       -3.763103   -0.582702   -1.029728
     30          1           0       -2.608803   -1.153025    1.744485
     31          1           0       -1.971876   -1.789173    0.232123
     32          1           0       -4.146358   -2.986508   -0.185835
     33          1           0       -4.786904   -2.346746    1.335120
     34          1           0       -3.433401   -3.489942    1.356097
 ---------------------------------------------------------------------

 SCF Done:  E(RHF) =  -669.535768775     A.U. after   15 cycles
 E2 =    -0.2093394021D+01 EUMP2 =    -0.67162916279670D+03

 The electronic state is 1-A.
 Alpha  occ. eigenvalues --  -20.60865 -20.60852 -15.85902 -11.31163 -11.27747
 Alpha  occ. eigenvalues --  -11.27655 -11.27475 -11.26747 -11.26712 -11.21884
 Alpha  occ. eigenvalues --  -11.21713 -11.21483 -11.21310 -11.21162 -11.20649
 Alpha  occ. eigenvalues --   -1.59927  -1.39485  -1.19340  -1.08757  -1.08510
 Alpha  occ. eigenvalues --   -1.04725  -1.03507  -0.96010  -0.95604  -0.87023
 Alpha  occ. eigenvalues --   -0.86133  -0.82443  -0.79632  -0.78409  -0.77417
 Alpha  occ. eigenvalues --   -0.72129  -0.71243  -0.70452  -0.65173  -0.64984
 Alpha  occ. eigenvalues --   -0.64697  -0.62081  -0.60881  -0.59398  -0.57603
 Alpha  occ. eigenvalues --   -0.55335  -0.55216  -0.53073  -0.52878  -0.52627
 Alpha  occ. eigenvalues --   -0.52410  -0.49951  -0.48917  -0.48869  -0.47914
 Alpha  occ. eigenvalues --   -0.46657  -0.45838  -0.45628  -0.44895  -0.43794
 Alpha  occ. eigenvalues --   -0.37327  -0.36308
 Alpha virt. eigenvalues --    0.04998   0.11263   0.16504   0.20386   0.23019
 Alpha virt. eigenvalues --    0.23856   0.25192   0.25959   0.27585   0.28357
 Alpha virt. eigenvalues --    0.29905   0.30602   0.31589   0.31699   0.32443

 Mulliken charges:
               1
     1  C   -0.170350
     2  C   -0.222096
     3  C   -0.175094
     4  C    0.155824
     5  C   -0.170434
     6  C   -0.219021
     7  H    0.225661
     8  H    0.224945
     9  H    0.287458
    10  H    0.275249
    11  H    0.223303
    12  N    0.493739
    13  O   -0.459533
    14  O   -0.468240
    15  C   -0.306310
    16  C   -0.298677
    17  C   -0.476700
    18  H    0.139558
    19  H    0.154035
    20  H    0.153062
    21  H    0.156067
    22  H    0.156994
    23  H    0.148114
    24  H    0.162340
    25  C   -0.296029
    26  C   -0.317318
    27  C   -0.474690
    28  H    0.148040
    29  H    0.153208
    30  H    0.143607
    31  H    0.181463
    32  H    0.157130
    33  H    0.151200
    34  H    0.163494
 Sum of Mulliken charges =  -0.00000

 Dipole moment (field-independent basis, Debye):
    X=              1.2053    Y=              4.5422    Z=              1.8125  Tot=              5.0368
 Quadrupole moment (field-independent basis, Debye-Ang):
   XX=            -85.1287   YY=           -100.3533   ZZ=            -94.4596
   XY=              9.2487   XZ=              2.9291   YZ=             -0.4451

 Normal termination of Gaussian 16 at Thu May  6 04:41:32 2021.
