 Gaussian 16, Revision A.03,
 Gaussian 16:  EM64L-G16RevA.03 25-Dec-2016

 -------------
 #p 6-31g* mp2
 -------------

 ------------------------------------------------------
 Input file generated by CHIRIPA (05-May-2021 14:53:12)
 ------------------------------------------------------
 Symbolic Z-matrix:
 Charge =  0 Multiplicity = 1

                         Standard orientation:
 ---------------------------------------------------------------------
 Center     Atomic      Atomic             Coordinates (Angstroms)
 Number     Number       Type             X           Y           Z
 ---------------------------------------------------------------------
      1          6           0        3.005408   -0.584093    0.107748
      2          6           0        2.627304   -1.792141   -0.749949
      3          6           0        1.201157   -2.278399   -0.490237
      4          1           0        2.893367   -0.846232    1.168727
      5          1           0        2.297045    0.232566   -0.088937
      6          1           0        3.336997   -2.605809   -0.552729
      7          1           0        2.740442   -1.527156   -1.809005
      8          1           0        0.478356   -1.484771   -0.705444
      9          1           0        1.078301   -2.569553    0.557970
     10          1           0        0.951832   -3.142583   -1.113841
     11          6           0        4.428204   -0.086357   -0.140518
     12          6           0        4.806307    1.121690    0.717180
     13          6           0        6.232454    1.607949    0.457467
     14          1           0        5.136567   -0.903016    0.056167
     15          1           0        4.540245    0.175782   -1.201496
     16          1           0        4.693170    0.856706    1.776235
     17          1           0        4.096615    1.935359    0.519959
     18          1           0        6.355311    1.899103   -0.590740
     19          1           0        6.955255    0.814321    0.672674
     20          1           0        6.481780    2.472133    1.081071
     21          6           0       -2.900378   -2.188670    0.613338
     22          6           0       -3.411981   -1.248093    1.513394
     23          6           0       -3.418912    0.112312    1.191214
     24          6           0       -2.904081    0.498806   -0.045257
     25          6           0       -2.387460   -0.414245   -0.963261
     26          6           0       -2.390651   -1.769483   -0.619942
     27          1           0       -2.898926   -3.243458    0.871825
     28          1           0       -3.808487   -1.570758    2.471890
     29          1           0       -3.808889    0.861712    1.869251
     30          1           0       -1.999000   -0.062238   -1.911210
     31          1           0       -1.992695   -2.497721   -1.320902
     32          7           0       -2.906061    1.936271   -0.397523
     33          8           0       -2.446756    2.251142   -1.493211
     34          8           0       -3.366881    2.720866    0.428728
 ---------------------------------------------------------------------

 SCF Done:  E(RHF) =  -669.534835535     A.U. after   15 cycles
 E2 =    -0.2092207328D+01 EUMP2 =    -0.67162704286310D+03

 The electronic state is 1-A.
 Alpha  occ. eigenvalues --  -20.60786 -20.60780 -15.85838 -11.31206 -11.27741
 Alpha  occ. eigenvalues --  -11.27737 -11.27468 -11.26781 -11.26745 -11.21878
 Alpha  occ. eigenvalues --  -11.21582 -11.21523 -11.21511 -11.21424 -11.21032
 Alpha  occ. eigenvalues --   -1.59861  -1.39415  -1.19367  -1.08759  -1.08554
 Alpha  occ. eigenvalues --   -1.04776  -1.03687  -0.96159  -0.95595  -0.87195
 Alpha  occ. eigenvalues --   -0.86153  -0.82432  -0.79764  -0.78346  -0.77475
 Alpha  occ. eigenvalues --   -0.72056  -0.71184  -0.70461  -0.65192  -0.65012
 Alpha  occ. eigenvalues --   -0.64765  -0.62129  -0.61082  -0.59544  -0.57764
 Alpha  occ. eigenvalues --   -0.55479  -0.55248  -0.53294  -0.52969  -0.52723
 Alpha  occ. eigenvalues --   -0.52426  -0.50079  -0.48814  -0.48811  -0.48067
 Alpha  occ. eigenvalues --   -0.46778  -0.45896  -0.45799  -0.44819  -0.43946
 Alpha  occ. eigenvalues --   -0.37329  -0.36284
 Alpha virt. eigenvalues --    0.05023   0.11231   0.16478   0.21037   0.22801
 Alpha virt. eigenvalues --    0.24130   0.26471   0.26610   0.27345   0.28173
 Alpha virt. eigenvalues --    0.28674   0.29992   0.31318   0.31779   0.32049

 Mulliken charges:
               1
     1  C   -0.299020
     2  C   -0.299611
     3  C   -0.479976
     4  H    0.149107
     5  H    0.152918
     6  H    0.151712
     7  H    0.152411
     8  H    0.159400
     9  H    0.154842
    10  H    0.152017
    11  C   -0.298482
    12  C   -0.300282
    13  C   -0.475864
    14  H    0.148743
    15  H    0.150562
    16  H    0.151393
    17  H    0.154861
    18  H    0.155832
    19  H    0.154336
    20  H    0.161108
    21  C   -0.172197
    22  C   -0.218090
    23  C   -0.171589
    24  C    0.159051
    25  C   -0.174447
    26  C   -0.212415
    27  H    0.225817
    28  H    0.223457
    29  H    0.275488
    30  H    0.275397
    31  H    0.226406
    32  N    0.488056
    33  O   -0.460734
    34  O   -0.460206
 Sum of Mulliken charges =  -0.00000

 Dipole moment (field-independent basis, Debye):
    X=              0.0006    Y=             -5.0183    Z=              1.2745  Tot=              5.1776
 Quadrupole moment (field-independent basis, Debye-Ang):
   XX=            -95.3804   YY=           -100.2286   ZZ=            -90.6738
   XY=             13.9682   XZ=             -5.4922   YZ=              1.4090

 Normal termination of Gaussian 16 at Wed May  5 16:59:43 2021.
