 Gaussian 16, Revision A.03,
 Gaussian 16:  EM64L-G16RevA.03 25-Dec-2016

 -------------
 #p 6-31g* mp2
 -------------

 ------------------------------------------------------
 Input file generated by CHIRIPA (05-May-2021 14:53:12)
 ------------------------------------------------------
 Symbolic Z-matrix:
 Charge =  0 Multiplicity = 1

                         Standard orientation:
 ---------------------------------------------------------------------
 Center     Atomic      Atomic             Coordinates (Angstroms)
 Number     Number       Type             X           Y           Z
 ---------------------------------------------------------------------
      1          6           0       -2.545999    1.577614   -0.188840
      2          6           0       -1.057214    1.714279    0.131825
      3          6           0       -0.546098    3.145903   -0.032506
      4          1           0       -2.725460    1.916639   -1.218306
      5          1           0       -3.118128    2.249602    0.465757
      6          1           0       -0.488176    1.041212   -0.522234
      7          1           0       -0.881246    1.374709    1.160583
      8          1           0       -1.088068    3.827050    0.631504
      9          1           0       -0.692764    3.491658   -1.060875
     10          1           0        0.520378    3.220810    0.201756
     11          6           0       -3.071742    0.152194   -0.029155
     12          6           0       -4.560527    0.015529   -0.349820
     13          6           0       -5.071643   -1.416096   -0.185490
     14          1           0       -2.499613   -0.519794   -0.683752
     15          1           0       -2.892281   -0.186831    1.000311
     16          1           0       -4.736495    0.355098   -1.378579
     17          1           0       -5.129565    0.688596    0.304239
     18          1           0       -4.924977   -1.761850    0.842880
     19          1           0       -4.529673   -2.097242   -0.849499
     20          1           0       -6.138119   -1.491002   -0.419751
     21          6           0        0.466753   -2.471486    0.480412
     22          6           0        0.669656   -1.472400    1.438105
     23          6           0        1.624197   -0.472422    1.229676
     24          6           0        2.361455   -0.502097    0.046943
     25          6           0        2.182519   -1.484082   -0.926185
     26          6           0        1.222499   -2.474134   -0.696602
     27          1           0       -0.276885   -3.244437    0.650541
     28          1           0        0.084186   -1.467843    2.353119
     29          1           0        1.801767    0.312887    1.954367
     30          1           0        2.781455   -1.462275   -1.828525
     31          1           0        1.067069   -3.248795   -1.442113
     32          7           0        3.374885    0.551281   -0.184909
     33          8           0        4.011484    0.502891   -1.235165
     34          8           0        3.513423    1.405362    0.688010
 ---------------------------------------------------------------------

 SCF Done:  E(RHF) =  -669.535120920     A.U. after   15 cycles
 E2 =    -0.2093876478D+01 EUMP2 =    -0.67162899739758D+03

 The electronic state is 1-A.
 Alpha  occ. eigenvalues --  -20.60830 -20.60825 -15.85874 -11.31198 -11.27796
 Alpha  occ. eigenvalues --  -11.27758 -11.27523 -11.26797 -11.26755 -11.21977
 Alpha  occ. eigenvalues --  -11.21759 -11.21627 -11.21567 -11.21536 -11.20865
 Alpha  occ. eigenvalues --   -1.59898  -1.39453  -1.19389  -1.08785  -1.08679
 Alpha  occ. eigenvalues --   -1.04791  -1.03729  -0.96180  -0.95621  -0.87188
 Alpha  occ. eigenvalues --   -0.86184  -0.82458  -0.79815  -0.78509  -0.77505
 Alpha  occ. eigenvalues --   -0.72092  -0.71218  -0.70492  -0.65322  -0.65038
 Alpha  occ. eigenvalues --   -0.64789  -0.62143  -0.61130  -0.59567  -0.57794
 Alpha  occ. eigenvalues --   -0.55480  -0.55283  -0.53229  -0.52878  -0.52775
 Alpha  occ. eigenvalues --   -0.52595  -0.50130  -0.48851  -0.48848  -0.48104
 Alpha  occ. eigenvalues --   -0.46863  -0.46035  -0.45917  -0.44860  -0.43975
 Alpha  occ. eigenvalues --   -0.37351  -0.36292
 Alpha virt. eigenvalues --    0.05007   0.11188   0.16411   0.20795   0.22791
 Alpha virt. eigenvalues --    0.23904   0.25673   0.26727   0.27347   0.28336
 Alpha virt. eigenvalues --    0.28399   0.30797   0.31138   0.31489   0.31784

 Mulliken charges:
               1
     1  C   -0.298439
     2  C   -0.299246
     3  C   -0.480703
     4  H    0.150980
     5  H    0.149512
     6  H    0.155464
     7  H    0.143356
     8  H    0.153678
     9  H    0.155970
    10  H    0.170785
    11  C   -0.296929
    12  C   -0.299655
    13  C   -0.475365
    14  H    0.148653
    15  H    0.142749
    16  H    0.153716
    17  H    0.153188
    18  H    0.152381
    19  H    0.152402
    20  H    0.162275
    21  C   -0.170230
    22  C   -0.215007
    23  C   -0.166783
    24  C    0.158168
    25  C   -0.172362
    26  C   -0.219522
    27  H    0.226343
    28  H    0.223085
    29  H    0.275308
    30  H    0.275625
    31  H    0.223456
    32  N    0.488158
    33  O   -0.459937
    34  O   -0.461072
 Sum of Mulliken charges =  -0.00000

 Dipole moment (field-independent basis, Debye):
    X=             -3.4988    Y=             -3.6723    Z=              0.7818  Tot=              5.1321
 Quadrupole moment (field-independent basis, Debye-Ang):
   XX=           -112.4990   YY=            -91.5601   ZZ=            -90.0493
   XY=             -8.1005   XZ=              0.5477   YZ=              1.7099

 Normal termination of Gaussian 16 at Wed May  5 17:01:08 2021.
