 Gaussian 16, Revision A.03,
 Gaussian 16:  EM64L-G16RevA.03 25-Dec-2016

 -------------
 #p 6-31g* mp2
 -------------

 ------------------------------------------------------
 Input file generated by CHIRIPA (05-May-2021 14:53:12)
 ------------------------------------------------------
 Symbolic Z-matrix:
 Charge =  0 Multiplicity = 1

                         Standard orientation:
 ---------------------------------------------------------------------
 Center     Atomic      Atomic             Coordinates (Angstroms)
 Number     Number       Type             X           Y           Z
 ---------------------------------------------------------------------
      1          6           0        4.090431    0.793305    0.220903
      2          6           0        2.840066    1.433544    0.824778
      3          6           0        2.972338    2.947805    0.990042
      4          1           0        4.955350    1.019746    0.859326
      5          1           0        4.294062    1.253299   -0.755998
      6          1           0        2.638060    0.971511    1.799630
      7          1           0        1.977990    1.205392    0.184945
      8          1           0        3.150641    3.426873    0.021898
      9          1           0        3.814461    3.191663    1.645757
     10          1           0        2.067328    3.384940    1.423320
     11          6           0        3.973503   -0.720191    0.049478
     12          6           0        5.223868   -1.360430   -0.554398
     13          6           0        5.091596   -2.874690   -0.719662
     14          1           0        3.769872   -1.180185    1.026378
     15          1           0        3.108584   -0.946631   -0.588946
     16          1           0        6.085944   -1.132277    0.085435
     17          1           0        5.425874   -0.898396   -1.529249
     18          1           0        4.249473   -3.118549   -1.375377
     19          1           0        4.913293   -3.353759    0.248482
     20          1           0        5.996606   -3.311825   -1.152940
     21          6           0       -4.834938   -1.724628    0.700717
     22          6           0       -3.493658   -1.834515    1.082045
     23          6           0       -2.551385   -0.900502    0.641263
     24          6           0       -2.987078    0.135409   -0.183571
     25          6           0       -4.316316    0.271888   -0.580801
     26          6           0       -5.241270   -0.673629   -0.128027
     27          1           0       -5.560192   -2.454660    1.047785
     28          1           0       -3.175241   -2.649696    1.725579
     29          1           0       -1.506733   -0.961754    0.921205
     30          1           0       -4.603658    1.095440   -1.223152
     31          1           0       -6.282268   -0.585792   -0.425772
     32          7           0       -1.998703    1.130296   -0.656555
     33          8           0       -2.407936    2.033700   -1.382522
     34          8           0       -0.833497    0.987848   -0.292357
 ---------------------------------------------------------------------

 SCF Done:  E(RHF) =  -669.536093363     A.U. after   15 cycles
 E2 =    -0.2090795416D+01 EUMP2 =    -0.67162688877848D+03

 The electronic state is 1-A.
 Alpha  occ. eigenvalues --  -20.60927 -20.60920 -15.85973 -11.31285 -11.27849
 Alpha  occ. eigenvalues --  -11.27843 -11.27587 -11.26856 -11.26846 -11.21079
 Alpha  occ. eigenvalues --  -11.20703 -11.20697 -11.20472 -11.20277 -11.19919
 Alpha  occ. eigenvalues --   -1.59994  -1.39550  -1.19454  -1.08860  -1.07615
 Alpha  occ. eigenvalues --   -1.04850  -1.02683  -0.95703  -0.95179  -0.86250
 Alpha  occ. eigenvalues --   -0.86203  -0.82539  -0.78784  -0.77605  -0.77359
 Alpha  occ. eigenvalues --   -0.72198  -0.71311  -0.70563  -0.65112  -0.64852
 Alpha  occ. eigenvalues --   -0.64244  -0.62196  -0.60071  -0.58573  -0.56757
 Alpha  occ. eigenvalues --   -0.55355  -0.54482  -0.53182  -0.52941  -0.51876
 Alpha  occ. eigenvalues --   -0.51604  -0.49156  -0.48951  -0.48943  -0.47088
 Alpha  occ. eigenvalues --   -0.45809  -0.44968  -0.44940  -0.44768  -0.42952
 Alpha  occ. eigenvalues --   -0.37434  -0.36451
 Alpha virt. eigenvalues --    0.04943   0.11204   0.16443   0.21308   0.23621
 Alpha virt. eigenvalues --    0.25140   0.27217   0.27396   0.27867   0.28634
 Alpha virt. eigenvalues --    0.28804   0.30902   0.32128   0.32229   0.32832

 Mulliken charges:
               1
     1  C   -0.297513
     2  C   -0.309861
     3  C   -0.473726
     4  H    0.145115
     5  H    0.149321
     6  H    0.143431
     7  H    0.180879
     8  H    0.155213
     9  H    0.147876
    10  H    0.162661
    11  C   -0.297870
    12  C   -0.298906
    13  C   -0.475163
    14  H    0.145217
    15  H    0.152019
    16  H    0.150569
    17  H    0.152201
    18  H    0.154335
    19  H    0.152840
    20  H    0.158663
    21  C   -0.170610
    22  C   -0.218565
    23  C   -0.170855
    24  C    0.157260
    25  C   -0.170553
    26  C   -0.218620
    27  H    0.225972
    28  H    0.223927
    29  H    0.276224
    30  H    0.275810
    31  H    0.223761
    32  N    0.495902
    33  O   -0.459209
    34  O   -0.467749
 Sum of Mulliken charges =  -0.00000

 Dipole moment (field-independent basis, Debye):
    X=             -3.7843    Y=             -3.4585    Z=              1.5764  Tot=              5.3635
 Quadrupole moment (field-independent basis, Debye-Ang):
   XX=            -72.5749   YY=            -96.5755   ZZ=            -94.1177
   XY=              8.3199   XZ=             -2.3036   YZ=             -1.1508

 Normal termination of Gaussian 16 at Thu May  6 04:06:53 2021.
