 Gaussian 16, Revision A.03,
 Gaussian 16:  EM64L-G16RevA.03 25-Dec-2016

 -------------
 #p 6-31g* mp2
 -------------

 ------------------------------------------------------
 Input file generated by CHIRIPA (05-May-2021 14:51:11)
 ------------------------------------------------------
 Symbolic Z-matrix:
 Charge =  0 Multiplicity = 1

                         Standard orientation:
 ---------------------------------------------------------------------
 Center     Atomic      Atomic             Coordinates (Angstroms)
 Number     Number       Type             X           Y           Z
 ---------------------------------------------------------------------
      1          6           0       -2.098776   -0.918292    0.847973
      2          6           0       -1.010680   -1.940727    0.518337
      3          6           0       -0.373423   -2.549441    1.767803
      4          1           0       -1.667382   -0.119995    1.467300
      5          1           0       -2.874365   -1.402266    1.457584
      6          1           0       -0.238063   -1.455325   -0.091633
      7          1           0       -1.444670   -2.736583   -0.100437
      8          1           0       -1.128003   -3.058684    2.375982
      9          1           0        0.085460   -1.770147    2.384835
     10          1           0        0.401645   -3.277572    1.509047
     11          6           0       -2.745286   -0.300939   -0.390828
     12          6           0       -3.833382    0.721496   -0.061193
     13          6           0       -4.470639    1.330209   -1.310659
     14          1           0       -1.969697    0.183035   -1.000439
     15          1           0       -3.176680   -1.099236   -1.010155
     16          1           0       -3.399392    1.517352    0.557581
     17          1           0       -4.605999    0.236094    0.548777
     18          1           0       -4.929522    0.550915   -1.927691
     19          1           0       -3.716059    1.839453   -1.918837
     20          1           0       -5.245707    2.058341   -1.051903
     21          6           0        2.445273    1.127883    0.332045
     22          6           0        1.877277    2.487785   -0.075424
     23          6           0        1.930694    3.514008    1.056744
     24          1           0        1.886580    0.749103    1.198839
     25          1           0        3.485246    1.256814    0.662538
     26          1           0        0.839124    2.356118   -0.406361
     27          1           0        2.437260    2.863283   -0.941470
     28          1           0        2.963449    3.674697    1.382624
     29          1           0        1.356232    3.164651    1.920772
     30          1           0        1.519691    4.478872    0.743738
     31          6           0        2.398789    0.091348   -0.789188
     32          6           0        2.966786   -1.268554   -0.381720
     33          6           0        2.913368   -2.294777   -1.513889
     34          1           0        1.358816   -0.037583   -1.119683
     35          1           0        2.957481    0.470128   -1.655984
     36          1           0        2.406801   -1.644053    0.484325
     37          1           0        4.004938   -1.136887   -0.050783
     38          1           0        3.487830   -1.945419   -2.377917
     39          1           0        1.880613   -2.455467   -1.839768
     40          1           0        3.324371   -3.259641   -1.200882
 ---------------------------------------------------------------------

 SCF Done:  E(RHF) =  -470.732905238     A.U. after   11 cycles
 E2 =    -0.1584749440D+01 EUMP2 =    -0.47231765467805D+03

 The electronic state is 1-A.
 Alpha  occ. eigenvalues --  -11.21664 -11.21648 -11.21642 -11.21575 -11.21474
 Alpha  occ. eigenvalues --  -11.21452 -11.21414 -11.21387 -11.21149 -11.21123
 Alpha  occ. eigenvalues --  -11.21102 -11.21063  -1.08539  -1.08432  -1.03634
 Alpha  occ. eigenvalues --   -1.03516  -0.96046  -0.96006  -0.87057  -0.87027
 Alpha  occ. eigenvalues --   -0.79681  -0.79600  -0.78367  -0.78231  -0.65513
 Alpha  occ. eigenvalues --   -0.64797  -0.61257  -0.60714  -0.59397  -0.59355
 Alpha  occ. eigenvalues --   -0.57661  -0.57595  -0.55328  -0.55299  -0.52733
 Alpha  occ. eigenvalues --   -0.52697  -0.52476  -0.52422  -0.50020  -0.49936
 Alpha  occ. eigenvalues --   -0.48021  -0.47909  -0.46796  -0.46588  -0.46118
 Alpha  occ. eigenvalues --   -0.45850  -0.45746  -0.45345  -0.43842  -0.43815
 Alpha virt. eigenvalues --    0.18940   0.22343   0.23821   0.24189   0.25243
 Alpha virt. eigenvalues --    0.26355   0.27113   0.27967   0.29203   0.29959
 Alpha virt. eigenvalues --    0.30791   0.31196   0.31663   0.31824   0.32437

 Mulliken charges:
               1
     1  C   -0.297841
     2  C   -0.309772
     3  C   -0.477379
     4  H    0.149162
     5  H    0.149990
     6  H    0.162020
     7  H    0.152283
     8  H    0.155930
     9  H    0.154937
    10  H    0.161462
    11  C   -0.299310
    12  C   -0.299718
    13  C   -0.475779
    14  H    0.149196
    15  H    0.150082
    16  H    0.152036
    17  H    0.152212
    18  H    0.155290
    19  H    0.155302
    20  H    0.160472
    21  C   -0.299144
    22  C   -0.299897
    23  C   -0.475686
    24  H    0.149696
    25  H    0.150195
    26  H    0.151279
    27  H    0.152391
    28  H    0.155520
    29  H    0.154906
    30  H    0.160458
    31  C   -0.302510
    32  C   -0.305860
    33  C   -0.476963
    34  H    0.151421
    35  H    0.150542
    36  H    0.159009
    37  H    0.152352
    38  H    0.155174
    39  H    0.156486
    40  H    0.160055
 Sum of Mulliken charges =  -0.00000

 Dipole moment (field-independent basis, Debye):
    X=             -0.0021    Y=             -0.0116    Z=              0.0048  Tot=              0.0127
 Quadrupole moment (field-independent basis, Debye-Ang):
   XX=            -83.6527   YY=            -85.0890   ZZ=            -85.8709
   XY=              1.1553   XZ=             -0.6890   YZ=             -0.2910

 Normal termination of Gaussian 16 at Wed May  5 15:14:46 2021.
