 Gaussian 16, Revision A.03,
 Gaussian 16:  EM64L-G16RevA.03 25-Dec-2016

 -------------
 #p 6-31g* mp2
 -------------

 ------------------------------------------------------
 Input file generated by CHIRIPA (05-May-2021 14:51:11)
 ------------------------------------------------------
 Symbolic Z-matrix:
 Charge =  0 Multiplicity = 1

                         Standard orientation:
 ---------------------------------------------------------------------
 Center     Atomic      Atomic             Coordinates (Angstroms)
 Number     Number       Type             X           Y           Z
 ---------------------------------------------------------------------
      1          6           0        2.907746   -0.511123   -0.173530
      2          6           0        2.991400   -1.602441   -1.241244
      3          6           0        1.946345   -2.701399   -1.046443
      4          1           0        3.033329   -0.966883    0.818163
      5          1           0        1.901974   -0.068889   -0.189191
      6          1           0        3.997148   -2.041538   -1.224506
      7          1           0        2.865795   -1.144003   -2.230523
      8          1           0        0.935442   -2.282790   -1.084409
      9          1           0        2.073223   -3.185425   -0.072676
     10          1           0        2.024099   -3.471127   -1.820609
     11          6           0        3.946127    0.594609   -0.354782
     12          6           0        3.862473    1.685927    0.712931
     13          6           0        4.907528    2.784884    0.518131
     14          1           0        4.951899    0.152374   -0.339121
     15          1           0        3.820544    1.050369   -1.346476
     16          1           0        3.988079    1.227489    1.702211
     17          1           0        2.856725    2.125024    0.696194
     18          1           0        4.780650    3.268910   -0.455636
     19          1           0        5.918431    2.366275    0.556097
     20          1           0        4.829775    3.554612    1.292297
     21          6           0       -3.781796    0.634166    0.289720
     22          6           0       -4.687376    0.889550   -0.915556
     23          6           0       -5.390334    2.245773   -0.849976
     24          1           0       -4.380068    0.694589    1.209156
     25          1           0       -3.031456    1.434492    0.351887
     26          1           0       -5.434921    0.088232   -0.976238
     27          1           0       -4.086915    0.828322   -1.832243
     28          1           0       -4.657391    3.058192   -0.812970
     29          1           0       -6.013055    2.313896    0.047898
     30          1           0       -6.032528    2.407650   -1.721322
     31          6           0       -3.072078   -0.717652    0.238593
     32          6           0       -2.166497   -0.973035    1.443869
     33          6           0       -1.463539   -2.329259    1.378288
     34          1           0       -3.822417   -1.517977    0.176425
     35          1           0       -2.473805   -0.778074   -0.680844
     36          1           0       -2.766958   -0.911808    2.360555
     37          1           0       -1.418952   -0.171717    1.504550
     38          1           0       -0.840818   -2.397382    0.480414
     39          1           0       -2.196483   -3.141678    1.341283
     40          1           0       -0.821346   -2.491136    2.249634
 ---------------------------------------------------------------------

 SCF Done:  E(RHF) =  -470.733170957     A.U. after   11 cycles
 E2 =    -0.1582616417D+01 EUMP2 =    -0.47231578737400D+03

 The electronic state is 1-A.
 Alpha  occ. eigenvalues --  -11.21632 -11.21626 -11.21604 -11.21562 -11.21435
 Alpha  occ. eigenvalues --  -11.21402 -11.21375 -11.21342 -11.21094 -11.21090
 Alpha  occ. eigenvalues --  -11.21075 -11.20955  -1.08460  -1.08417  -1.03566
 Alpha  occ. eigenvalues --   -1.03497  -0.96027  -0.95934  -0.87060  -0.86935
 Alpha  occ. eigenvalues --   -0.79662  -0.79529  -0.78276  -0.78226  -0.65114
 Alpha  occ. eigenvalues --   -0.65031  -0.61028  -0.60850  -0.59373  -0.59321
 Alpha  occ. eigenvalues --   -0.57689  -0.57513  -0.55393  -0.55160  -0.52703
 Alpha  occ. eigenvalues --   -0.52655  -0.52549  -0.52259  -0.50062  -0.49790
 Alpha  occ. eigenvalues --   -0.48044  -0.47771  -0.46711  -0.46517  -0.45861
 Alpha  occ. eigenvalues --   -0.45761  -0.45711  -0.45632  -0.43813  -0.43763
 Alpha virt. eigenvalues --    0.21217   0.23170   0.23558   0.24974   0.25979
 Alpha virt. eigenvalues --    0.26588   0.26981   0.27583   0.27974   0.29134
 Alpha virt. eigenvalues --    0.30311   0.31436   0.31741   0.31858   0.32144

 Mulliken charges:
               1
     1  C   -0.298242
     2  C   -0.299768
     3  C   -0.479214
     4  H    0.150105
     5  H    0.148896
     6  H    0.152170
     7  H    0.151757
     8  H    0.157834
     9  H    0.156749
    10  H    0.160603
    11  C   -0.298320
    12  C   -0.299604
    13  C   -0.475728
    14  H    0.149713
    15  H    0.149590
    16  H    0.152094
    17  H    0.151666
    18  H    0.155167
    19  H    0.155269
    20  H    0.160339
    21  C   -0.298212
    22  C   -0.299626
    23  C   -0.475689
    24  H    0.149811
    25  H    0.149228
    26  H    0.152021
    27  H    0.151753
    28  H    0.155080
    29  H    0.155239
    30  H    0.160249
    31  C   -0.298105
    32  C   -0.299754
    33  C   -0.481623
    34  H    0.149758
    35  H    0.148422
    36  H    0.151767
    37  H    0.151673
    38  H    0.162593
    39  H    0.154582
    40  H    0.159755
 Sum of Mulliken charges =  -0.00000

 Dipole moment (field-independent basis, Debye):
    X=              0.0331    Y=             -0.0192    Z=             -0.0048  Tot=              0.0386
 Quadrupole moment (field-independent basis, Debye-Ang):
   XX=            -84.5198   YY=            -85.9423   ZZ=            -84.2355
   XY=             -0.1147   XZ=             -0.0334   YZ=             -0.4127

 Normal termination of Gaussian 16 at Wed May  5 23:06:49 2021.
