 Gaussian 16, Revision A.03,
 Gaussian 16:  EM64L-G16RevA.03 25-Dec-2016

 -------------
 #p 6-31g* mp2
 -------------

 ------------------------------------------------------
 Input file generated by CHIRIPA (05-May-2021 14:51:11)
 ------------------------------------------------------
 Symbolic Z-matrix:
 Charge =  0 Multiplicity = 1

                         Standard orientation:
 ---------------------------------------------------------------------
 Center     Atomic      Atomic             Coordinates (Angstroms)
 Number     Number       Type             X           Y           Z
 ---------------------------------------------------------------------
      1          6           0        3.673403    0.091750   -0.234362
      2          6           0        3.997923    1.582857   -0.138067
      3          6           0        5.115884    2.007272   -1.090867
      4          1           0        4.580729   -0.489111   -0.019178
      5          1           0        3.386527   -0.147963   -1.267626
      6          1           0        4.282765    1.819956    0.895018
      7          1           0        3.089672    2.160234   -0.353317
      8          1           0        4.837101    1.799081   -2.128912
      9          1           0        6.036973    1.456870   -0.873484
     10          1           0        5.331638    3.076863   -1.005518
     11          6           0        2.557739   -0.347791    0.712119
     12          6           0        2.233219   -1.838897    0.615824
     13          6           0        1.115257   -2.263312    1.568624
     14          1           0        2.844614   -0.108077    1.745383
     15          1           0        1.650413    0.233071    0.496935
     16          1           0        3.141470   -2.416274    0.831074
     17          1           0        1.948377   -2.075997   -0.417261
     18          1           0        0.194169   -1.712910    1.351241
     19          1           0        1.394041   -2.055121    2.606669
     20          1           0        0.899504   -3.332904    1.483275
     21          6           0       -3.030272    0.739406    0.210970
     22          6           0       -4.036178    1.853035   -0.082230
     23          6           0       -3.852816    3.069411    0.825845
     24          1           0       -3.128243    0.432714    1.261345
     25          1           0       -2.011719    1.134862    0.094518
     26          1           0       -5.052543    1.455229    0.033393
     27          1           0       -3.935932    2.156978   -1.132080
     28          1           0       -2.850587    3.493032    0.704672
     29          1           0       -3.973542    2.787295    1.876767
     30          1           0       -4.582166    3.853299    0.599065
     31          6           0       -3.200870   -0.483365   -0.688726
     32          6           0       -2.194964   -1.596994   -0.395527
     33          6           0       -2.378326   -2.813371   -1.303602
     34          1           0       -4.219423   -0.878821   -0.572274
     35          1           0       -3.102899   -0.176674   -1.739102
     36          1           0       -2.295210   -1.900938    0.654323
     37          1           0       -1.178599   -1.199188   -0.511149
     38          1           0       -2.257599   -2.531255   -2.354524
     39          1           0       -3.380555   -3.236993   -1.182429
     40          1           0       -1.648976   -3.597259   -1.076822
 ---------------------------------------------------------------------

 SCF Done:  E(RHF) =  -470.732756983     A.U. after   11 cycles
 E2 =    -0.1583316605D+01 EUMP2 =    -0.47231607358809D+03

 The electronic state is 1-A.
 Alpha  occ. eigenvalues --  -11.21638 -11.21637 -11.21608 -11.21561 -11.21450
 Alpha  occ. eigenvalues --  -11.21402 -11.21390 -11.21343 -11.21106 -11.21094
 Alpha  occ. eigenvalues --  -11.21077 -11.20901  -1.08485  -1.08411  -1.03595
 Alpha  occ. eigenvalues --   -1.03478  -0.96028  -0.95933  -0.87045  -0.86953
 Alpha  occ. eigenvalues --   -0.79723  -0.79502  -0.78331  -0.78197  -0.65154
 Alpha  occ. eigenvalues --   -0.65010  -0.61054  -0.60854  -0.59381  -0.59314
 Alpha  occ. eigenvalues --   -0.57648  -0.57550  -0.55314  -0.55211  -0.52716
 Alpha  occ. eigenvalues --   -0.52631  -0.52479  -0.52333  -0.49972  -0.49923
 Alpha  occ. eigenvalues --   -0.48101  -0.47728  -0.46682  -0.46616  -0.45942
 Alpha  occ. eigenvalues --   -0.45765  -0.45728  -0.45470  -0.43819  -0.43759
 Alpha virt. eigenvalues --    0.20685   0.23227   0.23551   0.24781   0.25764
 Alpha virt. eigenvalues --    0.26316   0.27027   0.27596   0.28450   0.29124
 Alpha virt. eigenvalues --    0.30839   0.31093   0.31421   0.31912   0.32426

 Mulliken charges:
               1
     1  C   -0.298242
     2  C   -0.299561
     3  C   -0.475695
     4  H    0.149823
     5  H    0.149265
     6  H    0.152061
     7  H    0.151558
     8  H    0.155092
     9  H    0.155261
    10  H    0.160251
    11  C   -0.298823
    12  C   -0.300052
    13  C   -0.482410
    14  H    0.149855
    15  H    0.148938
    16  H    0.151804
    17  H    0.151413
    18  H    0.165024
    19  H    0.154002
    20  H    0.158761
    21  C   -0.298795
    22  C   -0.299570
    23  C   -0.475745
    24  H    0.149999
    25  H    0.148698
    26  H    0.152161
    27  H    0.151964
    28  H    0.155196
    29  H    0.155377
    30  H    0.160377
    31  C   -0.297583
    32  C   -0.304122
    33  C   -0.475978
    34  H    0.149761
    35  H    0.149488
    36  H    0.154174
    37  H    0.154697
    38  H    0.154943
    39  H    0.155421
    40  H    0.161211
 Sum of Mulliken charges =  -0.00000

 Dipole moment (field-independent basis, Debye):
    X=             -0.0521    Y=             -0.0001    Z=             -0.0023  Tot=              0.0521
 Quadrupole moment (field-independent basis, Debye-Ang):
   XX=            -84.4655   YY=            -85.7368   ZZ=            -84.5684
   XY=             -0.1503   XZ=              0.5188   YZ=             -0.6399

 Normal termination of Gaussian 16 at Wed May  5 23:06:39 2021.
