 Gaussian 16, Revision A.03,
 Gaussian 16:  EM64L-G16RevA.03 25-Dec-2016

 -------------
 #p 6-31g* mp2
 -------------

 ------------------------------------------------------
 Input file generated by CHIRIPA (05-May-2021 14:51:13)
 ------------------------------------------------------
 Symbolic Z-matrix:
 Charge =  0 Multiplicity = 1

                         Standard orientation:
 ---------------------------------------------------------------------
 Center     Atomic      Atomic             Coordinates (Angstroms)
 Number     Number       Type             X           Y           Z
 ---------------------------------------------------------------------
      1          6           0        2.488861   -0.118288   -0.676777
      2          6           0        3.606028   -1.158930   -0.760375
      3          6           0        3.209160   -2.387817   -1.578988
      4          1           0        1.596455   -0.582366   -0.234977
      5          1           0        2.209242    0.191733   -1.693189
      6          1           0        3.884410   -1.465875    0.255944
      7          1           0        4.495939   -0.692269   -1.201851
      8          1           0        2.951103   -2.101236   -2.603624
      9          1           0        2.336099   -2.879238   -1.137546
     10          1           0        4.022388   -3.118797   -1.625757
     11          6           0        2.870500    1.116072    0.138353
     12          6           0        1.753334    2.156714    0.221951
     13          6           0        2.150201    3.385601    1.040564
     14          1           0        3.150120    0.806051    1.154765
     15          1           0        3.762906    1.580150   -0.303447
     16          1           0        0.863423    1.690053    0.663427
     17          1           0        1.474951    2.463659   -0.794368
     18          1           0        3.023262    3.877022    0.599122
     19          1           0        2.408259    3.099020    2.065200
     20          1           0        1.336973    4.116581    1.087333
     21          6           0       -2.423793   -1.173749    0.519254
     22          6           0       -1.247489   -1.054780    1.488863
     23          6           0       -0.746742   -2.413290    1.980287
     24          1           0       -3.244542   -1.712030    1.012783
     25          1           0       -2.120497   -1.786770   -0.340753
     26          1           0       -1.552482   -0.441017    2.346120
     27          1           0       -0.429516   -0.516553    0.993034
     28          1           0       -0.415972   -3.029610    1.138063
     29          1           0       -1.545318   -2.953645    2.498836
     30          1           0        0.094282   -2.304834    2.672223
     31          6           0       -2.935569    0.175965    0.019169
     32          6           0       -4.111872    0.056996   -0.950439
     33          6           0       -4.612619    1.415506   -1.441863
     34          1           0       -3.238864    0.788985    0.879178
     35          1           0       -2.114820    0.714245   -0.474358
     36          1           0       -4.929846   -0.481231   -0.454610
     37          1           0       -3.806880   -0.556768   -1.807696
     38          1           0       -3.814043    1.955862   -1.960412
     39          1           0       -4.943390    2.031826   -0.599638
     40          1           0       -5.453644    1.307049   -2.133798
 ---------------------------------------------------------------------

 SCF Done:  E(RHF) =  -470.733152463     A.U. after   11 cycles
 E2 =    -0.1583825726D+01 EUMP2 =    -0.47231697818944D+03

 The electronic state is 1-A.
 Alpha  occ. eigenvalues --  -11.21636 -11.21621 -11.21605 -11.21603 -11.21424
 Alpha  occ. eigenvalues --  -11.21421 -11.21364 -11.21357 -11.21148 -11.21098
 Alpha  occ. eigenvalues --  -11.21072 -11.21069  -1.08482  -1.08426  -1.03562
 Alpha  occ. eigenvalues --   -1.03544  -0.96013  -0.95990  -0.87024  -0.87011
 Alpha  occ. eigenvalues --   -0.79644  -0.79604  -0.78384  -0.78157  -0.65289
 Alpha  occ. eigenvalues --   -0.64909  -0.60975  -0.60931  -0.59392  -0.59348
 Alpha  occ. eigenvalues --   -0.57648  -0.57579  -0.55333  -0.55246  -0.52714
 Alpha  occ. eigenvalues --   -0.52681  -0.52433  -0.52422  -0.49986  -0.49907
 Alpha  occ. eigenvalues --   -0.48003  -0.47925  -0.46847  -0.46644  -0.46135
 Alpha  occ. eigenvalues --   -0.45766  -0.45757  -0.45127  -0.43812  -0.43793
 Alpha virt. eigenvalues --    0.20208   0.23173   0.23380   0.24311   0.25624
 Alpha virt. eigenvalues --    0.26714   0.26930   0.27717   0.27995   0.29659
 Alpha virt. eigenvalues --    0.30766   0.31661   0.31713   0.31835   0.32476

 Mulliken charges:
               1
     1  C   -0.306614
     2  C   -0.298893
     3  C   -0.476008
     4  H    0.157059
     5  H    0.149127
     6  H    0.152197
     7  H    0.152066
     8  H    0.155038
     9  H    0.155040
    10  H    0.160528
    11  C   -0.297587
    12  C   -0.306014
    13  C   -0.475409
    14  H    0.149468
    15  H    0.149848
    16  H    0.157814
    17  H    0.151422
    18  H    0.155146
    19  H    0.155269
    20  H    0.160461
    21  C   -0.297564
    22  C   -0.312486
    23  C   -0.475763
    24  H    0.149820
    25  H    0.149652
    26  H    0.152149
    27  H    0.163090
    28  H    0.154953
    29  H    0.155974
    30  H    0.159957
    31  C   -0.299605
    32  C   -0.299683
    33  C   -0.475740
    34  H    0.149340
    35  H    0.151215
    36  H    0.151928
    37  H    0.152076
    38  H    0.155351
    39  H    0.155142
    40  H    0.160236
 Sum of Mulliken charges =  -0.00000

 Dipole moment (field-independent basis, Debye):
    X=             -0.0054    Y=              0.0006    Z=              0.0045  Tot=              0.0070
 Quadrupole moment (field-independent basis, Debye-Ang):
   XX=            -84.4640   YY=            -86.3181   ZZ=            -83.9549
   XY=              0.4270   XZ=             -1.0983   YZ=             -0.4819

 Normal termination of Gaussian 16 at Thu May  6 02:22:48 2021.
