 Gaussian 16, Revision A.03,
 Gaussian 16:  EM64L-G16RevA.03 25-Dec-2016

 -------------
 #p 6-31g* mp2
 -------------

 ------------------------------------------------------
 Input file generated by CHIRIPA (05-May-2021 14:51:11)
 ------------------------------------------------------
 Symbolic Z-matrix:
 Charge =  0 Multiplicity = 1

                         Standard orientation:
 ---------------------------------------------------------------------
 Center     Atomic      Atomic             Coordinates (Angstroms)
 Number     Number       Type             X           Y           Z
 ---------------------------------------------------------------------
      1          6           0       -2.607221   -1.213739    0.579729
      2          6           0       -1.163162   -1.211638    1.082394
      3          6           0       -0.842980   -2.417800    1.965826
      4          1           0       -3.288645   -1.230178    1.441318
      5          1           0       -2.791225   -2.140005    0.017974
      6          1           0       -0.981529   -0.285017    1.641857
      7          1           0       -0.485097   -1.195009    0.219511
      8          1           0       -0.996440   -3.350929    1.414172
      9          1           0       -1.495692   -2.435766    2.844600
     10          1           0        0.194373   -2.396256    2.314102
     11          6           0       -2.942547   -0.014176   -0.304767
     12          6           0       -4.386606   -0.016276   -0.807433
     13          6           0       -4.706788    1.189885   -1.690865
     14          1           0       -2.758543    0.912090    0.256988
     15          1           0       -2.261123    0.002263   -1.166356
     16          1           0       -5.064670   -0.032905    0.055451
     17          1           0       -4.568239   -0.942898   -1.366896
     18          1           0       -4.054075    1.207851   -2.569639
     19          1           0       -4.553328    2.123014   -1.139211
     20          1           0       -5.744140    1.168341   -2.039141
     21          6           0        2.771089    1.306093    0.185576
     22          6           0        1.377413    1.768681    0.611800
     23          6           0        1.386168    3.155098    1.256441
     24          1           0        3.432642    1.300044    1.062649
     25          1           0        3.192698    2.036388   -0.518916
     26          1           0        0.957996    1.037023    1.314211
     27          1           0        0.719051    1.773446   -0.266353
     28          1           0        1.780120    3.901637    0.559244
     29          1           0        2.020424    3.161028    2.148790
     30          1           0        0.379734    3.466085    1.553488
     31          6           0        2.778680   -0.078178   -0.460538
     32          6           0        4.172355   -0.540766   -0.886761
     33          6           0        4.163599   -1.927184   -1.531403
     34          1           0        2.357069   -0.808473    0.243955
     35          1           0        2.117127   -0.072129   -1.337610
     36          1           0        4.830717   -0.545532   -0.008608
     37          1           0        4.591771    0.190892   -1.589172
     38          1           0        3.529344   -1.933114   -2.423752
     39          1           0        3.769647   -2.673722   -0.834206
     40          1           0        5.170033   -2.238170   -1.828450
 ---------------------------------------------------------------------

 SCF Done:  E(RHF) =  -470.732792302     A.U. after   11 cycles
 E2 =    -0.1583817040D+01 EUMP2 =    -0.47231660934153D+03

 The electronic state is 1-A.
 Alpha  occ. eigenvalues --  -11.21604 -11.21597 -11.21524 -11.21486 -11.21392
 Alpha  occ. eigenvalues --  -11.21388 -11.21327 -11.21325 -11.21082 -11.21080
 Alpha  occ. eigenvalues --  -11.21073 -11.21036  -1.08447  -1.08377  -1.03545
 Alpha  occ. eigenvalues --   -1.03481  -0.95978  -0.95961  -0.87002  -0.86967
 Alpha  occ. eigenvalues --   -0.79723  -0.79476  -0.78418  -0.78001  -0.65079
 Alpha  occ. eigenvalues --   -0.65015  -0.61004  -0.60831  -0.59425  -0.59255
 Alpha  occ. eigenvalues --   -0.57607  -0.57555  -0.55285  -0.55230  -0.52693
 Alpha  occ. eigenvalues --   -0.52636  -0.52426  -0.52363  -0.49960  -0.49871
 Alpha  occ. eigenvalues --   -0.48190  -0.47740  -0.46763  -0.46437  -0.46124
 Alpha  occ. eigenvalues --   -0.45765  -0.45579  -0.45227  -0.43781  -0.43743
 Alpha virt. eigenvalues --    0.21297   0.23029   0.23876   0.23951   0.25183
 Alpha virt. eigenvalues --    0.26042   0.26343   0.28119   0.28597   0.29538
 Alpha virt. eigenvalues --    0.30386   0.31499   0.31657   0.31786   0.32022

 Mulliken charges:
               1
     1  C   -0.297970
     2  C   -0.305426
     3  C   -0.476598
     4  H    0.149234
     5  H    0.149267
     6  H    0.155071
     7  H    0.156799
     8  H    0.155442
     9  H    0.155134
    10  H    0.159166
    11  C   -0.298340
    12  C   -0.299643
    13  C   -0.475662
    14  H    0.149744
    15  H    0.149445
    16  H    0.151940
    17  H    0.151928
    18  H    0.154992
    19  H    0.155153
    20  H    0.160261
    21  C   -0.297943
    22  C   -0.305141
    23  C   -0.475616
    24  H    0.149146
    25  H    0.149173
    26  H    0.159449
    27  H    0.152336
    28  H    0.154981
    29  H    0.154703
    30  H    0.159372
    31  C   -0.300603
    32  C   -0.299598
    33  C   -0.475741
    34  H    0.152062
    35  H    0.149063
    36  H    0.151954
    37  H    0.152015
    38  H    0.154904
    39  H    0.155212
    40  H    0.160332
 Sum of Mulliken charges =  -0.00000

 Dipole moment (field-independent basis, Debye):
    X=             -0.0059    Y=             -0.0083    Z=             -0.0002  Tot=              0.0101
 Quadrupole moment (field-independent basis, Debye-Ang):
   XX=            -84.9501   YY=            -86.1024   ZZ=            -83.9363
   XY=              0.2090   XZ=             -0.2864   YZ=              0.1105

 Normal termination of Gaussian 16 at Thu May  6 05:26:55 2021.
