 Gaussian 16, Revision A.03,
 Gaussian 16:  EM64L-G16RevA.03 25-Dec-2016

 -------------
 #p 6-31g* mp2
 -------------

 ------------------------------------------------------
 Input file generated by CHIRIPA (05-May-2021 14:51:09)
 ------------------------------------------------------
 Symbolic Z-matrix:
 Charge =  0 Multiplicity = 1

                         Standard orientation:
 ---------------------------------------------------------------------
 Center     Atomic      Atomic             Coordinates (Angstroms)
 Number     Number       Type             X           Y           Z
 ---------------------------------------------------------------------
      1          6           0       -3.280834    0.165058    0.261715
      2          6           0       -3.500258    1.035611   -0.976015
      3          6           0       -4.502406    2.164825   -0.734413
      4          1           0       -4.243342   -0.258716    0.579426
      5          1           0       -2.929573    0.797579    1.088714
      6          1           0       -3.849678    0.401411   -1.800825
      7          1           0       -2.537086    1.457208   -1.290929
      8          1           0       -4.156453    2.821231    0.070601
      9          1           0       -5.476504    1.759435   -0.442192
     10          1           0       -4.644199    2.774649   -1.632115
     11          6           0       -2.281582   -0.968182    0.035906
     12          6           0       -2.062158   -1.838736    1.273636
     13          6           0       -1.060010   -2.967949    1.032035
     14          1           0       -2.632843   -1.600704   -0.791093
     15          1           0       -1.319075   -0.544409   -0.281805
     16          1           0       -3.025330   -2.260332    1.588550
     17          1           0       -1.712738   -1.204536    2.098446
     18          1           0       -0.085912   -2.562560    0.739813
     19          1           0       -1.405963   -3.624356    0.227020
     20          1           0       -0.918217   -3.577774    1.929736
     21          6           0        3.101981   -0.291499   -0.134601
     22          6           0        2.398305   -1.304003   -1.038848
     23          6           0        3.051643   -2.685816   -0.999640
     24          1           0        4.155060   -0.209455   -0.436661
     25          1           0        3.101296   -0.669288    0.897227
     26          1           0        2.399098   -0.923776   -2.068431
     27          1           0        1.346733   -1.383504   -0.734723
     28          1           0        3.037476   -3.089913    0.017762
     29          1           0        4.095820   -2.627573   -1.323524
     30          1           0        2.532712   -3.393940   -1.653193
     31          6           0        2.460435    1.094624   -0.163020
     32          6           0        3.164111    2.107128    0.741226
     33          6           0        2.510774    3.488940    0.702019
     34          1           0        2.461120    1.472412   -1.194848
     35          1           0        1.407356    1.012580    0.139040
     36          1           0        4.215683    2.186629    0.437102
     37          1           0        3.163317    1.726900    1.770811
     38          1           0        1.466595    3.430697    1.025903
     39          1           0        2.524939    3.893036   -0.315383
     40          1           0        3.029704    4.197064    1.355571
 ---------------------------------------------------------------------

 SCF Done:  E(RHF) =  -470.733242520     A.U. after   11 cycles
 E2 =    -0.1583433811D+01 EUMP2 =    -0.47231667633131D+03

 The electronic state is 1-A.
 Alpha  occ. eigenvalues --  -11.21646 -11.21638 -11.21606 -11.21603 -11.21454
 Alpha  occ. eigenvalues --  -11.21436 -11.21390 -11.21375 -11.21113 -11.21086
 Alpha  occ. eigenvalues --  -11.21074 -11.21067  -1.08483  -1.08446  -1.03584
 Alpha  occ. eigenvalues --   -1.03529  -0.96025  -0.95983  -0.87024  -0.87016
 Alpha  occ. eigenvalues --   -0.79672  -0.79569  -0.78349  -0.78207  -0.65246
 Alpha  occ. eigenvalues --   -0.64968  -0.61141  -0.60795  -0.59410  -0.59330
 Alpha  occ. eigenvalues --   -0.57664  -0.57563  -0.55402  -0.55186  -0.52697
 Alpha  occ. eigenvalues --   -0.52690  -0.52437  -0.52415  -0.50007  -0.49895
 Alpha  occ. eigenvalues --   -0.48077  -0.47839  -0.46850  -0.46506  -0.46098
 Alpha  occ. eigenvalues --   -0.45780  -0.45767  -0.45330  -0.43816  -0.43804
 Alpha virt. eigenvalues --    0.19784   0.22924   0.23733   0.24518   0.25280
 Alpha virt. eigenvalues --    0.26800   0.27139   0.27535   0.28511   0.29749
 Alpha virt. eigenvalues --    0.30649   0.31577   0.31652   0.31818   0.31998

 Mulliken charges:
               1
     1  C   -0.298090
     2  C   -0.299869
     3  C   -0.475706
     4  H    0.149900
     5  H    0.149182
     6  H    0.152011
     7  H    0.152453
     8  H    0.155173
     9  H    0.155137
    10  H    0.160394
    11  C   -0.303147
    12  C   -0.299446
    13  C   -0.482137
    14  H    0.149898
    15  H    0.153386
    16  H    0.152281
    17  H    0.151322
    18  H    0.161667
    19  H    0.155488
    20  H    0.160364
    21  C   -0.298283
    22  C   -0.308936
    23  C   -0.475790
    24  H    0.150124
    25  H    0.149432
    26  H    0.152445
    27  H    0.159555
    28  H    0.155662
    29  H    0.155227
    30  H    0.160935
    31  C   -0.299647
    32  C   -0.299681
    33  C   -0.475690
    34  H    0.149857
    35  H    0.149547
    36  H    0.152318
    37  H    0.152028
    38  H    0.154808
    39  H    0.155332
    40  H    0.160494
 Sum of Mulliken charges =  -0.00000

 Dipole moment (field-independent basis, Debye):
    X=              0.0079    Y=             -0.0077    Z=             -0.0143  Tot=              0.0181
 Quadrupole moment (field-independent basis, Debye-Ang):
   XX=            -84.3705   YY=            -86.1401   ZZ=            -84.1037
   XY=              1.6301   XZ=             -0.1953   YZ=             -0.1069

 Normal termination of Gaussian 16 at Thu May  6 05:19:03 2021.
