 Gaussian 16, Revision A.03,
 Gaussian 16:  EM64L-G16RevA.03 25-Dec-2016

 -------------
 #p 6-31g* mp2
 -------------

 ------------------------------------------------------
 Input file generated by CHIRIPA (05-May-2021 14:57:26)
 ------------------------------------------------------
 Symbolic Z-matrix:
 Charge =  0 Multiplicity = 1

                         Standard orientation:
 ---------------------------------------------------------------------
 Center     Atomic      Atomic             Coordinates (Angstroms)
 Number     Number       Type             X           Y           Z
 ---------------------------------------------------------------------
      1          6           0       -1.828029   -1.352500    1.333671
      2          6           0       -1.586345   -0.691608    0.124816
      3          6           0       -2.635444   -0.093105   -0.579268
      4          6           0       -3.919581   -0.175027   -0.043011
      5          6           0       -4.192335   -0.826324    1.158948
      6          6           0       -3.127960   -1.417634    1.845976
      7          1           0       -1.007130   -1.814638    1.873996
      8          1           0       -0.577820   -0.639450   -0.275437
      9          1           0       -2.476541    0.424858   -1.517288
     10          1           0       -5.208419   -0.861724    1.532763
     11          1           0       -3.318610   -1.930228    2.784563
     12          7           0       -5.038301    0.454774   -0.779365
     13          8           0       -6.160562    0.368589   -0.285667
     14          8           0       -4.771709    1.022671   -1.836275
     15          6           0        2.195134    2.092209    0.761743
     16          6           0        1.809409    1.290806   -0.317835
     17          6           0        2.654683    0.283081   -0.791706
     18          6           0        3.884091    0.103515   -0.159565
     19          6           0        4.296794    0.885594    0.918080
     20          6           0        3.435408    1.887407    1.375174
     21          1           0        1.532248    2.872738    1.123341
     22          1           0        0.846780    1.447594   -0.796172
     23          1           0        2.381123   -0.351791   -1.625684
     24          1           0        5.262538    0.705440    1.374478
     25          1           0        3.737594    2.508272    2.213777
     26          7           0        4.787472   -0.960188   -0.652351
     27          8           0        5.865392   -1.098242   -0.078185
     28          8           0        4.400516   -1.635724   -1.603431
 ---------------------------------------------------------------------

 SCF Done:  E(RHF) =  -868.337227648     A.U. after   16 cycles
 E2 =    -0.2600202719D+01 EUMP2 =    -0.87093743036723D+03

 The electronic state is 1-A.
 Alpha  occ. eigenvalues --  -20.61420 -20.61412 -20.61201 -20.61192 -15.86479
 Alpha  occ. eigenvalues --  -15.86256 -11.31968 -11.31682 -11.28611 -11.28522
 Alpha  occ. eigenvalues --  -11.28308 -11.28274 -11.28228 -11.27966 -11.27634
 Alpha  occ. eigenvalues --  -11.27523 -11.27289 -11.27229  -1.60494  -1.60274
 Alpha  occ. eigenvalues --   -1.40044  -1.39826  -1.20160  -1.19857  -1.09512
 Alpha  occ. eigenvalues --   -1.09225  -1.05600  -1.05277  -0.96325  -0.96054
 Alpha  occ. eigenvalues --   -0.86972  -0.86655  -0.83181  -0.82888  -0.78229
 Alpha  occ. eigenvalues --   -0.77924  -0.72689  -0.72470  -0.71824  -0.71600
 Alpha  occ. eigenvalues --   -0.71219  -0.70937  -0.65812  -0.65680  -0.65500
 Alpha  occ. eigenvalues --   -0.65211  -0.63013  -0.62533  -0.56026  -0.55729
 Alpha  occ. eigenvalues --   -0.53960  -0.53726  -0.53567  -0.53257  -0.49459
 Alpha  occ. eigenvalues --   -0.49440  -0.49234  -0.49223  -0.45422  -0.45219
 Alpha  occ. eigenvalues --   -0.38129  -0.37810  -0.37226  -0.36855
 Alpha virt. eigenvalues --    0.04306   0.04594   0.10275   0.10924   0.15590
 Alpha virt. eigenvalues --    0.16055   0.19378   0.21751   0.25032   0.27110
 Alpha virt. eigenvalues --    0.27988   0.28407   0.30370   0.31131   0.31826

 Mulliken charges:
               1
     1  C   -0.171829
     2  C   -0.221768
     3  C   -0.174338
     4  C    0.159157
     5  C   -0.170496
     6  C   -0.218519
     7  H    0.229310
     8  H    0.221677
     9  H    0.272635
    10  H    0.277124
    11  H    0.225486
    12  N    0.488073
    13  O   -0.458706
    14  O   -0.460817
    15  C   -0.171267
    16  C   -0.222152
    17  C   -0.175720
    18  C    0.158770
    19  C   -0.170013
    20  C   -0.218894
    21  H    0.230139
    22  H    0.221797
    23  H    0.275398
    24  H    0.278103
    25  H    0.226615
    26  N    0.487931
    27  O   -0.458089
    28  O   -0.459607
 Sum of Mulliken charges =  -0.00000

 Dipole moment (field-independent basis, Debye):
    X=              0.8744    Y=              1.5539    Z=              4.5103  Tot=              4.8500
 Quadrupole moment (field-independent basis, Debye-Ang):
   XX=           -155.7801   YY=           -103.5573   ZZ=           -101.2035
   XY=             24.7686   XZ=             -2.9905   YZ=             -0.9783

 Normal termination of Gaussian 16 at Thu May  6 21:22:05 2021.
