 Gaussian 16, Revision A.03,
 Gaussian 16:  EM64L-G16RevA.03 25-Dec-2016

 -------------
 #p 6-31g* mp2
 -------------

 ------------------------------------------------------
 Input file generated by CHIRIPA (05-May-2021 14:57:24)
 ------------------------------------------------------
 Symbolic Z-matrix:
 Charge =  0 Multiplicity = 1

                         Standard orientation:
 ---------------------------------------------------------------------
 Center     Atomic      Atomic             Coordinates (Angstroms)
 Number     Number       Type             X           Y           Z
 ---------------------------------------------------------------------
      1          6           0        0.283708   -1.577197    0.996450
      2          6           0        0.882787   -0.563804    1.751870
      3          6           0        2.079799    0.022764    1.330386
      4          6           0        2.652907   -0.430415    0.143177
      5          6           0        2.080374   -1.438128   -0.631427
      6          6           0        0.883356   -2.010361   -0.190694
      7          1           0       -0.646162   -2.027290    1.331345
      8          1           0        0.419343   -0.225405    2.674231
      9          1           0        2.565067    0.809025    1.895830
     10          1           0        2.566076   -1.754404   -1.546567
     11          1           0        0.420355   -2.797195   -0.779394
     12          7           0        3.920133    0.182970   -0.313217
     13          8           0        4.405018   -0.234059   -1.362794
     14          8           0        4.404505    1.069156    0.387278
     15          6           0       -1.126498    2.683151   -0.238633
     16          6           0       -1.287212    1.949624   -1.418731
     17          6           0       -2.015219    0.756078   -1.419267
     18          6           0       -2.571429    0.323496   -0.216440
     19          6           0       -2.428934    1.031940    0.975655
     20          6           0       -1.696867    2.222779    0.952693
     21          1           0       -0.559388    3.609275   -0.247343
     22          1           0       -0.845371    2.304741   -2.345398
     23          1           0       -2.155191    0.168452   -2.318446
     24          1           0       -2.881138    0.652507    1.883929
     25          1           0       -1.573685    2.790375    1.870684
     26          7           0       -3.344287   -0.938626   -0.204570
     27          8           0       -3.824384   -1.298257    0.868188
     28          8           0       -3.455321   -1.544345   -1.268248
 ---------------------------------------------------------------------

 SCF Done:  E(RHF) =  -868.338290794     A.U. after   16 cycles
 E2 =    -0.2603396410D+01 EUMP2 =    -0.87094168720451D+03

 The electronic state is 1-A.
 Alpha  occ. eigenvalues --  -20.61712 -20.61699 -20.60981 -20.60970 -15.86722
 Alpha  occ. eigenvalues --  -15.86028 -11.31817 -11.31278 -11.28414 -11.28353
 Alpha  occ. eigenvalues --  -11.28035 -11.27860 -11.27799 -11.27460 -11.27362
 Alpha  occ. eigenvalues --  -11.27280 -11.26845 -11.26734  -1.60787  -1.60059
 Alpha  occ. eigenvalues --   -1.40344  -1.39616  -1.19989  -1.19427  -1.09423
 Alpha  occ. eigenvalues --   -1.08836  -1.05364  -1.04818  -0.96300  -0.95696
 Alpha  occ. eigenvalues --   -0.86772  -0.86218  -0.83146  -0.82534  -0.78237
 Alpha  occ. eigenvalues --   -0.77609  -0.72943  -0.72247  -0.72178  -0.71387
 Alpha  occ. eigenvalues --   -0.71086  -0.70461  -0.65643  -0.65361  -0.65079
 Alpha  occ. eigenvalues --   -0.64816  -0.62727  -0.62177  -0.55836  -0.55270
 Alpha  occ. eigenvalues --   -0.54174  -0.53452  -0.52911  -0.52663  -0.49727
 Alpha  occ. eigenvalues --   -0.49680  -0.49010  -0.48992  -0.45792  -0.45048
 Alpha  occ. eigenvalues --   -0.38294  -0.37443  -0.36846  -0.36038
 Alpha virt. eigenvalues --    0.04200   0.04922   0.10428   0.11447   0.15715
 Alpha virt. eigenvalues --    0.16590   0.20502   0.21686   0.26277   0.27496
 Alpha virt. eigenvalues --    0.27686   0.28446   0.30393   0.31167   0.31839

 Mulliken charges:
               1
     1  C   -0.178113
     2  C   -0.212626
     3  C   -0.173420
     4  C    0.157650
     5  C   -0.172817
     6  C   -0.220555
     7  H    0.236154
     8  H    0.218720
     9  H    0.271930
    10  H    0.275022
    11  H    0.230356
    12  N    0.487654
    13  O   -0.460527
    14  O   -0.462800
    15  C   -0.168325
    16  C   -0.216856
    17  C   -0.168950
    18  C    0.160054
    19  C   -0.175987
    20  C   -0.217852
    21  H    0.230430
    22  H    0.227968
    23  H    0.275550
    24  H    0.271914
    25  H    0.223072
    26  N    0.484929
    27  O   -0.463860
    28  O   -0.458715
 Sum of Mulliken charges =  -0.00000

 Dipole moment (field-independent basis, Debye):
    X=             -1.8235    Y=              2.3630    Z=              1.3995  Tot=              3.2966
 Quadrupole moment (field-independent basis, Debye-Ang):
   XX=           -144.7614   YY=            -98.7579   ZZ=            -96.6020
   XY=            -14.6979   XZ=              2.3649   YZ=              1.2569

 Normal termination of Gaussian 16 at Wed May  5 22:43:10 2021.
