 Gaussian 16, Revision A.03,
 Gaussian 16:  EM64L-G16RevA.03 25-Dec-2016

 -------------
 #p 6-31g* mp2
 -------------

 ------------------------------------------------------
 Input file generated by CHIRIPA (05-May-2021 14:53:18)
 ------------------------------------------------------
 Symbolic Z-matrix:
 Charge =  0 Multiplicity = 1

                         Standard orientation:
 ---------------------------------------------------------------------
 Center     Atomic      Atomic             Coordinates (Angstroms)
 Number     Number       Type             X           Y           Z
 ---------------------------------------------------------------------
      1          6           0        3.772910   -0.453965   -0.328011
      2          6           0        5.124382   -0.613019    0.369276
      3          6           0        5.685319   -2.030793    0.254985
      4          1           0        3.058513   -1.168363    0.103519
      5          1           0        3.881319   -0.722041   -1.388095
      6          1           0        5.013768   -0.343394    1.427427
      7          1           0        5.835593    0.101973   -0.063832
      8          1           0        5.824172   -2.306638   -0.795363
      9          1           0        4.997678   -2.754536    0.704369
     10          1           0        6.651822   -2.122095    0.760352
     11          6           0        3.199225    0.957941   -0.222497
     12          6           0        1.847752    1.116995   -0.919784
     13          6           0        1.286816    2.534769   -0.805493
     14          1           0        3.090816    1.226018    0.837586
     15          1           0        3.913622    1.672339   -0.654027
     16          1           0        1.136542    0.402004   -0.486676
     17          1           0        1.958366    0.847370   -1.977935
     18          1           0        1.974457    3.258512   -1.254878
     19          1           0        1.147963    2.810615    0.244854
     20          1           0        0.320313    2.626071   -1.310860
     21          6           0       -1.879187    2.076857    0.910212
     22          6           0       -3.018357    1.969061    0.105730
     23          6           0       -3.495140    0.714408   -0.285514
     24          6           0       -2.805114   -0.416681    0.147836
     25          6           0       -1.667351   -0.342004    0.949837
     26          6           0       -1.208502    0.923014    1.328961
     27          1           0       -1.515776    3.055528    1.209432
     28          1           0       -3.541236    2.863438   -0.220968
     29          1           0       -4.374594    0.602082   -0.907898
     30          1           0       -1.167369   -1.251606    1.259776
     31          1           0       -0.323549    1.003703    1.953776
     32          7           0       -3.300370   -1.750413   -0.259941
     33          8           0       -2.674515   -2.731671    0.135122
     34          8           0       -4.305029   -1.789278   -0.966897
 ---------------------------------------------------------------------

 SCF Done:  E(RHF) =  -669.534487243     A.U. after   15 cycles
 E2 =    -0.2093624248D+01 EUMP2 =    -0.67162811149060D+03

 The electronic state is 1-A.
 Alpha  occ. eigenvalues --  -20.60789 -20.60784 -15.85846 -11.31221 -11.27812
 Alpha  occ. eigenvalues --  -11.27803 -11.27527 -11.26813 -11.26802 -11.22012
 Alpha  occ. eigenvalues --  -11.21898 -11.21858 -11.21718 -11.21695 -11.21265
 Alpha  occ. eigenvalues --   -1.59865  -1.39419  -1.19413  -1.08871  -1.08766
 Alpha  occ. eigenvalues --   -1.04830  -1.03918  -0.96400  -0.95622  -0.87414
 Alpha  occ. eigenvalues --   -0.86212  -0.82467  -0.79985  -0.78634  -0.77510
 Alpha  occ. eigenvalues --   -0.72064  -0.71190  -0.70514  -0.65532  -0.65064
 Alpha  occ. eigenvalues --   -0.64801  -0.62200  -0.61314  -0.59769  -0.57993
 Alpha  occ. eigenvalues --   -0.55764  -0.55297  -0.53282  -0.52908  -0.52876
 Alpha  occ. eigenvalues --   -0.52760  -0.50349  -0.48823  -0.48817  -0.48302
 Alpha  occ. eigenvalues --   -0.47036  -0.46176  -0.46113  -0.44822  -0.44184
 Alpha  occ. eigenvalues --   -0.37316  -0.36375
 Alpha virt. eigenvalues --    0.05011   0.11150   0.16429   0.19899   0.22826
 Alpha virt. eigenvalues --    0.24093   0.25822   0.26182   0.27259   0.28104
 Alpha virt. eigenvalues --    0.28868   0.30543   0.31110   0.31411   0.31927

 Mulliken charges:
               1
     1  C   -0.298204
     2  C   -0.299737
     3  C   -0.476021
     4  H    0.148807
     5  H    0.152420
     6  H    0.150258
     7  H    0.152470
     8  H    0.156631
     9  H    0.156223
    10  H    0.160881
    11  C   -0.298168
    12  C   -0.303822
    13  C   -0.473187
    14  H    0.143186
    15  H    0.151186
    16  H    0.154085
    17  H    0.155778
    18  H    0.156169
    19  H    0.141525
    20  H    0.163359
    21  C   -0.166879
    22  C   -0.220868
    23  C   -0.170662
    24  C    0.158411
    25  C   -0.172407
    26  C   -0.214918
    27  H    0.226978
    28  H    0.223797
    29  H    0.275839
    30  H    0.275547
    31  H    0.223958
    32  N    0.488191
    33  O   -0.460477
    34  O   -0.460350
 Sum of Mulliken charges =  -0.00000

 Dipole moment (field-independent basis, Debye):
    X=              1.7352    Y=              4.6635    Z=              1.3687  Tot=              5.1607
 Quadrupole moment (field-independent basis, Debye-Ang):
   XX=           -101.9491   YY=            -99.2829   ZZ=            -92.8547
   XY=            -15.5834   XZ=             -2.2614   YZ=             -1.4070

 Normal termination of Gaussian 16 at Wed May  5 20:25:58 2021.
