 Gaussian 16, Revision A.03,
 Gaussian 16:  EM64L-G16RevA.03 25-Dec-2016

 -------------
 #p 6-31g* mp2
 -------------

 ------------------------------------------------------
 Input file generated by CHIRIPA (05-May-2021 14:55:21)
 ------------------------------------------------------
 Symbolic Z-matrix:
 Charge =  0 Multiplicity = 1

                         Standard orientation:
 ---------------------------------------------------------------------
 Center     Atomic      Atomic             Coordinates (Angstroms)
 Number     Number       Type             X           Y           Z
 ---------------------------------------------------------------------
      1          6           0       -1.601805    1.267746    1.669665
      2          6           0       -2.562514    0.431699    2.248099
      3          6           0       -3.427407   -0.317851    1.445177
      4          6           0       -3.303250   -0.206724    0.061152
      5          6           0       -2.356348    0.617392   -0.545067
      6          6           0       -1.501965    1.357766    0.277383
      7          1           0       -0.934018    1.846450    2.300979
      8          1           0       -2.642335    0.359805    3.329073
      9          1           0       -4.180224   -0.972907    1.866588
     10          1           0       -2.300835    0.668166   -1.625695
     11          1           0       -0.756816    2.006231   -0.174602
     12          7           0       -4.213310   -0.995381   -0.799203
     13          8           0       -4.083618   -0.879838   -2.015947
     14          8           0       -5.039076   -1.714140   -0.240513
     15          6           0        4.322418   -0.605512   -0.338779
     16          6           0        5.525834   -0.875625    0.564999
     17          6           0        6.087307   -2.287649    0.395494
     18          1           0        3.536820   -1.342426   -0.122586
     19          1           0        4.616949   -0.760728   -1.385943
     20          1           0        5.229490   -0.718601    1.610053
     21          1           0        6.308583   -0.137864    0.346763
     22          1           0        6.409985   -2.452468   -0.637615
     23          1           0        5.324762   -3.036505    0.632853
     24          1           0        6.946898   -2.459236    1.050872
     25          6           0        3.749930    0.801975   -0.180769
     26          6           0        2.546514    1.072088   -1.084546
     27          6           0        1.985041    2.484112   -0.915042
     28          1           0        3.455398    0.957191    0.866396
     29          1           0        4.535527    1.538889   -0.396961
     30          1           0        1.763764    0.334327   -0.866311
     31          1           0        2.842857    0.915064   -2.129601
     32          1           0        2.747586    3.232968   -1.152401
     33          1           0        1.662363    2.648931    0.118067
     34          1           0        1.125449    2.655698   -1.570420
 ---------------------------------------------------------------------

 SCF Done:  E(RHF) =  -669.535247087     A.U. after   15 cycles
 E2 =    -0.2091654537D+01 EUMP2 =    -0.67162690162420D+03

 The electronic state is 1-A.
 Alpha  occ. eigenvalues --  -20.60733 -20.60728 -15.85785 -11.31143 -11.27713
 Alpha  occ. eigenvalues --  -11.27691 -11.27445 -11.26734 -11.26623 -11.22427
 Alpha  occ. eigenvalues --  -11.22276 -11.22062 -11.22018 -11.21859 -11.21389
 Alpha  occ. eigenvalues --   -1.59809  -1.39363  -1.19310  -1.09059  -1.08707
 Alpha  occ. eigenvalues --   -1.04714  -1.04204  -0.96687  -0.95546  -0.87713
 Alpha  occ. eigenvalues --   -0.86101  -0.82376  -0.80271  -0.78820  -0.77426
 Alpha  occ. eigenvalues --   -0.72004  -0.71132  -0.70427  -0.65729  -0.64959
 Alpha  occ. eigenvalues --   -0.64732  -0.62190  -0.61492  -0.60058  -0.58261
 Alpha  occ. eigenvalues --   -0.55991  -0.55201  -0.53468  -0.53109  -0.53039
 Alpha  occ. eigenvalues --   -0.52670  -0.50587  -0.48760  -0.48756  -0.48582
 Alpha  occ. eigenvalues --   -0.47284  -0.46374  -0.46270  -0.44770  -0.44441
 Alpha  occ. eigenvalues --   -0.37294  -0.36305
 Alpha virt. eigenvalues --    0.05098   0.11286   0.16555   0.20051   0.22655
 Alpha virt. eigenvalues --    0.23959   0.25816   0.26299   0.26544   0.27709
 Alpha virt. eigenvalues --    0.29318   0.30181   0.31035   0.31457   0.32047

 Mulliken charges:
               1
     1  C   -0.174463
     2  C   -0.218398
     3  C   -0.171434
     4  C    0.158875
     5  C   -0.174209
     6  C   -0.224914
     7  H    0.225104
     8  H    0.223048
     9  H    0.275367
    10  H    0.275339
    11  H    0.237644
    12  N    0.488062
    13  O   -0.460482
    14  O   -0.460664
    15  C   -0.299226
    16  C   -0.299995
    17  C   -0.476121
    18  H    0.151502
    19  H    0.151512
    20  H    0.151254
    21  H    0.152450
    22  H    0.156343
    23  H    0.156180
    24  H    0.161210
    25  C   -0.298337
    26  C   -0.302256
    27  C   -0.482270
    28  H    0.147530
    29  H    0.151267
    30  H    0.154758
    31  H    0.156803
    32  H    0.163769
    33  H    0.148152
    34  H    0.156600
 Sum of Mulliken charges =  -0.00000

 Dipole moment (field-independent basis, Debye):
    X=              3.4235    Y=              2.7409    Z=              2.9801  Tot=              5.3022
 Quadrupole moment (field-independent basis, Debye-Ang):
   XX=           -114.9277   YY=            -96.7031   ZZ=            -90.6992
   XY=             -8.2300   XZ=            -12.5947   YZ=             -2.5664

 Normal termination of Gaussian 16 at Wed May  5 17:26:06 2021.
