 Gaussian 16, Revision A.03,
 Gaussian 16:  EM64L-G16RevA.03 25-Dec-2016

 -------------
 #p 6-31g* mp2
 -------------

 ------------------------------------------------------
 Input file generated by CHIRIPA (05-May-2021 14:53:17)
 ------------------------------------------------------
 Symbolic Z-matrix:
 Charge =  0 Multiplicity = 1

                         Standard orientation:
 ---------------------------------------------------------------------
 Center     Atomic      Atomic             Coordinates (Angstroms)
 Number     Number       Type             X           Y           Z
 ---------------------------------------------------------------------
      1          6           0       -2.818300    0.852596    0.142716
      2          6           0       -2.662920    1.426697    1.551350
      3          6           0       -2.137607    2.862607    1.549872
      4          1           0       -1.847493    0.888857   -0.370279
      5          1           0       -3.500422    1.492967   -0.433504
      6          1           0       -1.982378    0.784664    2.125173
      7          1           0       -3.634168    1.388888    2.061118
      8          1           0       -2.818351    3.521292    1.000942
      9          1           0       -1.157176    2.913634    1.065361
     10          1           0       -2.034139    3.253289    2.566987
     11          6           0       -3.342567   -0.582203    0.127711
     12          6           0       -3.497948   -1.156304   -1.280923
     13          6           0       -4.023260   -2.592214   -1.279445
     14          1           0       -2.660445   -1.222574    0.703931
     15          1           0       -4.313375   -0.618464    0.640706
     16          1           0       -2.526699   -1.118495   -1.790691
     17          1           0       -4.178489   -0.514271   -1.854746
     18          1           0       -5.003692   -2.643241   -0.794934
     19          1           0       -3.342517   -3.250899   -0.730515
     20          1           0       -4.126729   -2.982896   -2.296559
     21          6           0        2.759541   -2.015252    1.505160
     22          6           0        3.844344   -1.486292    0.798105
     23          6           0        3.660498   -0.428202   -0.096991
     24          6           0        2.372467    0.078994   -0.261361
     25          6           0        1.271608   -0.426496    0.428480
     26          6           0        1.478894   -1.484601    1.318419
     27          1           0        2.911463   -2.837207    2.198489
     28          1           0        4.840031   -1.896413    0.941125
     29          1           0        4.482630    0.000296   -0.657263
     30          1           0        0.290841    0.003291    0.264780
     31          1           0        0.634569   -1.893408    1.866175
     32          7           0        2.165430    1.199155   -1.206230
     33          8           0        1.020726    1.628300   -1.333200
     34          8           0        3.151779    1.626778   -1.801956
 ---------------------------------------------------------------------

 SCF Done:  E(RHF) =  -669.535908727     A.U. after   15 cycles
 E2 =    -0.2092597822D+01 EUMP2 =    -0.67162850654886D+03

 The electronic state is 1-A.
 Alpha  occ. eigenvalues --  -20.60913 -20.60906 -15.85947 -11.31261 -11.27826
 Alpha  occ. eigenvalues --  -11.27810 -11.27564 -11.26836 -11.26826 -11.21673
 Alpha  occ. eigenvalues --  -11.21667 -11.21582 -11.21324 -11.21194 -11.20797
 Alpha  occ. eigenvalues --   -1.59974  -1.39530  -1.19433  -1.08837  -1.08513
 Alpha  occ. eigenvalues --   -1.04830  -1.03550  -0.95985  -0.95679  -0.86993
 Alpha  occ. eigenvalues --   -0.86232  -0.82513  -0.79613  -0.78312  -0.77564
 Alpha  occ. eigenvalues --   -0.72170  -0.71287  -0.70555  -0.65292  -0.65087
 Alpha  occ. eigenvalues --   -0.64754  -0.62172  -0.60937  -0.59351  -0.57585
 Alpha  occ. eigenvalues --   -0.55383  -0.55230  -0.53159  -0.52927  -0.52665
 Alpha  occ. eigenvalues --   -0.52376  -0.49914  -0.48947  -0.48917  -0.47910
 Alpha  occ. eigenvalues --   -0.46663  -0.45852  -0.45731  -0.44938  -0.43819
 Alpha  occ. eigenvalues --   -0.37412  -0.36428
 Alpha virt. eigenvalues --    0.04940   0.11207   0.16443   0.18792   0.23034
 Alpha virt. eigenvalues --    0.24122   0.25416   0.26335   0.27835   0.28216
 Alpha virt. eigenvalues --    0.30582   0.30859   0.31435   0.31836   0.31881

 Mulliken charges:
               1
     1  C   -0.313643
     2  C   -0.299346
     3  C   -0.479087
     4  H    0.165480
     5  H    0.155574
     6  H    0.140464
     7  H    0.152223
     8  H    0.157522
     9  H    0.166976
    10  H    0.157685
    11  C   -0.297177
    12  C   -0.300118
    13  C   -0.475297
    14  H    0.137320
    15  H    0.150925
    16  H    0.154793
    17  H    0.155357
    18  H    0.155217
    19  H    0.151404
    20  H    0.161962
    21  C   -0.170132
    22  C   -0.219115
    23  C   -0.169548
    24  C    0.155494
    25  C   -0.176797
    26  C   -0.223403
    27  H    0.226042
    28  H    0.223780
    29  H    0.275793
    30  H    0.290288
    31  H    0.224547
    32  N    0.488924
    33  O   -0.465301
    34  O   -0.458806
 Sum of Mulliken charges =  -0.00000

 Dipole moment (field-independent basis, Debye):
    X=              0.7586    Y=             -3.8138    Z=              3.1766  Tot=              5.0211
 Quadrupole moment (field-independent basis, Debye-Ang):
   XX=            -85.3636   YY=            -96.8745   ZZ=            -97.1710
   XY=            -10.5182   XZ=              6.9869   YZ=              0.9269

 Normal termination of Gaussian 16 at Thu May  6 04:24:10 2021.
