 Gaussian 16, Revision A.03,
 Gaussian 16:  EM64L-G16RevA.03 25-Dec-2016

 -------------
 #p 6-31g* mp2
 -------------

 ------------------------------------------------------
 Input file generated by CHIRIPA (05-May-2021 14:55:18)
 ------------------------------------------------------
 Symbolic Z-matrix:
 Charge =  0 Multiplicity = 1

                         Standard orientation:
 ---------------------------------------------------------------------
 Center     Atomic      Atomic             Coordinates (Angstroms)
 Number     Number       Type             X           Y           Z
 ---------------------------------------------------------------------
      1          6           0        0.603339   -1.098219    0.319035
      2          6           0        1.426423   -1.560495   -0.713125
      3          6           0        2.728739   -1.072362   -0.855417
      4          6           0        3.177586   -0.118150    0.056343
      5          6           0        2.381639    0.362144    1.095129
      6          6           0        1.082729   -0.140064    1.218283
      7          1           0       -0.407009   -1.482879    0.422138
      8          1           0        1.056785   -2.304571   -1.412955
      9          1           0        3.387220   -1.412843   -1.645287
     10          1           0        2.778163    1.104287    1.777340
     11          1           0        0.445741    0.220769    2.020836
     12          7           0        4.554487    0.406065   -0.084165
     13          8           0        4.926240    1.246380    0.732111
     14          8           0        5.235877   -0.033298   -1.007910
     15          6           0       -3.937830    0.974988    0.119386
     16          6           0       -3.241734    2.043259   -0.724552
     17          6           0       -3.573665    3.464849   -0.269911
     18          1           0       -5.024286    1.131607    0.074352
     19          1           0       -3.647095    1.101777    1.171428
     20          1           0       -3.532613    1.913631   -1.774886
     21          1           0       -2.156819    1.883963   -0.677658
     22          1           0       -3.267574    3.618081    0.770007
     23          1           0       -4.651185    3.647917   -0.333455
     24          1           0       -3.065545    4.212579   -0.886816
     25          6           0       -3.615849   -0.451348   -0.322907
     26          6           0       -4.311945   -1.519619    0.521031
     27          6           0       -3.980014   -2.941209    0.066390
     28          1           0       -3.906584   -0.578137   -1.374949
     29          1           0       -2.529392   -0.607967   -0.277873
     30          1           0       -5.396860   -1.360323    0.474138
     31          1           0       -4.021066   -1.389991    1.571365
     32          1           0       -2.902493   -3.124277    0.129935
     33          1           0       -4.286106   -3.094441   -0.973528
     34          1           0       -4.488134   -3.688939    0.683296
 ---------------------------------------------------------------------

 SCF Done:  E(RHF) =  -669.535448607     A.U. after   15 cycles
 E2 =    -0.2091620826D+01 EUMP2 =    -0.67162706943384D+03

 The electronic state is 1-A.
 Alpha  occ. eigenvalues --  -20.60778 -20.60773 -15.85832 -11.31213 -11.27779
 Alpha  occ. eigenvalues --  -11.27771 -11.27510 -11.26809 -11.26788 -11.22582
 Alpha  occ. eigenvalues --  -11.22409 -11.22254 -11.22180 -11.22121 -11.21597
 Alpha  occ. eigenvalues --   -1.59853  -1.39406  -1.19384  -1.09318  -1.08777
 Alpha  occ. eigenvalues --   -1.04787  -1.04352  -0.96810  -0.95612  -0.87821
 Alpha  occ. eigenvalues --   -0.86183  -0.82445  -0.80418  -0.79120  -0.77484
 Alpha  occ. eigenvalues --   -0.72050  -0.71176  -0.70523  -0.65965  -0.65035
 Alpha  occ. eigenvalues --   -0.64783  -0.62133  -0.61756  -0.60179  -0.58408
 Alpha  occ. eigenvalues --   -0.56138  -0.55301  -0.53467  -0.53231  -0.53107
 Alpha  occ. eigenvalues --   -0.52878  -0.50765  -0.48817  -0.48804  -0.48719
 Alpha  occ. eigenvalues --   -0.47462  -0.46640  -0.46569  -0.44809  -0.44616
 Alpha  occ. eigenvalues --   -0.37353  -0.36390
 Alpha virt. eigenvalues --    0.05014   0.11247   0.16386   0.18672   0.22794
 Alpha virt. eigenvalues --    0.23332   0.25324   0.26255   0.26889   0.27660
 Alpha virt. eigenvalues --    0.29246   0.30211   0.30961   0.31372   0.32418

 Mulliken charges:
               1
     1  C   -0.175161
     2  C   -0.219862
     3  C   -0.170797
     4  C    0.158713
     5  C   -0.170707
     6  C   -0.220594
     7  H    0.232833
     8  H    0.224046
     9  H    0.275764
    10  H    0.275677
    11  H    0.223445
    12  N    0.488013
    13  O   -0.460347
    14  O   -0.460263
    15  C   -0.297994
    16  C   -0.301186
    17  C   -0.476008
    18  H    0.153089
    19  H    0.147120
    20  H    0.153828
    21  H    0.152501
    22  H    0.154500
    23  H    0.156491
    24  H    0.163395
    25  C   -0.302493
    26  C   -0.300817
    27  C   -0.475812
    28  H    0.153609
    29  H    0.141673
    30  H    0.156959
    31  H    0.150563
    32  H    0.146153
    33  H    0.158694
    34  H    0.164976
 Sum of Mulliken charges =  -0.00000

 Dipole moment (field-independent basis, Debye):
    X=             -5.0237    Y=             -1.7931    Z=              0.4410  Tot=              5.3523
 Quadrupole moment (field-independent basis, Debye-Ang):
   XX=           -124.5994   YY=            -94.0319   ZZ=            -91.4312
   XY=             -5.6603   XZ=              1.3314   YZ=              2.3188

 Normal termination of Gaussian 16 at Thu May  6 10:45:59 2021.
