 Gaussian 16, Revision A.03,
 Gaussian 16:  EM64L-G16RevA.03 25-Dec-2016

 -------------
 #p 6-31g* mp2
 -------------

 ------------------------------------------------------
 Input file generated by CHIRIPA (05-May-2021 14:57:23)
 ------------------------------------------------------
 Symbolic Z-matrix:
 Charge =  0 Multiplicity = 1

                         Standard orientation:
 ---------------------------------------------------------------------
 Center     Atomic      Atomic             Coordinates (Angstroms)
 Number     Number       Type             X           Y           Z
 ---------------------------------------------------------------------
      1          6           0       -4.348679   -2.170320    0.319571
      2          6           0       -5.063236   -1.130098    0.922784
      3          6           0       -4.658922    0.198011    0.757848
      4          6           0       -3.530363    0.450952   -0.020397
      5          6           0       -2.797506   -0.563639   -0.634248
      6          6           0       -3.220084   -1.884275   -0.455653
      7          1           0       -4.669854   -3.199125    0.453002
      8          1           0       -5.940098   -1.349280    1.525376
      9          1           0       -5.193644    1.022559    1.213493
     10          1           0       -1.927414   -0.313910   -1.229222
     11          1           0       -2.663214   -2.690109   -0.925306
     12          7           0       -3.092666    1.853006   -0.202237
     13          8           0       -2.095021    2.049475   -0.892701
     14          8           0       -3.755533    2.728920    0.349144
     15          6           0        1.517823   -1.536265   -0.545450
     16          6           0        1.505561   -0.140203   -0.631369
     17          6           0        2.654797    0.599402   -0.336772
     18          6           0        3.804040   -0.092613    0.042234
     19          6           0        3.847768   -1.482716    0.137062
     20          6           0        2.686827   -2.201893   -0.162184
     21          1           0        0.620522   -2.102874   -0.776106
     22          1           0        0.599129    0.379398   -0.928755
     23          1           0        2.673109    1.680917   -0.395149
     24          1           0        4.766417   -1.972578    0.436290
     25          1           0        2.699264   -3.286016   -0.094604
     26          7           0        5.026880    0.679561    0.356571
     27          8           0        6.026640    0.046169    0.688131
     28          8           0        4.962428    1.903561    0.265438
 ---------------------------------------------------------------------

 SCF Done:  E(RHF) =  -868.337752278     A.U. after   16 cycles
 E2 =    -0.2600227216D+01 EUMP2 =    -0.87093797949408D+03

 The electronic state is 1-A.
 Alpha  occ. eigenvalues --  -20.61754 -20.61703 -20.60605 -20.60589 -15.86769
 Alpha  occ. eigenvalues --  -15.85651 -11.32128 -11.31064 -11.28812 -11.28622
 Alpha  occ. eigenvalues --  -11.28388 -11.27774 -11.27661 -11.27622 -11.27552
 Alpha  occ. eigenvalues --  -11.27512 -11.26757 -11.26591  -1.60783  -1.59673
 Alpha  occ. eigenvalues --   -1.40345  -1.39224  -1.20290  -1.19247  -1.09672
 Alpha  occ. eigenvalues --   -1.08669  -1.05710  -1.04633  -0.96518  -0.95490
 Alpha  occ. eigenvalues --   -0.87104  -0.86058  -0.83365  -0.82294  -0.78434
 Alpha  occ. eigenvalues --   -0.77306  -0.72990  -0.72092  -0.71872  -0.71404
 Alpha  occ. eigenvalues --   -0.70996  -0.70437  -0.65951  -0.65734  -0.64909
 Alpha  occ. eigenvalues --   -0.64648  -0.63071  -0.61940  -0.56172  -0.55265
 Alpha  occ. eigenvalues --   -0.54005  -0.53815  -0.52989  -0.52709  -0.49753
 Alpha  occ. eigenvalues --   -0.49724  -0.48636  -0.48619  -0.45743  -0.44618
 Alpha  occ. eigenvalues --   -0.38233  -0.37354  -0.37237  -0.36222
 Alpha virt. eigenvalues --    0.04096   0.05196   0.10316   0.11418   0.15575
 Alpha virt. eigenvalues --    0.16666   0.18153   0.22168   0.25069   0.25415
 Alpha virt. eigenvalues --    0.27736   0.29299   0.30416   0.31474   0.32366

 Mulliken charges:
               1
     1  C   -0.169598
     2  C   -0.217796
     3  C   -0.169060
     4  C    0.159280
     5  C   -0.172523
     6  C   -0.219817
     7  H    0.228456
     8  H    0.227205
     9  H    0.278762
    10  H    0.270348
    11  H    0.220264
    12  N    0.490062
    13  O   -0.468843
    14  O   -0.453372
    15  C   -0.171187
    16  C   -0.228781
    17  C   -0.171278
    18  C    0.159096
    19  C   -0.171700
    20  C   -0.218037
    21  H    0.212973
    22  H    0.239927
    23  H    0.281601
    24  H    0.275028
    25  H    0.220736
    26  N    0.487772
    27  O   -0.461552
    28  O   -0.457966
 Sum of Mulliken charges =  -0.00000

 Dipole moment (field-independent basis, Debye):
    X=             -6.1618    Y=             -7.4479    Z=             -0.3207  Tot=              9.6717
 Quadrupole moment (field-independent basis, Debye-Ang):
   XX=           -121.7109   YY=           -105.2699   ZZ=           -104.6070
   XY=              3.4859   XZ=             -9.1377   YZ=              0.3430

 Normal termination of Gaussian 16 at Fri May  7 01:51:32 2021.
