 Gaussian 16, Revision A.03,
 Gaussian 16:  EM64L-G16RevA.03 25-Dec-2016

 -------------
 #p 6-31g* mp2
 -------------

 ------------------------------------------------------
 Input file generated by CHIRIPA (05-May-2021 14:51:08)
 ------------------------------------------------------
 Symbolic Z-matrix:
 Charge =  0 Multiplicity = 1

                         Standard orientation:
 ---------------------------------------------------------------------
 Center     Atomic      Atomic             Coordinates (Angstroms)
 Number     Number       Type             X           Y           Z
 ---------------------------------------------------------------------
      1          6           0        3.575682   -0.093954    0.123672
      2          6           0        5.057962   -0.329676   -0.168332
      3          6           0        5.486600   -1.776227    0.079768
      4          1           0        3.366289   -0.366081    1.167245
      5          1           0        2.974195   -0.768005   -0.501838
      6          1           0        5.656431    0.345591    0.456540
      7          1           0        5.263890   -0.056775   -1.211277
      8          1           0        4.914814   -2.461584   -0.554227
      9          1           0        5.309585   -2.056932    1.123067
     10          1           0        6.549748   -1.922410   -0.135190
     11          6           0        3.132045    1.347470   -0.119661
     12          6           0        1.649765    1.583192    0.172343
     13          6           0        1.221128    3.029744   -0.075757
     14          1           0        3.733533    2.021521    0.505849
     15          1           0        3.341438    1.619597   -1.163235
     16          1           0        1.443837    1.310291    1.215288
     17          1           0        1.051296    0.907925   -0.452529
     18          1           0        1.398142    3.310448   -1.119056
     19          1           0        1.792914    3.715100    0.558237
     20          1           0        0.157980    3.175926    0.139201
     21          6           0       -2.881047   -1.216918   -0.109654
     22          6           0       -1.414363   -0.874857    0.154573
     23          6           0       -0.480796   -2.065667   -0.065012
     24          1           0       -3.181433   -2.045887    0.545727
     25          1           0       -2.985418   -1.580487   -1.141312
     26          1           0       -1.313018   -0.510734    1.184989
     27          1           0       -1.117488   -0.046479   -0.501379
     28          1           0       -0.552408   -2.426291   -1.096235
     29          1           0       -0.749048   -2.893183    0.599714
     30          1           0        0.562707   -1.798914    0.129417
     31          6           0       -3.826680   -0.036599    0.105644
     32          6           0       -5.293365   -0.378659   -0.158584
     33          6           0       -6.226931    0.812152    0.061001
     34          1           0       -3.722309    0.326971    1.137302
     35          1           0       -3.526294    0.792370   -0.549738
     36          1           0       -5.590239   -1.207037    0.497368
     37          1           0       -5.394710   -0.742783   -1.189000
     38          1           0       -5.958680    1.639666   -0.603725
     39          1           0       -6.155320    1.172775    1.092225
     40          1           0       -7.270435    0.545398   -0.133427
 ---------------------------------------------------------------------

 SCF Done:  E(RHF) =  -470.732800945     A.U. after   11 cycles
 E2 =    -0.1583752936D+01 EUMP2 =    -0.47231655388118D+03

 The electronic state is 1-A.
 Alpha  occ. eigenvalues --  -11.21610 -11.21592 -11.21544 -11.21535 -11.21411
 Alpha  occ. eigenvalues --  -11.21385 -11.21344 -11.21322 -11.21069 -11.21065
 Alpha  occ. eigenvalues --  -11.21055 -11.21011  -1.08452  -1.08388  -1.03561
 Alpha  occ. eigenvalues --   -1.03467  -0.95975  -0.95958  -0.86994  -0.86968
 Alpha  occ. eigenvalues --   -0.79718  -0.79456  -0.78342  -0.78127  -0.65140
 Alpha  occ. eigenvalues --   -0.64980  -0.61049  -0.60795  -0.59471  -0.59205
 Alpha  occ. eigenvalues --   -0.57614  -0.57541  -0.55276  -0.55237  -0.52736
 Alpha  occ. eigenvalues --   -0.52602  -0.52389  -0.52371  -0.49960  -0.49866
 Alpha  occ. eigenvalues --   -0.48091  -0.47720  -0.46840  -0.46432  -0.45906
 Alpha  occ. eigenvalues --   -0.45778  -0.45680  -0.45422  -0.43777  -0.43741
 Alpha virt. eigenvalues --    0.21361   0.23129   0.23711   0.24210   0.25971
 Alpha virt. eigenvalues --    0.26239   0.26720   0.27132   0.28523   0.29176
 Alpha virt. eigenvalues --    0.30571   0.31138   0.31637   0.31782   0.32347

 Mulliken charges:
               1
     1  C   -0.302068
     2  C   -0.299430
     3  C   -0.475832
     4  H    0.149577
     5  H    0.152598
     6  H    0.152074
     7  H    0.151972
     8  H    0.155416
     9  H    0.155200
    10  H    0.160292
    11  C   -0.297667
    12  C   -0.305354
    13  C   -0.476382
    14  H    0.149347
    15  H    0.149244
    16  H    0.151895
    17  H    0.159582
    18  H    0.154629
    19  H    0.155172
    20  H    0.160720
    21  C   -0.297890
    22  C   -0.301211
    23  C   -0.482791
    24  H    0.149460
    25  H    0.149162
    26  H    0.152338
    27  H    0.154087
    28  H    0.154066
    29  H    0.155244
    30  H    0.166913
    31  C   -0.298250
    32  C   -0.299580
    33  C   -0.475702
    34  H    0.149404
    35  H    0.149413
    36  H    0.151953
    37  H    0.151880
    38  H    0.155148
    39  H    0.155145
    40  H    0.160227
 Sum of Mulliken charges =  -0.00000

 Dipole moment (field-independent basis, Debye):
    X=              0.0161    Y=              0.0046    Z=              0.0047  Tot=              0.0174
 Quadrupole moment (field-independent basis, Debye-Ang):
   XX=            -85.6756   YY=            -86.3409   ZZ=            -82.8762
   XY=              1.1045   XZ=              0.1223   YZ=             -0.0104

 Normal termination of Gaussian 16 at Wed May  5 22:55:03 2021.
