 Gaussian 16, Revision A.03,
 Gaussian 16:  EM64L-G16RevA.03 25-Dec-2016

 -------------
 #p 6-31g* mp2
 -------------

 ------------------------------------------------------
 Input file generated by CHIRIPA (05-May-2021 14:53:16)
 ------------------------------------------------------
 Symbolic Z-matrix:
 Charge =  0 Multiplicity = 1

                         Standard orientation:
 ---------------------------------------------------------------------
 Center     Atomic      Atomic             Coordinates (Angstroms)
 Number     Number       Type             X           Y           Z
 ---------------------------------------------------------------------
      1          6           0        4.271802   -0.031758   -0.640187
      2          6           0        5.577956    0.555456   -0.104346
      3          6           0        6.326948    1.382601   -1.149639
      4          1           0        4.490632   -0.657038   -1.516590
      5          1           0        3.627675    0.785787   -0.992488
      6          1           0        6.218860   -0.262854    0.248113
      7          1           0        5.356013    1.179257    0.770999
      8          1           0        5.709307    2.218178   -1.494503
      9          1           0        6.577057    0.767873   -2.020361
     10          1           0        7.257607    1.792859   -0.745384
     11          6           0        3.511616   -0.861262    0.393142
     12          6           0        2.205462   -1.448476   -0.142699
     13          6           0        1.456470   -2.275621    0.902594
     14          1           0        4.155743   -1.678807    0.745443
     15          1           0        3.292786   -0.235982    1.269546
     16          1           0        2.427405   -2.072277   -1.018044
     17          1           0        1.564558   -0.630166   -0.495158
     18          1           0        1.206361   -1.660893    1.773316
     19          1           0        2.074111   -3.111198    1.247459
     20          1           0        0.525811   -2.685879    0.498340
     21          6           0       -1.360362    1.464381    1.612735
     22          6           0       -1.483079    0.071022    1.609021
     23          6           0       -2.410559   -0.557825    0.773030
     24          6           0       -3.202817    0.240989   -0.050082
     25          6           0       -3.104145    1.631382   -0.069130
     26          6           0       -2.169859    2.238749    0.775125
     27          1           0       -0.637230    1.944542    2.265361
     28          1           0       -0.855732   -0.532885    2.258464
     29          1           0       -2.526382   -1.634614    0.750084
     30          1           0       -3.743417    2.206789   -0.727656
     31          1           0       -2.076737    3.321048    0.775904
     32          7           0       -4.188302   -0.413373   -0.939481
     33          8           0       -4.874545    0.312838   -1.655249
     34          8           0       -4.255819   -1.640083   -0.903984
 ---------------------------------------------------------------------

 SCF Done:  E(RHF) =  -669.535300049     A.U. after   15 cycles
 E2 =    -0.2091658668D+01 EUMP2 =    -0.67162695871694D+03

 The electronic state is 1-A.
 Alpha  occ. eigenvalues --  -20.60767 -20.60762 -15.85820 -11.31191 -11.27757
 Alpha  occ. eigenvalues --  -11.27749 -11.27502 -11.26782 -11.26738 -11.22136
 Alpha  occ. eigenvalues --  -11.22008 -11.21925 -11.21860 -11.21805 -11.21412
 Alpha  occ. eigenvalues --   -1.59842  -1.39395  -1.19363  -1.08926  -1.08758
 Alpha  occ. eigenvalues --   -1.04767  -1.04037  -0.96514  -0.95592  -0.87539
 Alpha  occ. eigenvalues --   -0.86161  -0.82422  -0.80101  -0.78722  -0.77467
 Alpha  occ. eigenvalues --   -0.72038  -0.71165  -0.70474  -0.65586  -0.65014
 Alpha  occ. eigenvalues --   -0.64776  -0.62181  -0.61381  -0.59872  -0.58105
 Alpha  occ. eigenvalues --   -0.55853  -0.55252  -0.53239  -0.53067  -0.53008
 Alpha  occ. eigenvalues --   -0.52756  -0.50428  -0.48798  -0.48793  -0.48411
 Alpha  occ. eigenvalues --   -0.47117  -0.46272  -0.46183  -0.44800  -0.44292
 Alpha  occ. eigenvalues --   -0.37346  -0.36346
 Alpha virt. eigenvalues --    0.05052   0.11226   0.16495   0.20300   0.22625
 Alpha virt. eigenvalues --    0.23935   0.25654   0.26349   0.26696   0.27748
 Alpha virt. eigenvalues --    0.29070   0.29526   0.31253   0.31388   0.32014

 Mulliken charges:
               1
     1  C   -0.298670
     2  C   -0.299703
     3  C   -0.475889
     4  H    0.151972
     5  H    0.149437
     6  H    0.152879
     7  H    0.150187
     8  H    0.155027
     9  H    0.156602
    10  H    0.160994
    11  C   -0.297920
    12  C   -0.301127
    13  C   -0.476808
    14  H    0.151028
    15  H    0.144974
    16  H    0.156324
    17  H    0.154994
    18  H    0.144336
    19  H    0.158979
    20  H    0.161383
    21  C   -0.172973
    22  C   -0.217452
    23  C   -0.173056
    24  C    0.158656
    25  C   -0.171153
    26  C   -0.218451
    27  H    0.225212
    28  H    0.228155
    29  H    0.275902
    30  H    0.275576
    31  H    0.223315
    32  N    0.488117
    33  O   -0.460440
    34  O   -0.460405
 Sum of Mulliken charges =  -0.00000

 Dipole moment (field-independent basis, Debye):
    X=              3.5712    Y=              2.2760    Z=              3.0489  Tot=              5.2182
 Quadrupole moment (field-independent basis, Debye-Ang):
   XX=           -117.2259   YY=            -89.3239   ZZ=            -95.5813
   XY=             -8.9953   XZ=             -9.6534   YZ=             -0.3564

 Normal termination of Gaussian 16 at Thu May  6 07:30:31 2021.
