 Gaussian 16, Revision A.03,
 Gaussian 16:  EM64L-G16RevA.03 25-Dec-2016

 -------------
 #p 6-31g* mp2
 -------------

 ------------------------------------------------------
 Input file generated by CHIRIPA (05-May-2021 14:57:26)
 ------------------------------------------------------
 Symbolic Z-matrix:
 Charge =  0 Multiplicity = 1

                         Standard orientation:
 ---------------------------------------------------------------------
 Center     Atomic      Atomic             Coordinates (Angstroms)
 Number     Number       Type             X           Y           Z
 ---------------------------------------------------------------------
      1          6           0       -4.203744   -2.032941   -0.244169
      2          6           0       -4.995065   -0.908799    0.013974
      3          6           0       -4.431062    0.370427    0.019429
      4          6           0       -3.066275    0.489443   -0.238407
      5          6           0       -2.251517   -0.611255   -0.499030
      6          6           0       -2.836905   -1.880849   -0.499397
      7          1           0       -4.650181   -3.022933   -0.246430
      8          1           0       -6.056845   -1.023909    0.212516
      9          1           0       -5.020431    1.257739    0.216250
     10          1           0       -1.195979   -0.464819   -0.693490
     11          1           0       -2.219918   -2.752086   -0.700191
     12          7           0       -2.457870    1.838604   -0.235326
     13          8           0       -1.253045    1.916702   -0.465397
     14          8           0       -3.197349    2.792430   -0.002897
     15          6           0        5.183621    0.506931   -1.064247
     16          6           0        4.716427    1.262136    0.016455
     17          6           0        3.599712    0.842877    0.745643
     18          6           0        2.971544   -0.341913    0.364900
     19          6           0        3.413039   -1.116241   -0.706916
     20          6           0        4.531586   -0.677759   -1.421853
     21          1           0        6.051825    0.840087   -1.625163
     22          1           0        5.220822    2.182593    0.296438
     23          1           0        3.216866    1.408210    1.586622
     24          1           0        2.889310   -2.029456   -0.962186
     25          1           0        4.892197   -1.266286   -2.260685
     26          7           0        1.788358   -0.795939    1.129316
     27          8           0        1.252606   -1.843408    0.773761
     28          8           0        1.419132   -0.095740    2.069545
 ---------------------------------------------------------------------

 SCF Done:  E(RHF) =  -868.339495838     A.U. after   16 cycles
 E2 =    -0.2598958551D+01 EUMP2 =    -0.87093845438919D+03

 The electronic state is 1-A.
 Alpha  occ. eigenvalues --  -20.60950 -20.60846 -20.60054 -20.60045 -15.85927
 Alpha  occ. eigenvalues --  -15.85098 -11.31089 -11.30281 -11.27699 -11.27590
 Alpha  occ. eigenvalues --  -11.27370 -11.26901 -11.26764 -11.26660 -11.26608
 Alpha  occ. eigenvalues --  -11.26587 -11.25908 -11.25758  -1.59959  -1.59121
 Alpha  occ. eigenvalues --   -1.39521  -1.38683  -1.19248  -1.18452  -1.08686
 Alpha  occ. eigenvalues --   -1.07895  -1.04630  -1.03820  -0.95555  -0.94755
 Alpha  occ. eigenvalues --   -0.86041  -0.85245  -0.82400  -0.81587  -0.77466
 Alpha  occ. eigenvalues --   -0.76647  -0.72161  -0.71368  -0.71233  -0.70425
 Alpha  occ. eigenvalues --   -0.70375  -0.69587  -0.64915  -0.64644  -0.64114
 Alpha  occ. eigenvalues --   -0.63838  -0.61986  -0.61169  -0.55154  -0.54384
 Alpha  occ. eigenvalues --   -0.52957  -0.52730  -0.52169  -0.51922  -0.48932
 Alpha  occ. eigenvalues --   -0.48885  -0.48090  -0.48072  -0.44963  -0.44124
 Alpha  occ. eigenvalues --   -0.37217  -0.36454  -0.36214  -0.35397
 Alpha virt. eigenvalues --    0.05052   0.05886   0.11440   0.12239   0.16566
 Alpha virt. eigenvalues --    0.17397   0.21521   0.22303   0.27446   0.28008
 Alpha virt. eigenvalues --    0.28538   0.29079   0.31093   0.31805   0.32645

 Mulliken charges:
               1
     1  C   -0.171237
     2  C   -0.219146
     3  C   -0.171684
     4  C    0.158341
     5  C   -0.162886
     6  C   -0.217199
     7  H    0.222821
     8  H    0.219940
     9  H    0.272512
    10  H    0.276066
    11  H    0.227248
    12  N    0.489373
    13  O   -0.463008
    14  O   -0.463723
    15  C   -0.169852
    16  C   -0.218097
    17  C   -0.166199
    18  C    0.159849
    19  C   -0.171677
    20  C   -0.218254
    21  H    0.225771
    22  H    0.224934
    23  H    0.278899
    24  H    0.270939
    25  H    0.222262
    26  N    0.488734
    27  O   -0.473353
    28  O   -0.451375
 Sum of Mulliken charges =  -0.00000

 Dipole moment (field-independent basis, Debye):
    X=              2.3167    Y=             -3.0685    Z=             -2.5857  Tot=              4.6335
 Quadrupole moment (field-independent basis, Debye-Ang):
   XX=            -64.1923   YY=           -107.6502   ZZ=           -106.0327
   XY=             16.1142   XZ=             -6.9275   YZ=              6.0442

 Normal termination of Gaussian 16 at Wed May  5 21:12:24 2021.
