 Gaussian 16, Revision A.03,
 Gaussian 16:  EM64L-G16RevA.03 25-Dec-2016

 -------------
 #p 6-31g* mp2
 -------------

 ------------------------------------------------------
 Input file generated by CHIRIPA (05-May-2021 14:51:09)
 ------------------------------------------------------
 Symbolic Z-matrix:
 Charge =  0 Multiplicity = 1

                         Standard orientation:
 ---------------------------------------------------------------------
 Center     Atomic      Atomic             Coordinates (Angstroms)
 Number     Number       Type             X           Y           Z
 ---------------------------------------------------------------------
      1          6           0       -3.221743    0.985893    0.291355
      2          6           0       -2.735089    2.233764   -0.446188
      3          6           0       -3.223789    3.530534    0.199842
      4          1           0       -4.319915    0.990767    0.322014
      5          1           0       -2.879732    1.028409    1.334722
      6          1           0       -3.076743    2.188237   -1.488213
      7          1           0       -1.637953    2.225822   -0.475262
      8          1           0       -2.870987    3.602643    1.233733
      9          1           0       -4.317952    3.564844    0.215027
     10          1           0       -2.864291    4.410015   -0.343421
     11          6           0       -2.741398   -0.318403   -0.342529
     12          6           0       -3.228052   -1.566275    0.395015
     13          6           0       -2.739352   -2.863044   -0.251016
     14          1           0       -3.083409   -0.360919   -1.385896
     15          1           0       -1.643226   -0.323277   -0.373188
     16          1           0       -4.325188   -1.558332    0.424089
     17          1           0       -2.886398   -1.520747    1.437039
     18          1           0       -1.645189   -2.897354   -0.266201
     19          1           0       -3.092154   -2.935154   -1.284907
     20          1           0       -3.098850   -3.742525    0.292247
     21          6           0        2.678436   -0.934595   -0.335690
     22          6           0        2.012011   -1.936483    0.607752
     23          6           0        1.410255   -3.132987   -0.129855
     24          1           0        1.938867   -0.581870   -1.067516
     25          1           0        3.464365   -1.446987   -0.907671
     26          1           0        1.228502   -1.422034    1.178778
     27          1           0        2.753203   -2.286720    1.337536
     28          1           0        2.184255   -3.671659   -0.686054
     29          1           0        0.650891   -2.802060   -0.845714
     30          1           0        0.939061   -3.836523    0.563594
     31          6           0        3.284705    0.267105    0.386863
     32          6           0        3.951130    1.268993   -0.556578
     33          6           0        4.552886    2.465497    0.181029
     34          1           0        2.498776    0.779498    0.958845
     35          1           0        4.024273   -0.085620    1.118690
     36          1           0        3.209938    1.619230   -1.286363
     37          1           0        4.734640    0.754544   -1.127603
     38          1           0        5.312250    2.134571    0.896889
     39          1           0        3.778886    3.004170    0.737228
     40          1           0        5.024079    3.169034   -0.512421
 ---------------------------------------------------------------------

 SCF Done:  E(RHF) =  -470.733136190     A.U. after   11 cycles
 E2 =    -0.1582976213D+01 EUMP2 =    -0.47231611240310D+03

 The electronic state is 1-A.
 Alpha  occ. eigenvalues --  -11.21672 -11.21639 -11.21634 -11.21588 -11.21456
 Alpha  occ. eigenvalues --  -11.21436 -11.21396 -11.21376 -11.21117 -11.21100
 Alpha  occ. eigenvalues --  -11.21097 -11.20969  -1.08485  -1.08446  -1.03593
 Alpha  occ. eigenvalues --   -1.03520  -0.96057  -0.95954  -0.87092  -0.86954
 Alpha  occ. eigenvalues --   -0.79679  -0.79562  -0.78298  -0.78259  -0.65195
 Alpha  occ. eigenvalues --   -0.65010  -0.61145  -0.60791  -0.59395  -0.59348
 Alpha  occ. eigenvalues --   -0.57648  -0.57591  -0.55531  -0.55083  -0.52753
 Alpha  occ. eigenvalues --   -0.52660  -0.52485  -0.52353  -0.50186  -0.49701
 Alpha  occ. eigenvalues --   -0.48011  -0.47856  -0.46776  -0.46502  -0.45907
 Alpha  occ. eigenvalues --   -0.45776  -0.45757  -0.45645  -0.43832  -0.43791
 Alpha virt. eigenvalues --    0.20092   0.23389   0.23465   0.25079   0.25958
 Alpha virt. eigenvalues --    0.26779   0.27028   0.27536   0.28527   0.29100
 Alpha virt. eigenvalues --    0.30684   0.31559   0.31628   0.31778   0.32014

 Mulliken charges:
               1
     1  C   -0.298253
     2  C   -0.299530
     3  C   -0.475727
     4  H    0.150005
     5  H    0.149440
     6  H    0.152068
     7  H    0.151232
     8  H    0.155174
     9  H    0.155365
    10  H    0.160322
    11  C   -0.299213
    12  C   -0.298972
    13  C   -0.484287
    14  H    0.149672
    15  H    0.148955
    16  H    0.151824
    17  H    0.151520
    18  H    0.165414
    19  H    0.154413
    20  H    0.159851
    21  C   -0.298998
    22  C   -0.300679
    23  C   -0.480279
    24  H    0.150084
    25  H    0.149971
    26  H    0.151696
    27  H    0.152552
    28  H    0.156207
    29  H    0.158562
    30  H    0.161367
    31  C   -0.298234
    32  C   -0.299743
    33  C   -0.475731
    34  H    0.149104
    35  H    0.149849
    36  H    0.152072
    37  H    0.152096
    38  H    0.155236
    39  H    0.155160
    40  H    0.160435
 Sum of Mulliken charges =  -0.00000

 Dipole moment (field-independent basis, Debye):
    X=              0.0354    Y=             -0.0161    Z=             -0.0060  Tot=              0.0394
 Quadrupole moment (field-independent basis, Debye-Ang):
   XX=            -83.5782   YY=            -86.3633   ZZ=            -84.7151
   XY=             -0.6981   XZ=              0.4839   YZ=             -0.7501

 Normal termination of Gaussian 16 at Thu May  6 00:33:24 2021.
