 Gaussian 16, Revision A.03,
 Gaussian 16:  EM64L-G16RevA.03 25-Dec-2016

 -------------
 #p 6-31g* mp2
 -------------

 ------------------------------------------------------
 Input file generated by CHIRIPA (05-May-2021 14:57:21)
 ------------------------------------------------------
 Symbolic Z-matrix:
 Charge =  0 Multiplicity = 1

                         Standard orientation:
 ---------------------------------------------------------------------
 Center     Atomic      Atomic             Coordinates (Angstroms)
 Number     Number       Type             X           Y           Z
 ---------------------------------------------------------------------
      1          6           0        5.292956    0.438805   -0.761798
      2          6           0        4.167612    1.117776   -1.240463
      3          6           0        2.883919    0.734970   -0.840287
      4          6           0        2.761711   -0.336027    0.043636
      5          6           0        3.863502   -1.032350    0.538086
      6          6           0        5.137584   -0.632203    0.124387
      7          1           0        6.286426    0.742913   -1.077917
      8          1           0        4.285262    1.949898   -1.928777
      9          1           0        1.995583    1.243095   -1.195372
     10          1           0        3.714458   -1.858024    1.223262
     11          1           0        6.009745   -1.161337    0.497747
     12          7           0        1.407811   -0.750466    0.474442
     13          8           0        1.326963   -1.697246    1.253999
     14          8           0        0.453108   -0.120675    0.024395
     15          6           0       -1.821763    2.004275    1.440710
     16          6           0       -2.234798    0.797168    2.014134
     17          6           0       -2.880142   -0.172218    1.240589
     18          6           0       -3.097294    0.099839   -0.109271
     19          6           0       -2.697654    1.292798   -0.709628
     20          6           0       -2.054100    2.247808    0.083053
     21          1           0       -1.321140    2.751733    2.049050
     22          1           0       -2.055687    0.605316    3.068248
     23          1           0       -3.210380   -1.115290    1.658890
     24          1           0       -2.890168    1.455375   -1.763158
     25          1           0       -1.734431    3.184366   -0.364962
     26          7           0       -3.779543   -0.918797   -0.938316
     27          8           0       -3.959061   -0.654908   -2.125234
     28          8           0       -4.121853   -1.961803   -0.385507
 ---------------------------------------------------------------------

 SCF Done:  E(RHF) =  -868.337041954     A.U. after   16 cycles
 E2 =    -0.2601667711D+01 EUMP2 =    -0.87093870966515D+03

 The electronic state is 1-A.
 Alpha  occ. eigenvalues --  -20.61130 -20.61090 -20.59547 -20.59529 -15.86137
 Alpha  occ. eigenvalues --  -15.84584 -11.31517 -11.29672 -11.28100 -11.28067
 Alpha  occ. eigenvalues --  -11.27811 -11.27101 -11.27075 -11.26343 -11.26227
 Alpha  occ. eigenvalues --  -11.26087 -11.25375 -11.25239  -1.60184  -1.58615
 Alpha  occ. eigenvalues --   -1.39740  -1.38180  -1.19686  -1.17836  -1.09079
 Alpha  occ. eigenvalues --   -1.07332  -1.05088  -1.03266  -0.95918  -0.94215
 Alpha  occ. eigenvalues --   -0.86485  -0.84727  -0.82753  -0.81089  -0.77802
 Alpha  occ. eigenvalues --   -0.76137  -0.72401  -0.71512  -0.70836  -0.70790
 Alpha  occ. eigenvalues --   -0.69905  -0.69111  -0.65341  -0.65089  -0.63582
 Alpha  occ. eigenvalues --   -0.63387  -0.62438  -0.60686  -0.55585  -0.53902
 Alpha  occ. eigenvalues --   -0.53420  -0.53183  -0.51613  -0.51461  -0.49139
 Alpha  occ. eigenvalues --   -0.48954  -0.47589  -0.47563  -0.45151  -0.43649
 Alpha  occ. eigenvalues --   -0.37670  -0.36694  -0.35758  -0.34762
 Alpha virt. eigenvalues --    0.04725   0.06433   0.10962   0.12818   0.16224
 Alpha virt. eigenvalues --    0.17950   0.21104   0.22579   0.26997   0.27950
 Alpha virt. eigenvalues --    0.28495   0.29462   0.30662   0.31959   0.32254

 Mulliken charges:
               1
     1  C   -0.170688
     2  C   -0.218341
     3  C   -0.171288
     4  C    0.157961
     5  C   -0.170875
     6  C   -0.218388
     7  H    0.226545
     8  H    0.223458
     9  H    0.273324
    10  H    0.276258
    11  H    0.224522
    12  N    0.490251
    13  O   -0.461288
    14  O   -0.460106
    15  C   -0.164971
    16  C   -0.209455
    17  C   -0.158584
    18  C    0.166505
    19  C   -0.167213
    20  C   -0.214057
    21  H    0.216469
    22  H    0.218280
    23  H    0.272793
    24  H    0.268290
    25  H    0.212188
    26  N    0.487838
    27  O   -0.466828
    28  O   -0.462601
 Sum of Mulliken charges =  -0.00000

 Dipole moment (field-independent basis, Debye):
    X=              7.4338    Y=              4.8617    Z=              1.4888  Tot=              9.0063
 Quadrupole moment (field-independent basis, Debye-Ang):
   XX=            -94.4108   YY=           -102.1605   ZZ=           -101.9499
   XY=             -9.5248   XZ=            -12.7971   YZ=             -4.8183

 Normal termination of Gaussian 16 at Thu May  6 14:31:48 2021.
