 Gaussian 16, Revision A.03,
 Gaussian 16:  EM64L-G16RevA.03 25-Dec-2016

 -------------
 #p 6-31g* mp2
 -------------

 ------------------------------------------------------
 Input file generated by CHIRIPA (05-May-2021 14:57:23)
 ------------------------------------------------------
 Symbolic Z-matrix:
 Charge =  0 Multiplicity = 1

                         Standard orientation:
 ---------------------------------------------------------------------
 Center     Atomic      Atomic             Coordinates (Angstroms)
 Number     Number       Type             X           Y           Z
 ---------------------------------------------------------------------
      1          6           0        3.118099    2.337459    0.093933
      2          6           0        4.206147    1.462048    0.173475
      3          6           0        4.017334    0.082003    0.053585
      4          6           0        2.721079   -0.390369   -0.146112
      5          6           0        1.616806    0.456318   -0.229734
      6          6           0        1.829173    1.832690   -0.107063
      7          1           0        3.273922    3.408084    0.188147
      8          1           0        5.208260    1.851234    0.329520
      9          1           0        4.841820   -0.618218    0.111306
     10          1           0        0.629609    0.038592   -0.385833
     11          1           0        0.982310    2.510186   -0.169241
     12          7           0        2.508723   -1.849416   -0.274506
     13          8           0        1.356794   -2.240446   -0.449978
     14          8           0        3.498230   -2.574360   -0.197239
     15          6           0       -2.299025    2.623861   -0.066208
     16          6           0       -3.219001    2.013560   -0.925100
     17          6           0       -3.480107    0.643529   -0.828219
     18          6           0       -2.800265   -0.089273    0.143432
     19          6           0       -1.878044    0.489877    1.013710
     20          6           0       -1.632657    1.861416    0.898756
     21          1           0       -2.102296    3.688720   -0.148487
     22          1           0       -3.737983    2.603203   -1.675450
     23          1           0       -4.187359    0.145547   -1.480313
     24          1           0       -1.376215   -0.124065    1.751721
     25          1           0       -0.917671    2.332710    1.567128
     26          7           0       -3.068365   -1.540462    0.255562
     27          8           0       -2.456321   -2.163978    1.120008
     28          8           0       -3.885471   -2.026910   -0.523119
 ---------------------------------------------------------------------

 SCF Done:  E(RHF) =  -868.334894742     A.U. after   16 cycles
 E2 =    -0.2603998271D+01 EUMP2 =    -0.87093889301287D+03

 The electronic state is 1-A.
 Alpha  occ. eigenvalues --  -20.60775 -20.60724 -20.60687 -20.60651 -15.85824
 Alpha  occ. eigenvalues --  -15.85727 -11.31675 -11.31308 -11.28260 -11.28226
 Alpha  occ. eigenvalues --  -11.28140 -11.27912 -11.27854 -11.27742 -11.27435
 Alpha  occ. eigenvalues --  -11.27347 -11.26980 -11.26970  -1.59813  -1.59744
 Alpha  occ. eigenvalues --   -1.39354  -1.39290  -1.19906  -1.19517  -1.09208
 Alpha  occ. eigenvalues --   -1.08883  -1.05400  -1.04916  -0.95954  -0.95670
 Alpha  occ. eigenvalues --   -0.86770  -0.86313  -0.82799  -0.82471  -0.77782
 Alpha  occ. eigenvalues --   -0.77453  -0.72040  -0.71933  -0.71144  -0.71077
 Alpha  occ. eigenvalues --   -0.70981  -0.70628  -0.65574  -0.65476  -0.65159
 Alpha  occ. eigenvalues --   -0.64815  -0.62764  -0.62222  -0.55845  -0.55505
 Alpha  occ. eigenvalues --   -0.53629  -0.53513  -0.53235  -0.52961  -0.48832
 Alpha  occ. eigenvalues --   -0.48761  -0.48714  -0.48682  -0.44680  -0.44611
 Alpha  occ. eigenvalues --   -0.37914  -0.37536  -0.37155  -0.36366
 Alpha virt. eigenvalues --    0.04636   0.05171   0.10319   0.11186   0.15989
 Alpha virt. eigenvalues --    0.16606   0.20223   0.21780   0.26108   0.27362
 Alpha virt. eigenvalues --    0.28098   0.28321   0.30304   0.30877   0.31835

 Mulliken charges:
               1
     1  C   -0.171597
     2  C   -0.218627
     3  C   -0.170083
     4  C    0.159496
     5  C   -0.177897
     6  C   -0.225258
     7  H    0.223240
     8  H    0.223703
     9  H    0.276906
    10  H    0.281825
    11  H    0.217499
    12  N    0.487255
    13  O   -0.454235
    14  O   -0.460345
    15  C   -0.176053
    16  C   -0.217050
    17  C   -0.169738
    18  C    0.163025
    19  C   -0.182640
    20  C   -0.225437
    21  H    0.224175
    22  H    0.225879
    23  H    0.279400
    24  H    0.282967
    25  H    0.224565
    26  N    0.489249
    27  O   -0.451113
    28  O   -0.459111
 Sum of Mulliken charges =  -0.00000

 Dipole moment (field-independent basis, Debye):
    X=              1.4362    Y=              9.8582    Z=              0.0517  Tot=              9.9624
 Quadrupole moment (field-independent basis, Debye-Ang):
   XX=            -98.7621   YY=           -111.0965   ZZ=           -103.2494
   XY=             -1.7384   XZ=              5.9193   YZ=             -0.6914

 Normal termination of Gaussian 16 at Thu May  6 03:26:26 2021.
