 Gaussian 16, Revision A.03,
 Gaussian 16:  EM64L-G16RevA.03 25-Dec-2016

 -------------
 #p 6-31g* mp2
 -------------

 ------------------------------------------------------
 Input file generated by CHIRIPA (05-May-2021 14:57:22)
 ------------------------------------------------------
 Symbolic Z-matrix:
 Charge =  0 Multiplicity = 1

                         Standard orientation:
 ---------------------------------------------------------------------
 Center     Atomic      Atomic             Coordinates (Angstroms)
 Number     Number       Type             X           Y           Z
 ---------------------------------------------------------------------
      1          6           0       -1.605846    1.905876    1.101361
      2          6           0       -1.567982    0.624888    1.661857
      3          6           0       -2.338713   -0.409248    1.122334
      4          6           0       -3.139675   -0.125899    0.017135
      5          6           0       -3.198944    1.139927   -0.563779
      6          6           0       -2.419772    2.158861   -0.007712
      7          1           0       -1.003845    2.703313    1.526901
      8          1           0       -0.936799    0.425522    2.523197
      9          1           0       -2.328409   -1.410171    1.536416
     10          1           0       -3.837858    1.308167   -1.422210
     11          1           0       -2.451171    3.152727   -0.445080
     12          7           0       -3.960082   -1.212646   -0.562790
     13          8           0       -4.657525   -0.937268   -1.536637
     14          8           0       -3.890140   -2.319238   -0.032508
     15          6           0        2.414030    2.365640   -0.520736
     16          6           0        3.086586    1.633649   -1.504799
     17          6           0        3.418775    0.292797   -1.289593
     18          6           0        3.061543   -0.287055   -0.073268
     19          6           0        2.391201    0.415820    0.926681
     20          6           0        2.069093    1.755465    0.689729
     21          1           0        2.159894    3.406777   -0.696359
     22          1           0        3.355722    2.104922   -2.445815
     23          1           0        3.939217   -0.297203   -2.034213
     24          1           0        2.136130   -0.081334    1.854686
     25          1           0        1.546754    2.321495    1.455769
     26          7           0        3.407881   -1.705916    0.166072
     27          8           0        3.081998   -2.193662    1.246137
     28          8           0        3.998666   -2.303407   -0.730932
 ---------------------------------------------------------------------

 SCF Done:  E(RHF) =  -868.335593536     A.U. after   16 cycles
 E2 =    -0.2601607602D+01 EUMP2 =    -0.87093720113768D+03

 The electronic state is 1-A.
 Alpha  occ. eigenvalues --  -20.61185 -20.61167 -20.60965 -20.60950 -15.86239
 Alpha  occ. eigenvalues --  -15.86020 -11.31734 -11.31536 -11.28395 -11.28270
 Alpha  occ. eigenvalues --  -11.28150 -11.28123 -11.28111 -11.28051 -11.27496
 Alpha  occ. eigenvalues --  -11.27322 -11.27247 -11.27235  -1.60249  -1.60032
 Alpha  occ. eigenvalues --   -1.39801  -1.39581  -1.19929  -1.19749  -1.09312
 Alpha  occ. eigenvalues --   -1.09144  -1.05374  -1.05171  -0.96116  -0.95951
 Alpha  occ. eigenvalues --   -0.86775  -0.86591  -0.82965  -0.82769  -0.77994
 Alpha  occ. eigenvalues --   -0.77755  -0.72458  -0.72239  -0.71571  -0.71357
 Alpha  occ. eigenvalues --   -0.71072  -0.70954  -0.65602  -0.65484  -0.65374
 Alpha  occ. eigenvalues --   -0.65200  -0.62760  -0.62486  -0.55941  -0.55751
 Alpha  occ. eigenvalues --   -0.53833  -0.53500  -0.53296  -0.53280  -0.49225
 Alpha  occ. eigenvalues --   -0.49202  -0.49012  -0.48979  -0.45178  -0.44953
 Alpha  occ. eigenvalues --   -0.38158  -0.37728  -0.36957  -0.36519
 Alpha virt. eigenvalues --    0.04566   0.04740   0.10648   0.10841   0.15997
 Alpha virt. eigenvalues --    0.16273   0.18301   0.22236   0.25169   0.25286
 Alpha virt. eigenvalues --    0.28263   0.28832   0.30179   0.31160   0.32969

 Mulliken charges:
               1
     1  C   -0.168018
     2  C   -0.217581
     3  C   -0.168981
     4  C    0.159091
     5  C   -0.169852
     6  C   -0.219022
     7  H    0.215753
     8  H    0.219829
     9  H    0.280291
    10  H    0.276646
    11  H    0.221434
    12  N    0.487946
    13  O   -0.460149
    14  O   -0.457099
    15  C   -0.171063
    16  C   -0.217643
    17  C   -0.169450
    18  C    0.159623
    19  C   -0.169096
    20  C   -0.213114
    21  H    0.223291
    22  H    0.225507
    23  H    0.278233
    24  H    0.271252
    25  H    0.212060
    26  N    0.488321
    27  O   -0.461021
    28  O   -0.457191
 Sum of Mulliken charges =  -0.00000

 Dipole moment (field-independent basis, Debye):
    X=              1.6695    Y=              8.5913    Z=              1.0026  Tot=              8.8092
 Quadrupole moment (field-independent basis, Debye-Ang):
   XX=           -129.5848   YY=           -107.9466   ZZ=            -98.7580
   XY=              1.9786   XZ=            -10.0381   YZ=             -2.9277

 Normal termination of Gaussian 16 at Fri May  7 04:49:38 2021.
