 Gaussian 16, Revision A.03,
 Gaussian 16:  EM64L-G16RevA.03 25-Dec-2016

 -------------
 #p 6-31g* mp2
 -------------

 ------------------------------------------------------
 Input file generated by CHIRIPA (05-May-2021 14:57:24)
 ------------------------------------------------------
 Symbolic Z-matrix:
 Charge =  0 Multiplicity = 1

                         Standard orientation:
 ---------------------------------------------------------------------
 Center     Atomic      Atomic             Coordinates (Angstroms)
 Number     Number       Type             X           Y           Z
 ---------------------------------------------------------------------
      1          6           0        2.029492   -2.032220    0.556144
      2          6           0        3.217547   -1.930246    1.287341
      3          6           0        4.127501   -0.902132    1.023686
      4          6           0        3.816087    0.010818    0.017289
      5          6           0        2.640754   -0.064156   -0.728541
      6          6           0        1.745388   -1.100492   -0.447693
      7          1           0        1.328284   -2.834077    0.767636
      8          1           0        3.440808   -2.652418    2.067512
      9          1           0        5.054626   -0.799694    1.574470
     10          1           0        2.445829    0.670704   -1.500164
     11          1           0        0.823502   -1.177224   -1.017151
     12          7           0        4.771692    1.103588   -0.270932
     13          8           0        4.474007    1.895265   -1.162709
     14          8           0        5.800287    1.147733    0.400397
     15          6           0       -3.406695   -2.232509   -0.795451
     16          6           0       -2.454941   -1.281212   -1.177186
     17          6           0       -2.584389    0.052409   -0.778129
     18          6           0       -3.682944    0.401479    0.005847
     19          6           0       -4.647916   -0.523130    0.402349
     20          6           0       -4.498221   -1.851104   -0.008291
     21          1           0       -3.298272   -3.266304   -1.109948
     22          1           0       -1.606226   -1.574555   -1.788478
     23          1           0       -1.862324    0.809333   -1.059385
     24          1           0       -5.483198   -0.200566    1.012001
     25          1           0       -5.238911   -2.587748    0.289665
     26          7           0       -3.830703    1.810336    0.434441
     27          8           0       -4.807615    2.092418    1.124883
     28          8           0       -2.966807    2.605837    0.071816
 ---------------------------------------------------------------------

 SCF Done:  E(RHF) =  -868.336335618     A.U. after   16 cycles
 E2 =    -0.2599965482D+01 EUMP2 =    -0.87093630109969D+03

 The electronic state is 1-A.
 Alpha  occ. eigenvalues --  -20.61253 -20.61247 -20.60937 -20.60931 -15.86316
 Alpha  occ. eigenvalues --  -15.85997 -11.31870 -11.31484 -11.28538 -11.28450
 Alpha  occ. eigenvalues --  -11.28287 -11.28120 -11.28062 -11.27895 -11.27647
 Alpha  occ. eigenvalues --  -11.27478 -11.27236 -11.27096  -1.60326  -1.60009
 Alpha  occ. eigenvalues --   -1.39874  -1.39559  -1.20084  -1.19688  -1.09442
 Alpha  occ. eigenvalues --   -1.09065  -1.05534  -1.05124  -0.96237  -0.95873
 Alpha  occ. eigenvalues --   -0.86921  -0.86521  -0.83085  -0.82712  -0.78102
 Alpha  occ. eigenvalues --   -0.77725  -0.72529  -0.72214  -0.71653  -0.71333
 Alpha  occ. eigenvalues --   -0.71184  -0.70806  -0.65747  -0.65639  -0.65350
 Alpha  occ. eigenvalues --   -0.65113  -0.62925  -0.62419  -0.56020  -0.55635
 Alpha  occ. eigenvalues --   -0.53844  -0.53680  -0.53424  -0.53177  -0.49305
 Alpha  occ. eigenvalues --   -0.49273  -0.48984  -0.48959  -0.45237  -0.44938
 Alpha  occ. eigenvalues --   -0.38070  -0.37679  -0.37139  -0.36710
 Alpha virt. eigenvalues --    0.04456   0.04828   0.10473   0.10923   0.15760
 Alpha virt. eigenvalues --    0.16279   0.18459   0.21938   0.24598   0.27316
 Alpha virt. eigenvalues --    0.28020   0.28769   0.29446   0.31602   0.31861

 Mulliken charges:
               1
     1  C   -0.170712
     2  C   -0.218255
     3  C   -0.169694
     4  C    0.159430
     5  C   -0.170416
     6  C   -0.218939
     7  H    0.223854
     8  H    0.224487
     9  H    0.277238
    10  H    0.276518
    11  H    0.214863
    12  N    0.488137
    13  O   -0.458873
    14  O   -0.459301
    15  C   -0.171220
    16  C   -0.224037
    17  C   -0.168985
    18  C    0.158851
    19  C   -0.169248
    20  C   -0.218593
    21  H    0.226180
    22  H    0.217284
    23  H    0.275592
    24  H    0.278335
    25  H    0.225788
    26  N    0.488018
    27  O   -0.458378
    28  O   -0.457925
 Sum of Mulliken charges =  -0.00000

 Dipole moment (field-independent basis, Debye):
    X=             -2.9224    Y=             -8.7101    Z=             -0.3463  Tot=              9.1938
 Quadrupole moment (field-independent basis, Debye-Ang):
   XX=           -128.0161   YY=           -109.1642   ZZ=           -102.1692
   XY=              3.8128   XZ=              9.5606   YZ=             -2.9702

 Normal termination of Gaussian 16 at Thu May  6 17:59:36 2021.
