 Gaussian 16, Revision A.03,
 Gaussian 16:  EM64L-G16RevA.03 25-Dec-2016

 -------------
 #p 6-31g* mp2
 -------------

 ------------------------------------------------------
 Input file generated by CHIRIPA (05-May-2021 14:53:15)
 ------------------------------------------------------
 Symbolic Z-matrix:
 Charge =  0 Multiplicity = 1

                         Standard orientation:
 ---------------------------------------------------------------------
 Center     Atomic      Atomic             Coordinates (Angstroms)
 Number     Number       Type             X           Y           Z
 ---------------------------------------------------------------------
      1          6           0       -3.020232    1.128606   -0.499080
      2          6           0       -1.559998    1.546156   -0.322014
      3          6           0       -1.338136    3.038973   -0.567106
      4          1           0       -3.348401    1.387583   -1.515043
      5          1           0       -3.647107    1.711395    0.189962
      6          1           0       -0.935902    0.961767   -1.010207
      7          1           0       -1.235210    1.285980    0.693583
      8          1           0       -1.936355    3.636618    0.128275
      9          1           0       -1.635347    3.310563   -1.585195
     10          1           0       -0.287473    3.315674   -0.435188
     11          6           0       -3.257963   -0.360958   -0.257395
     12          6           0       -4.718197   -0.778509   -0.434461
     13          6           0       -4.940059   -2.271325   -0.189368
     14          1           0       -2.631088   -0.943748   -0.946437
     15          1           0       -2.929793   -0.619936    0.758568
     16          1           0       -5.042985   -0.518333   -1.450057
     17          1           0       -5.342292   -0.194120    0.253733
     18          1           0       -4.642848   -2.542915    0.828721
     19          1           0       -4.341840   -2.868971   -0.884750
     20          1           0       -5.990722   -2.548027   -0.321287
     21          6           0        0.848998    0.157055    2.189222
     22          6           0        1.520530    1.216149    1.569636
     23          6           0        2.411209    0.974728    0.519419
     24          6           0        2.607433   -0.344036    0.112420
     25          6           0        1.953355   -1.420494    0.709671
     26          6           0        1.067170   -1.155572    1.758022
     27          1           0        0.158843    0.353724    3.004331
     28          1           0        1.353052    2.236566    1.902420
     29          1           0        2.944309    1.775887    0.022058
     30          1           0        2.140913   -2.427013    0.355894
     31          1           0        0.547035   -1.980044    2.237344
     32          7           0        3.547976   -0.612055   -0.998410
     33          8           0        3.703452   -1.782908   -1.338369
     34          8           0        4.111888    0.353796   -1.508087
 ---------------------------------------------------------------------

 SCF Done:  E(RHF) =  -669.534041492     A.U. after   15 cycles
 E2 =    -0.2094003197D+01 EUMP2 =    -0.67162804468873D+03

 The electronic state is 1-A.
 Alpha  occ. eigenvalues --  -20.60800 -20.60794 -15.85853 -11.31234 -11.27801
 Alpha  occ. eigenvalues --  -11.27790 -11.27525 -11.26815 -11.26793 -11.21951
 Alpha  occ. eigenvalues --  -11.21834 -11.21787 -11.21693 -11.21512 -11.21427
 Alpha  occ. eigenvalues --   -1.59875  -1.39428  -1.19408  -1.08860  -1.08741
 Alpha  occ. eigenvalues --   -1.04813  -1.03886  -0.96362  -0.95640  -0.87375
 Alpha  occ. eigenvalues --   -0.86213  -0.82467  -0.79950  -0.78609  -0.77506
 Alpha  occ. eigenvalues --   -0.72072  -0.71199  -0.70530  -0.65444  -0.65060
 Alpha  occ. eigenvalues --   -0.64810  -0.62165  -0.61298  -0.59756  -0.57996
 Alpha  occ. eigenvalues --   -0.55658  -0.55325  -0.53267  -0.52989  -0.52874
 Alpha  occ. eigenvalues --   -0.52760  -0.50302  -0.48831  -0.48825  -0.48242
 Alpha  occ. eigenvalues --   -0.46997  -0.46144  -0.46075  -0.44831  -0.44152
 Alpha  occ. eigenvalues --   -0.37254  -0.36371
 Alpha virt. eigenvalues --    0.04973   0.11188   0.16355   0.20533   0.22792
 Alpha virt. eigenvalues --    0.23887   0.26053   0.26517   0.27004   0.28252
 Alpha virt. eigenvalues --    0.28548   0.30464   0.31153   0.31687   0.32295

 Mulliken charges:
               1
     1  C   -0.298774
     2  C   -0.299805
     3  C   -0.476588
     4  H    0.151446
     5  H    0.147316
     6  H    0.155679
     7  H    0.150031
     8  H    0.152630
     9  H    0.159310
    10  H    0.154191
    11  C   -0.296670
    12  C   -0.299796
    13  C   -0.475672
    14  H    0.151957
    15  H    0.142668
    16  H    0.154086
    17  H    0.151400
    18  H    0.152309
    19  H    0.156423
    20  H    0.161708
    21  C   -0.172571
    22  C   -0.213138
    23  C   -0.171501
    24  C    0.158502
    25  C   -0.171102
    26  C   -0.216771
    27  H    0.225628
    28  H    0.224527
    29  H    0.275647
    30  H    0.275809
    31  H    0.223806
    32  N    0.487967
    33  O   -0.460383
    34  O   -0.460271
 Sum of Mulliken charges =  -0.00000

 Dipole moment (field-independent basis, Debye):
    X=             -3.2871    Y=              0.8922    Z=              3.8729  Tot=              5.1576
 Quadrupole moment (field-independent basis, Debye-Ang):
   XX=           -112.8312   YY=            -91.9277   ZZ=            -93.5001
   XY=              4.4004   XZ=              9.9032   YZ=             -1.3513

 Normal termination of Gaussian 16 at Thu May  6 07:29:11 2021.
