 Gaussian 16, Revision A.03,
 Gaussian 16:  EM64L-G16RevA.03 25-Dec-2016

 -------------
 #p 6-31g* mp2
 -------------

 ------------------------------------------------------
 Input file generated by CHIRIPA (05-May-2021 14:57:25)
 ------------------------------------------------------
 Symbolic Z-matrix:
 Charge =  0 Multiplicity = 1

                         Standard orientation:
 ---------------------------------------------------------------------
 Center     Atomic      Atomic             Coordinates (Angstroms)
 Number     Number       Type             X           Y           Z
 ---------------------------------------------------------------------
      1          6           0       -1.082730   -0.745242    0.747153
      2          6           0       -1.778879   -1.541467   -0.168228
      3          6           0       -3.109357   -1.256374   -0.489317
      4          6           0       -3.715496   -0.162462    0.126509
      5          6           0       -3.048545    0.649643    1.042452
      6          6           0       -1.718663    0.345848    1.348512
      7          1           0       -0.049414   -0.973973    0.990745
      8          1           0       -1.287544   -2.389453   -0.636794
      9          1           0       -3.671798   -1.856190   -1.194511
     10          1           0       -3.565090    1.488300    1.493288
     11          1           0       -1.180488    0.965946    2.059772
     12          7           0       -5.123698    0.149253   -0.205458
     13          8           0       -5.635115    1.118611    0.350809
     14          8           0       -5.689364   -0.581686   -1.015634
     15          6           0        2.318333    2.408220   -0.620772
     16          6           0        1.654618    1.201743   -0.866571
     17          6           0        2.290388   -0.020055   -0.626667
     18          6           0        3.596043    0.001691   -0.138728
     19          6           0        4.283852    1.187129    0.116117
     20          6           0        3.628522    2.397082   -0.131075
     21          1           0        1.816854    3.352741   -0.809965
     22          1           0        0.637082    1.207356   -1.246880
     23          1           0        1.799976   -0.968720   -0.808179
     24          1           0        5.297910    1.149527    0.495185
     25          1           0        4.146426    3.332511    0.060736
     26          7           0        4.279458   -1.285501    0.119106
     27          8           0        5.429971   -1.239321    0.549017
     28          8           0        3.651665   -2.316212   -0.113597
 ---------------------------------------------------------------------

 SCF Done:  E(RHF) =  -868.337563758     A.U. after   16 cycles
 E2 =    -0.2601323022D+01 EUMP2 =    -0.87093888678016D+03

 The electronic state is 1-A.
 Alpha  occ. eigenvalues --  -20.61603 -20.61573 -20.61188 -20.61182 -15.86642
 Alpha  occ. eigenvalues --  -15.86245 -11.32056 -11.31698 -11.28632 -11.28531
 Alpha  occ. eigenvalues --  -11.28277 -11.28264 -11.28243 -11.27976 -11.27562
 Alpha  occ. eigenvalues --  -11.27548 -11.27294 -11.27281  -1.60664  -1.60263
 Alpha  occ. eigenvalues --   -1.40218  -1.39813  -1.20199  -1.19885  -1.09565
 Alpha  occ. eigenvalues --   -1.09263  -1.05597  -1.05288  -0.96413  -0.96071
 Alpha  occ. eigenvalues --   -0.86981  -0.86670  -0.83247  -0.82882  -0.78300
 Alpha  occ. eigenvalues --   -0.77929  -0.72855  -0.72457  -0.71994  -0.71591
 Alpha  occ. eigenvalues --   -0.71384  -0.70871  -0.65828  -0.65591  -0.65489
 Alpha  occ. eigenvalues --   -0.65262  -0.62938  -0.62612  -0.56076  -0.55770
 Alpha  occ. eigenvalues --   -0.53966  -0.53706  -0.53484  -0.53354  -0.49623
 Alpha  occ. eigenvalues --   -0.49602  -0.49223  -0.49209  -0.45613  -0.45198
 Alpha  occ. eigenvalues --   -0.38197  -0.38011  -0.37065  -0.36859
 Alpha virt. eigenvalues --    0.04090   0.04681   0.10203   0.10834   0.15524
 Alpha virt. eigenvalues --    0.16229   0.19927   0.21485   0.25495   0.27013
 Alpha virt. eigenvalues --    0.27412   0.28670   0.30407   0.30651   0.31353

 Mulliken charges:
               1
     1  C   -0.178973
     2  C   -0.224911
     3  C   -0.170388
     4  C    0.158229
     5  C   -0.172080
     6  C   -0.222176
     7  H    0.233375
     8  H    0.227941
     9  H    0.277858
    10  H    0.276357
    11  H    0.225658
    12  N    0.487985
    13  O   -0.459803
    14  O   -0.458715
    15  C   -0.172945
    16  C   -0.219266
    17  C   -0.181785
    18  C    0.159980
    19  C   -0.171381
    20  C   -0.217476
    21  H    0.229122
    22  H    0.230989
    23  H    0.269383
    24  H    0.277856
    25  H    0.226631
    26  N    0.488360
    27  O   -0.456379
    28  O   -0.463445
 Sum of Mulliken charges =  -0.00000

 Dipole moment (field-independent basis, Debye):
    X=              2.6057    Y=              3.5500    Z=              0.2691  Tot=              4.4118
 Quadrupole moment (field-independent basis, Debye-Ang):
   XX=           -155.6524   YY=           -100.5584   ZZ=           -103.0070
   XY=             22.5962   XZ=             -5.1397   YZ=              2.6449

 Normal termination of Gaussian 16 at Wed May  5 21:10:04 2021.
