 Gaussian 16, Revision A.03,
 Gaussian 16:  EM64L-G16RevA.03 25-Dec-2016

 -------------
 #p 6-31g* mp2
 -------------

 ------------------------------------------------------
 Input file generated by CHIRIPA (05-May-2021 14:51:08)
 ------------------------------------------------------
 Symbolic Z-matrix:
 Charge =  0 Multiplicity = 1

                         Standard orientation:
 ---------------------------------------------------------------------
 Center     Atomic      Atomic             Coordinates (Angstroms)
 Number     Number       Type             X           Y           Z
 ---------------------------------------------------------------------
      1          6           0       -2.434399    0.666139    0.526357
      2          6           0       -2.908952   -0.712638    0.066186
      3          6           0       -3.705726   -1.452707    1.141008
      4          1           0       -1.818020    0.552455    1.428631
      5          1           0       -3.306405    1.268088    0.817319
      6          1           0       -2.036418   -1.311332   -0.225132
      7          1           0       -3.524115   -0.595675   -0.835208
      8          1           0       -4.593552   -0.878958    1.425927
      9          1           0       -3.097402   -1.598681    2.039470
     10          1           0       -4.035143   -2.435951    0.790899
     11          6           0       -1.636418    1.418300   -0.537225
     12          6           0       -1.161865    2.797077   -0.077053
     13          6           0       -0.365090    3.537146   -1.151876
     14          1           0       -0.764412    0.816351   -0.828187
     15          1           0       -2.252797    1.531984   -1.439499
     16          1           0       -0.546701    2.680115    0.824340
     17          1           0       -2.034399    3.395771    0.214264
     18          1           0       -0.973415    3.683120   -2.050337
     19          1           0        0.522735    2.963397   -1.436795
     20          1           0       -0.035674    4.520390   -0.801767
     21          6           0        2.492601   -0.450222   -0.149308
     22          6           0        2.918194    0.328876    1.095626
     23          6           0        3.832585    1.510198    0.769806
     24          1           0        3.388743   -0.811631   -0.672050
     25          1           0        1.979976    0.231203   -0.842324
     26          1           0        3.428642   -0.354120    1.786694
     27          1           0        2.020930    0.688309    1.615568
     28          1           0        3.328717    2.213905    0.099347
     29          1           0        4.744429    1.165552    0.271446
     30          1           0        4.124698    2.053123    1.674109
     31          6           0        1.578215   -1.634217    0.160175
     32          6           0        1.152623   -2.413316   -1.084758
     33          6           0        0.238231   -3.594638   -0.758938
     34          1           0        2.090840   -2.315642    0.853192
     35          1           0        0.682073   -1.272808    0.682917
     36          1           0        2.049887   -2.772749   -1.604700
     37          1           0        0.642175   -1.730320   -1.775827
     38          1           0       -0.673612   -3.249992   -0.260579
     39          1           0        0.742100   -4.298344   -0.088479
     40          1           0       -0.053881   -4.137562   -1.663241
 ---------------------------------------------------------------------

 SCF Done:  E(RHF) =  -470.733124649     A.U. after   11 cycles
 E2 =    -0.1585261138D+01 EUMP2 =    -0.47231838578743D+03

 The electronic state is 1-A.
 Alpha  occ. eigenvalues --  -11.21671 -11.21668 -11.21658 -11.21638 -11.21481
 Alpha  occ. eigenvalues --  -11.21474 -11.21421 -11.21415 -11.21146 -11.21115
 Alpha  occ. eigenvalues --  -11.21111 -11.21093  -1.08556  -1.08447  -1.03633
 Alpha  occ. eigenvalues --   -1.03549  -0.96073  -0.96004  -0.87058  -0.87049
 Alpha  occ. eigenvalues --   -0.79675  -0.79634  -0.78334  -0.78299  -0.65583
 Alpha  occ. eigenvalues --   -0.64708  -0.61317  -0.60694  -0.59420  -0.59386
 Alpha  occ. eigenvalues --   -0.57687  -0.57615  -0.55551  -0.55114  -0.52732
 Alpha  occ. eigenvalues --   -0.52719  -0.52475  -0.52443  -0.49997  -0.49982
 Alpha  occ. eigenvalues --   -0.48097  -0.47861  -0.46759  -0.46670  -0.46117
 Alpha  occ. eigenvalues --   -0.45850  -0.45672  -0.45465  -0.43851  -0.43836
 Alpha virt. eigenvalues --    0.17862   0.20972   0.23396   0.24983   0.25353
 Alpha virt. eigenvalues --    0.25682   0.26746   0.28249   0.28946   0.29980
 Alpha virt. eigenvalues --    0.30843   0.31598   0.31694   0.31839   0.32445

 Mulliken charges:
               1
     1  C   -0.297985
     2  C   -0.309218
     3  C   -0.475835
     4  H    0.149376
     5  H    0.150124
     6  H    0.160065
     7  H    0.152455
     8  H    0.155630
     9  H    0.155185
    10  H    0.160752
    11  C   -0.304247
    12  C   -0.300076
    13  C   -0.477557
    14  H    0.154430
    15  H    0.150071
    16  H    0.152402
    17  H    0.152490
    18  H    0.155644
    19  H    0.155679
    20  H    0.160912
    21  C   -0.301507
    22  C   -0.300048
    23  C   -0.476801
    24  H    0.150363
    25  H    0.151459
    26  H    0.152310
    27  H    0.151798
    28  H    0.156326
    29  H    0.155401
    30  H    0.160530
    31  C   -0.301529
    32  C   -0.301559
    33  C   -0.480627
    34  H    0.150313
    35  H    0.151524
    36  H    0.152685
    37  H    0.153145
    38  H    0.159718
    39  H    0.155479
    40  H    0.160721
 Sum of Mulliken charges =  -0.00000

 Dipole moment (field-independent basis, Debye):
    X=             -0.0037    Y=             -0.0061    Z=             -0.0057  Tot=              0.0091
 Quadrupole moment (field-independent basis, Debye-Ang):
   XX=            -84.0212   YY=            -85.3764   ZZ=            -85.1025
   XY=             -1.8669   XZ=              0.8548   YZ=              0.3007

 Normal termination of Gaussian 16 at Wed May  5 19:40:54 2021.
