 Gaussian 16, Revision A.03,
 Gaussian 16:  EM64L-G16RevA.03 25-Dec-2016

 -------------
 #p 6-31g* mp2
 -------------

 ------------------------------------------------------
 Input file generated by CHIRIPA (05-May-2021 14:57:23)
 ------------------------------------------------------
 Symbolic Z-matrix:
 Charge =  0 Multiplicity = 1

                         Standard orientation:
 ---------------------------------------------------------------------
 Center     Atomic      Atomic             Coordinates (Angstroms)
 Number     Number       Type             X           Y           Z
 ---------------------------------------------------------------------
      1          6           0        4.095922   -1.773836    0.290146
      2          6           0        3.001081   -1.682059   -0.575545
      3          6           0        2.342303   -0.462875   -0.760348
      4          6           0        2.807111    0.649464   -0.060387
      5          6           0        3.895131    0.590002    0.809076
      6          6           0        4.538672   -0.639513    0.978480
      7          1           0        4.601758   -2.724939    0.427724
      8          1           0        2.655044   -2.561341   -1.111424
      9          1           0        1.492245   -0.363609   -1.424401
     10          1           0        4.216995    1.483876    1.329470
     11          1           0        5.388682   -0.707830    1.651430
     12          7           0        2.117757    1.945627   -0.247878
     13          8           0        2.546741    2.910941    0.380436
     14          8           0        1.161512    1.971703   -1.019598
     15          6           0       -4.525043    1.464962    0.452612
     16          6           0       -3.925458    1.321351   -0.802933
     17          6           0       -3.034998    0.271947   -1.048660
     18          6           0       -2.765625   -0.619603   -0.011419
     19          6           0       -3.347029   -0.503149    1.250205
     20          6           0       -4.234427    0.553860    1.473375
     21          1           0       -5.215585    2.283117    0.634737
     22          1           0       -4.149289    2.027426   -1.597542
     23          1           0       -2.556722    0.137272   -2.011225
     24          1           0       -3.104242   -1.222792    2.022596
     25          1           0       -4.698594    0.662927    2.449437
     26          7           0       -1.824556   -1.734586   -0.259619
     27          8           0       -1.603836   -2.506710    0.670833
     28          8           0       -1.325484   -1.815271   -1.379911
 ---------------------------------------------------------------------

 SCF Done:  E(RHF) =  -868.340703847     A.U. after   16 cycles
 E2 =    -0.2598516568D+01 EUMP2 =    -0.87093922041509D+03

 The electronic state is 1-A.
 Alpha  occ. eigenvalues --  -20.60990 -20.60948 -20.60364 -20.60354 -15.85988
 Alpha  occ. eigenvalues --  -15.85403 -11.30968 -11.30481 -11.27541 -11.27477
 Alpha  occ. eigenvalues --  -11.27208 -11.27087 -11.26882 -11.26735 -11.26482
 Alpha  occ. eigenvalues --  -11.26410 -11.26067 -11.25862  -1.60033  -1.59441
 Alpha  occ. eigenvalues --   -1.39597  -1.39002  -1.19116  -1.18632  -1.08591
 Alpha  occ. eigenvalues --   -1.08093  -1.04467  -1.03970  -0.95487  -0.94968
 Alpha  occ. eigenvalues --   -0.85891  -0.85397  -0.82339  -0.81797  -0.77419
 Alpha  occ. eigenvalues --   -0.76869  -0.72234  -0.71639  -0.71326  -0.70757
 Alpha  occ. eigenvalues --   -0.70244  -0.69740  -0.64785  -0.64484  -0.64281
 Alpha  occ. eigenvalues --   -0.63964  -0.61828  -0.61302  -0.55008  -0.54521
 Alpha  occ. eigenvalues --   -0.52803  -0.52570  -0.52346  -0.52047  -0.48996
 Alpha  occ. eigenvalues --   -0.48957  -0.48395  -0.48364  -0.45080  -0.44470
 Alpha  occ. eigenvalues --   -0.37079  -0.36630  -0.36034  -0.35558
 Alpha virt. eigenvalues --    0.05061   0.05623   0.11618   0.12077   0.16611
 Alpha virt. eigenvalues --    0.17174   0.21677   0.22292   0.27606   0.28091
 Alpha virt. eigenvalues --    0.28547   0.29199   0.31226   0.31804   0.32562

 Mulliken charges:
               1
     1  C   -0.170779
     2  C   -0.216847
     3  C   -0.174057
     4  C    0.156686
     5  C   -0.172390
     6  C   -0.219141
     7  H    0.224526
     8  H    0.232279
     9  H    0.284298
    10  H    0.272014
    11  H    0.220401
    12  N    0.488273
    13  O   -0.463544
    14  O   -0.464416
    15  C   -0.168964
    16  C   -0.216463
    17  C   -0.163809
    18  C    0.157536
    19  C   -0.170755
    20  C   -0.218498
    21  H    0.226134
    22  H    0.225637
    23  H    0.276276
    24  H    0.273453
    25  H    0.222652
    26  N    0.489129
    27  O   -0.460780
    28  O   -0.468851
 Sum of Mulliken charges =  -0.00000

 Dipole moment (field-independent basis, Debye):
    X=             -1.1120    Y=             -0.7041    Z=              1.4428  Tot=              1.9530
 Quadrupole moment (field-independent basis, Debye-Ang):
   XX=            -72.0429   YY=           -115.4205   ZZ=            -99.0444
   XY=            -19.5401   XZ=              0.8251   YZ=             -0.0173

 Normal termination of Gaussian 16 at Fri May  7 07:58:14 2021.
