 Gaussian 16, Revision A.03,
 Gaussian 16:  EM64L-G16RevA.03 25-Dec-2016

 -------------
 #p 6-31g* mp2
 -------------

 ------------------------------------------------------
 Input file generated by CHIRIPA (05-May-2021 14:55:23)
 ------------------------------------------------------
 Symbolic Z-matrix:
 Charge =  0 Multiplicity = 1

                         Standard orientation:
 ---------------------------------------------------------------------
 Center     Atomic      Atomic             Coordinates (Angstroms)
 Number     Number       Type             X           Y           Z
 ---------------------------------------------------------------------
      1          6           0       -1.781279    1.114170    2.176805
      2          6           0       -2.279928    1.606704    0.966317
      3          6           0       -2.284653    0.804424   -0.178615
      4          6           0       -1.780849   -0.491375   -0.076751
      5          6           0       -1.277253   -1.010803    1.114835
      6          6           0       -1.282412   -0.190712    2.247076
      7          1           0       -1.781448    1.744319    3.061287
      8          1           0       -2.667980    2.619696    0.908798
      9          1           0       -2.664708    1.160401   -1.128487
     10          1           0       -0.897022   -2.024781    1.141131
     11          1           0       -0.894528   -0.575875    3.185820
     12          7           0       -1.780619   -1.350142   -1.282122
     13          8           0       -1.331197   -2.488216   -1.166172
     14          8           0       -2.229866   -0.868908   -2.320018
     15          6           0        1.808630    1.044937   -0.084607
     16          6           0        2.124955    2.185780   -1.052284
     17          6           0        1.174264    3.373191   -0.897249
     18          1           0        0.774263    0.711836   -0.246078
     19          1           0        1.857935    1.423199    0.945869
     20          1           0        2.076426    1.805147   -2.080574
     21          1           0        3.158752    2.516075   -0.888622
     22          1           0        1.228380    3.780054    0.117708
     23          1           0        0.139904    3.065086   -1.081018
     24          1           0        1.418449    4.177210   -1.598525
     25          6           0        2.750440   -0.149345   -0.227479
     26          6           0        2.434116   -1.290189    0.740197
     27          6           0        3.384807   -2.477600    0.585162
     28          1           0        2.701136   -0.527608   -1.257956
     29          1           0        3.784808    0.183755   -0.066009
     30          1           0        1.400319   -1.620484    0.576534
     31          1           0        2.482646   -0.909556    1.768487
     32          1           0        4.419167   -2.169495    0.768931
     33          1           0        3.330691   -2.884464   -0.429794
     34          1           0        3.140622   -3.281619    1.286438
 ---------------------------------------------------------------------

 SCF Done:  E(RHF) =  -669.533563603     A.U. after   15 cycles
 E2 =    -0.2096870640D+01 EUMP2 =    -0.67163043424377D+03

 The electronic state is 1-A.
 Alpha  occ. eigenvalues --  -20.60907 -20.60898 -15.85946 -11.31252 -11.27868
 Alpha  occ. eigenvalues --  -11.27835 -11.27599 -11.26880 -11.26852 -11.21593
 Alpha  occ. eigenvalues --  -11.21577 -11.21296 -11.21223 -11.21217 -11.20968
 Alpha  occ. eigenvalues --   -1.59977  -1.39530  -1.19489  -1.08867  -1.08387
 Alpha  occ. eigenvalues --   -1.04880  -1.03522  -0.95968  -0.95708  -0.86994
 Alpha  occ. eigenvalues --   -0.86272  -0.82534  -0.79622  -0.78242  -0.77578
 Alpha  occ. eigenvalues --   -0.72165  -0.71314  -0.70588  -0.65131  -0.65071
 Alpha  occ. eigenvalues --   -0.64837  -0.62258  -0.60902  -0.59341  -0.57603
 Alpha  occ. eigenvalues --   -0.55379  -0.55267  -0.53411  -0.52969  -0.52626
 Alpha  occ. eigenvalues --   -0.52376  -0.49911  -0.48927  -0.48922  -0.47939
 Alpha  occ. eigenvalues --   -0.46651  -0.45704  -0.45542  -0.44898  -0.43754
 Alpha  occ. eigenvalues --   -0.37389  -0.36387
 Alpha virt. eigenvalues --    0.04891   0.11072   0.16344   0.20992   0.22990
 Alpha virt. eigenvalues --    0.23947   0.26361   0.26834   0.27393   0.27997
 Alpha virt. eigenvalues --    0.28792   0.30238   0.31362   0.31805   0.31991

 Mulliken charges:
               1
     1  C   -0.170902
     2  C   -0.213623
     3  C   -0.175097
     4  C    0.158707
     5  C   -0.172362
     6  C   -0.213669
     7  H    0.226264
     8  H    0.224754
     9  H    0.275958
    10  H    0.276559
    11  H    0.224431
    12  N    0.488819
    13  O   -0.461584
    14  O   -0.459960
    15  C   -0.303290
    16  C   -0.299621
    17  C   -0.475027
    18  H    0.158028
    19  H    0.144064
    20  H    0.155583
    21  H    0.151089
    22  H    0.150759
    23  H    0.151711
    24  H    0.160458
    25  C   -0.298868
    26  C   -0.303443
    27  C   -0.474913
    28  H    0.154822
    29  H    0.148385
    30  H    0.154464
    31  H    0.144481
    32  H    0.153947
    33  H    0.161673
    34  H    0.157403
 Sum of Mulliken charges =  -0.00000

 Dipole moment (field-independent basis, Debye):
    X=             -0.1127    Y=              2.9577    Z=              4.2212  Tot=              5.1556
 Quadrupole moment (field-independent basis, Debye-Ang):
   XX=            -94.6706   YY=            -96.2668   ZZ=            -93.8973
   XY=             -6.5976   XZ=             -6.3424   YZ=             -4.0812

 Normal termination of Gaussian 16 at Thu May  6 17:37:41 2021.
