 Gaussian 16, Revision A.03,
 Gaussian 16:  EM64L-G16RevA.03 25-Dec-2016

 -------------
 #p 6-31g* mp2
 -------------

 ------------------------------------------------------
 Input file generated by CHIRIPA (05-May-2021 14:57:24)
 ------------------------------------------------------
 Symbolic Z-matrix:
 Charge =  0 Multiplicity = 1

                         Standard orientation:
 ---------------------------------------------------------------------
 Center     Atomic      Atomic             Coordinates (Angstroms)
 Number     Number       Type             X           Y           Z
 ---------------------------------------------------------------------
      1          6           0        2.230141    2.545914    0.587611
      2          6           0        1.205796    1.628402    0.331859
      3          6           0        1.505452    0.324719   -0.074545
      4          6           0        2.846385   -0.029191   -0.215736
      5          6           0        3.889330    0.862107    0.031536
      6          6           0        3.566284    2.160517    0.436900
      7          1           0        1.988276    3.556598    0.902912
      8          1           0        0.167233    1.924925    0.448075
      9          1           0        0.732171   -0.405742   -0.279193
     10          1           0        4.915166    0.537213   -0.093052
     11          1           0        4.363873    2.870957    0.634823
     12          7           0        3.175999   -1.406551   -0.645427
     13          8           0        4.365346   -1.693604   -0.762439
     14          8           0        2.238762   -2.172991   -0.857071
     15          6           0       -1.803108   -2.021296    1.581167
     16          6           0       -2.473881   -2.348347    0.398111
     17          6           0       -3.025774   -1.346237   -0.405467
     18          6           0       -2.887670   -0.021527    0.006066
     19          6           0       -2.225118    0.336182    1.179250
     20          6           0       -1.681082   -0.682435    1.967280
     21          1           0       -1.377436   -2.806171    2.199367
     22          1           0       -2.570177   -3.387270    0.095769
     23          1           0       -3.550145   -1.571317   -1.326224
     24          1           0       -2.145233    1.380827    1.454483
     25          1           0       -1.160683   -0.425496    2.885545
     26          7           0       -3.467774    1.048100   -0.836415
     27          8           0       -3.332506    2.207576   -0.451769
     28          8           0       -4.046746    0.706743   -1.865446
 ---------------------------------------------------------------------

 SCF Done:  E(RHF) =  -868.338408056     A.U. after   16 cycles
 E2 =    -0.2601818704D+01 EUMP2 =    -0.87094022676019D+03

 The electronic state is 1-A.
 Alpha  occ. eigenvalues --  -20.61413 -20.61372 -20.60973 -20.60954 -15.86442
 Alpha  occ. eigenvalues --  -15.86016 -11.31828 -11.31271 -11.28430 -11.28262
 Alpha  occ. eigenvalues --  -11.27962 -11.27850 -11.27781 -11.27552 -11.27372
 Alpha  occ. eigenvalues --  -11.27239 -11.26832 -11.26767  -1.60466  -1.60044
 Alpha  occ. eigenvalues --   -1.40021  -1.39600  -1.19975  -1.19440  -1.09323
 Alpha  occ. eigenvalues --   -1.08856  -1.05370  -1.04810  -0.96168  -0.95704
 Alpha  occ. eigenvalues --   -0.86735  -0.86220  -0.82994  -0.82537  -0.78085
 Alpha  occ. eigenvalues --   -0.77596  -0.72648  -0.72239  -0.71797  -0.71368
 Alpha  occ. eigenvalues --   -0.71003  -0.70537  -0.65584  -0.65335  -0.65089
 Alpha  occ. eigenvalues --   -0.64802  -0.62721  -0.62148  -0.55756  -0.55345
 Alpha  occ. eigenvalues --   -0.53662  -0.53426  -0.53149  -0.52861  -0.49424
 Alpha  occ. eigenvalues --   -0.49398  -0.48995  -0.48984  -0.45419  -0.45031
 Alpha  occ. eigenvalues --   -0.37905  -0.37427  -0.37090  -0.36272
 Alpha virt. eigenvalues --    0.04406   0.04931   0.10528   0.11265   0.15868
 Alpha virt. eigenvalues --    0.16537   0.20372   0.21809   0.25734   0.27388
 Alpha virt. eigenvalues --    0.27972   0.28595   0.30108   0.31258   0.31902

 Mulliken charges:
               1
     1  C   -0.171257
     2  C   -0.224226
     3  C   -0.174939
     4  C    0.157211
     5  C   -0.171060
     6  C   -0.219029
     7  H    0.227578
     8  H    0.226833
     9  H    0.278788
    10  H    0.275256
    11  H    0.223737
    12  N    0.488143
    13  O   -0.460178
    14  O   -0.463340
    15  C   -0.169637
    16  C   -0.214495
    17  C   -0.171337
    18  C    0.158175
    19  C   -0.185451
    20  C   -0.219024
    21  H    0.232562
    22  H    0.230692
    23  H    0.279114
    24  H    0.270783
    25  H    0.226543
    26  N    0.488908
    27  O   -0.465306
    28  O   -0.455045
 Sum of Mulliken charges =  -0.00000

 Dipole moment (field-independent basis, Debye):
    X=              0.6937    Y=              0.8121    Z=              4.4698  Tot=              4.5956
 Quadrupole moment (field-independent basis, Debye-Ang):
   XX=           -118.3600   YY=           -102.6216   ZZ=           -104.3565
   XY=             28.2206   XZ=             -2.3974   YZ=              1.1566

 Normal termination of Gaussian 16 at Thu May  6 03:29:35 2021.
