 Gaussian 16, Revision A.03,
 Gaussian 16:  EM64L-G16RevA.03 25-Dec-2016

 -------------
 #p 6-31g* mp2
 -------------

 ------------------------------------------------------
 Input file generated by CHIRIPA (05-May-2021 14:55:25)
 ------------------------------------------------------
 Symbolic Z-matrix:
 Charge =  0 Multiplicity = 1

                         Standard orientation:
 ---------------------------------------------------------------------
 Center     Atomic      Atomic             Coordinates (Angstroms)
 Number     Number       Type             X           Y           Z
 ---------------------------------------------------------------------
      1          6           0       -3.433990    1.120468   -1.613504
      2          6           0       -2.526656    0.127599   -1.997532
      3          6           0       -1.863052   -0.638642   -1.034697
      4          6           0       -2.131882   -0.384112    0.309266
      5          6           0       -3.030354    0.597967    0.723461
      6          6           0       -3.682505    1.352075   -0.256625
      7          1           0       -3.945045    1.710990   -2.368158
      8          1           0       -2.331693   -0.054469   -3.050568
      9          1           0       -1.155749   -1.413589   -1.304134
     10          1           0       -3.204015    0.756292    1.780908
     11          1           0       -4.386641    2.122490    0.044537
     12          7           0       -1.435417   -1.188875    1.337708
     13          8           0       -1.689723   -0.945072    2.515216
     14          8           0       -0.648409   -2.048213    0.946819
     15          6           0        3.164954   -0.377544   -0.076070
     16          6           0        2.567003   -1.425138   -1.015745
     17          6           0        3.155643   -2.819356   -0.797905
     18          1           0        4.253603   -0.344048   -0.219831
     19          1           0        2.996468   -0.689290    0.964037
     20          1           0        2.735351   -1.110820   -2.053762
     21          1           0        1.479629   -1.456009   -0.869866
     22          1           0        2.975014   -3.157883    0.227459
     23          1           0        4.237870   -2.810734   -0.963163
     24          1           0        2.714124   -3.552610   -1.480006
     25          6           0        2.586516    1.021327   -0.281731
     26          6           0        3.184467    2.068920    0.657943
     27          6           0        2.595828    3.463138    0.440104
     28          1           0        2.755002    1.333073   -1.321838
     29          1           0        1.497868    0.987830   -0.137971
     30          1           0        4.271841    2.099791    0.512065
     31          1           0        3.016120    1.754602    1.695960
     32          1           0        1.513601    3.454516    0.605361
     33          1           0        2.776457    3.801665   -0.585261
     34          1           0        3.037346    4.196392    1.122204
 ---------------------------------------------------------------------

 SCF Done:  E(RHF) =  -669.536216594     A.U. after   15 cycles
 E2 =    -0.2092359696D+01 EUMP2 =    -0.67162857628959D+03

 The electronic state is 1-A.
 Alpha  occ. eigenvalues --  -20.60979 -20.60972 -15.86004 -11.31315 -11.27866
 Alpha  occ. eigenvalues --  -11.27862 -11.27593 -11.26868 -11.26856 -11.21287
 Alpha  occ. eigenvalues --  -11.21037 -11.20960 -11.20896 -11.20784 -11.20356
 Alpha  occ. eigenvalues --   -1.60038  -1.39595  -1.19474  -1.08881  -1.07962
 Alpha  occ. eigenvalues --   -1.04864  -1.03057  -0.95727  -0.95518  -0.86536
 Alpha  occ. eigenvalues --   -0.86267  -0.82558  -0.79156  -0.77827  -0.77574
 Alpha  occ. eigenvalues --   -0.72230  -0.71354  -0.70579  -0.65135  -0.64877
 Alpha  occ. eigenvalues --   -0.64556  -0.62219  -0.60421  -0.58910  -0.57140
 Alpha  occ. eigenvalues --   -0.55368  -0.54792  -0.53196  -0.52959  -0.52225
 Alpha  occ. eigenvalues --   -0.51952  -0.49457  -0.49002  -0.48980  -0.47469
 Alpha  occ. eigenvalues --   -0.46176  -0.45443  -0.45248  -0.44789  -0.43322
 Alpha  occ. eigenvalues --   -0.37446  -0.36455
 Alpha virt. eigenvalues --    0.04874   0.11115   0.16374   0.21044   0.23257
 Alpha virt. eigenvalues --    0.24544   0.26057   0.27351   0.27719   0.28315
 Alpha virt. eigenvalues --    0.28731   0.30529   0.31521   0.32034   0.32484

 Mulliken charges:
               1
     1  C   -0.170340
     2  C   -0.218948
     3  C   -0.171285
     4  C    0.156997
     5  C   -0.171002
     6  C   -0.218457
     7  H    0.226206
     8  H    0.224487
     9  H    0.279060
    10  H    0.275786
    11  H    0.223958
    12  N    0.488688
    13  O   -0.458901
    14  O   -0.461366
    15  C   -0.298472
    16  C   -0.307312
    17  C   -0.474636
    18  H    0.146932
    19  H    0.158280
    20  H    0.143007
    21  H    0.163016
    22  H    0.165265
    23  H    0.150812
    24  H    0.156074
    25  C   -0.297520
    26  C   -0.299915
    27  C   -0.475204
    28  H    0.145407
    29  H    0.146187
    30  H    0.151402
    31  H    0.155549
    32  H    0.153575
    33  H    0.152883
    34  H    0.159787
 Sum of Mulliken charges =  -0.00000

 Dipole moment (field-independent basis, Debye):
    X=             -2.6082    Y=              2.7527    Z=             -3.4734  Tot=              5.1424
 Quadrupole moment (field-independent basis, Debye-Ang):
   XX=            -83.4869   YY=            -97.4717   ZZ=            -94.3207
   XY=             -6.3472   XZ=              5.1532   YZ=              4.0354

 Normal termination of Gaussian 16 at Thu May  6 14:24:49 2021.
