 Gaussian 16, Revision A.03,
 Gaussian 16:  EM64L-G16RevA.03 25-Dec-2016

 -------------
 #p 6-31g* mp2
 -------------

 ------------------------------------------------------
 Input file generated by CHIRIPA (05-May-2021 14:57:24)
 ------------------------------------------------------
 Symbolic Z-matrix:
 Charge =  0 Multiplicity = 1

                         Standard orientation:
 ---------------------------------------------------------------------
 Center     Atomic      Atomic             Coordinates (Angstroms)
 Number     Number       Type             X           Y           Z
 ---------------------------------------------------------------------
      1          6           0       -2.051429   -0.281066    0.730757
      2          6           0       -2.617529    0.996820    0.786060
      3          6           0       -3.955303    1.196656    0.432543
      4          6           0       -4.701271    0.091245    0.026478
      5          6           0       -4.165891   -1.194199   -0.039029
      6          6           0       -2.826051   -1.370576    0.319115
      7          1           0       -1.011411   -0.427192    1.007175
      8          1           0       -2.018334    1.844789    1.105371
      9          1           0       -4.418830    2.175140    0.466173
     10          1           0       -4.788349   -2.020098   -0.361294
     11          1           0       -2.389058   -2.364133    0.275204
     12          7           0       -6.118606    0.290386   -0.350224
     13          8           0       -6.754570   -0.699860   -0.704624
     14          8           0       -6.566712    1.432947   -0.283950
     15          6           0        6.729127    1.058966   -0.145163
     16          6           0        5.565022    1.830284   -0.225491
     17          6           0        4.306668    1.221869   -0.195081
     18          6           0        4.249048   -0.166450   -0.083091
     19          6           0        5.390685   -0.962210   -0.001116
     20          6           0        6.638403   -0.332366   -0.033429
     21          1           0        7.702515    1.539922   -0.169526
     22          1           0        5.632449    2.911005   -0.312328
     23          1           0        3.389409    1.794926   -0.255555
     24          1           0        5.291535   -2.037481    0.084796
     25          1           0        7.540780   -0.933903    0.029134
     26          7           0        2.922516   -0.821895   -0.049890
     27          8           0        2.898715   -2.046733    0.049322
     28          8           0        1.931697   -0.098385   -0.123708
 ---------------------------------------------------------------------

 SCF Done:  E(RHF) =  -868.340473458     A.U. after   16 cycles
 E2 =    -0.2597983076D+01 EUMP2 =    -0.87093845653369D+03

 The electronic state is 1-A.
 Alpha  occ. eigenvalues --  -20.61866 -20.61843 -20.60006 -20.59999 -15.86874
 Alpha  occ. eigenvalues --  -15.85054 -11.31953 -11.30193 -11.28496 -11.28473
 Alpha  occ. eigenvalues --  -11.28165 -11.27434 -11.27419 -11.26789 -11.26754
 Alpha  occ. eigenvalues --  -11.26222 -11.25669 -11.25602  -1.60916  -1.59087
 Alpha  occ. eigenvalues --   -1.40477  -1.38647  -1.20096  -1.18335  -1.09544
 Alpha  occ. eigenvalues --   -1.07720  -1.05455  -1.03723  -0.96428  -0.94598
 Alpha  occ. eigenvalues --   -0.86866  -0.85101  -0.83271  -0.81460  -0.78350
 Alpha  occ. eigenvalues --   -0.76582  -0.73115  -0.72210  -0.71275  -0.71198
 Alpha  occ. eigenvalues --   -0.70410  -0.69302  -0.65751  -0.65452  -0.63965
 Alpha  occ. eigenvalues --   -0.63704  -0.62806  -0.61092  -0.55962  -0.54039
 Alpha  occ. eigenvalues --   -0.53797  -0.53540  -0.52048  -0.51797  -0.49874
 Alpha  occ. eigenvalues --   -0.49838  -0.48044  -0.48010  -0.45941  -0.44105
 Alpha  occ. eigenvalues --   -0.38055  -0.37045  -0.36220  -0.35355
 Alpha virt. eigenvalues --    0.04157   0.05972   0.10615   0.12324   0.15708
 Alpha virt. eigenvalues --    0.17546   0.20787   0.22663   0.26717   0.27645
 Alpha virt. eigenvalues --    0.28342   0.29667   0.30408   0.31820   0.32397

 Mulliken charges:
               1
     1  C   -0.172467
     2  C   -0.220821
     3  C   -0.172244
     4  C    0.156675
     5  C   -0.172052
     6  C   -0.220921
     7  H    0.246985
     8  H    0.220381
     9  H    0.271421
    10  H    0.272535
    11  H    0.225953
    12  N    0.488364
    13  O   -0.462915
    14  O   -0.463774
    15  C   -0.169678
    16  C   -0.218415
    17  C   -0.170541
    18  C    0.157672
    19  C   -0.170262
    20  C   -0.218487
    21  H    0.228222
    22  H    0.225468
    23  H    0.274294
    24  H    0.276476
    25  H    0.225803
    26  N    0.490048
    27  O   -0.458331
    28  O   -0.469389
 Sum of Mulliken charges =  -0.00000

 Dipole moment (field-independent basis, Debye):
    X=             10.3417    Y=              1.5275    Z=              1.2310  Tot=             10.5261
 Quadrupole moment (field-independent basis, Debye-Ang):
   XX=           -112.4992   YY=            -97.0014   ZZ=           -106.2667
   XY=             11.4908   XZ=             -6.8096   YZ=              0.5361

 Normal termination of Gaussian 16 at Wed May  5 19:27:19 2021.
