 Gaussian 16, Revision A.03,
 Gaussian 16:  EM64L-G16RevA.03 25-Dec-2016

 -------------
 #p 6-31g* mp2
 -------------

 ------------------------------------------------------
 Input file generated by CHIRIPA (05-May-2021 14:53:17)
 ------------------------------------------------------
 Symbolic Z-matrix:
 Charge =  0 Multiplicity = 1

                         Standard orientation:
 ---------------------------------------------------------------------
 Center     Atomic      Atomic             Coordinates (Angstroms)
 Number     Number       Type             X           Y           Z
 ---------------------------------------------------------------------
      1          6           0       -4.071704    0.099501    0.202359
      2          6           0       -4.210773   -1.127766   -0.699007
      3          6           0       -5.478848   -1.932054   -0.411080
      4          1           0       -4.072619   -0.222827    1.252620
      5          1           0       -4.952718    0.743131    0.072166
      6          1           0       -3.329106   -1.768206   -0.568183
      7          1           0       -4.209335   -0.802496   -1.747250
      8          1           0       -6.369654   -1.313362   -0.560358
      9          1           0       -5.484424   -2.284559    0.625409
     10          1           0       -5.558206   -2.804836   -1.066683
     11          6           0       -2.808915    0.913759   -0.073457
     12          6           0       -2.669846    2.141026    0.827909
     13          6           0       -1.401772    2.945315    0.539981
     14          1           0       -1.927901    0.270129    0.056735
     15          1           0       -2.808001    1.236088   -1.123719
     16          1           0       -2.671284    1.815757    1.876152
     17          1           0       -3.551513    2.781467    0.697084
     18          1           0       -1.396195    3.297819   -0.496508
     19          1           0       -0.510965    2.326622    0.689259
     20          1           0       -1.322414    3.818096    1.195585
     21          6           0        3.457792    1.946898   -0.583915
     22          6           0        2.092601    1.642321   -0.581373
     23          6           0        1.654516    0.347687   -0.287176
     24          6           0        2.613296   -0.622289    0.001231
     25          6           0        3.980437   -0.349919    0.006687
     26          6           0        4.395700    0.951561   -0.290395
     27          1           0        3.789243    2.955260   -0.813575
     28          1           0        1.361960    2.413306   -0.808952
     29          1           0        0.603778    0.084464   -0.278160
     30          1           0        4.685075   -1.139626    0.237481
     31          1           0        5.456570    1.185224   -0.291630
     32          7           0        2.161596   -1.996483    0.314211
     33          8           0        3.026292   -2.833176    0.564978
     34          8           0        0.951411   -2.210864    0.302832
 ---------------------------------------------------------------------

 SCF Done:  E(RHF) =  -669.535093021     A.U. after   15 cycles
 E2 =    -0.2092810486D+01 EUMP2 =    -0.67162790350627D+03

 The electronic state is 1-A.
 Alpha  occ. eigenvalues --  -20.60778 -20.60771 -15.85827 -11.31161 -11.27729
 Alpha  occ. eigenvalues --  -11.27695 -11.27445 -11.26743 -11.26656 -11.22049
 Alpha  occ. eigenvalues --  -11.21865 -11.21714 -11.21435 -11.21374 -11.20852
 Alpha  occ. eigenvalues --   -1.59851  -1.39406  -1.19329  -1.08728  -1.08622
 Alpha  occ. eigenvalues --   -1.04733  -1.03726  -0.96227  -0.95570  -0.87263
 Alpha  occ. eigenvalues --   -0.86116  -0.82412  -0.79842  -0.78396  -0.77437
 Alpha  occ. eigenvalues --   -0.72048  -0.71172  -0.70443  -0.65263  -0.64977
 Alpha  occ. eigenvalues --   -0.64729  -0.62150  -0.61069  -0.59608  -0.57804
 Alpha  occ. eigenvalues --   -0.55539  -0.55226  -0.53147  -0.53012  -0.52841
 Alpha  occ. eigenvalues --   -0.52414  -0.50166  -0.48806  -0.48804  -0.48116
 Alpha  occ. eigenvalues --   -0.46833  -0.45929  -0.45790  -0.44818  -0.43968
 Alpha  occ. eigenvalues --   -0.37306  -0.36303
 Alpha virt. eigenvalues --    0.05036   0.11318   0.16436   0.20186   0.22856
 Alpha virt. eigenvalues --    0.24045   0.25002   0.26163   0.27153   0.28358
 Alpha virt. eigenvalues --    0.30213   0.30324   0.31326   0.31550   0.31961

 Mulliken charges:
               1
     1  C   -0.297473
     2  C   -0.302729
     3  C   -0.475984
     4  H    0.152793
     5  H    0.148923
     6  H    0.161925
     7  H    0.149910
     8  H    0.153143
     9  H    0.156778
    10  H    0.161836
    11  C   -0.307377
    12  C   -0.299002
    13  C   -0.485491
    14  H    0.155132
    15  H    0.148033
    16  H    0.156582
    17  H    0.154284
    18  H    0.151400
    19  H    0.153678
    20  H    0.164239
    21  C   -0.171756
    22  C   -0.224584
    23  C   -0.179783
    24  C    0.157043
    25  C   -0.170360
    26  C   -0.218833
    27  H    0.225827
    28  H    0.231370
    29  H    0.286640
    30  H    0.275443
    31  H    0.223298
    32  N    0.487292
    33  O   -0.460124
    34  O   -0.462073
 Sum of Mulliken charges =  -0.00000

 Dipole moment (field-independent basis, Debye):
    X=              1.4790    Y=              4.7736    Z=             -1.0510  Tot=              5.1068
 Quadrupole moment (field-independent basis, Debye-Ang):
   XX=            -82.0118   YY=           -101.1072   ZZ=            -95.0665
   XY=              9.5997   XZ=             -2.0718   YZ=              0.2351

 Normal termination of Gaussian 16 at Thu May  6 04:22:27 2021.
