 Gaussian 16, Revision A.03,
 Gaussian 16:  EM64L-G16RevA.03 25-Dec-2016

 -------------
 #p 6-31g* mp2
 -------------

 ------------------------------------------------------
 Input file generated by CHIRIPA (05-May-2021 14:57:22)
 ------------------------------------------------------
 Symbolic Z-matrix:
 Charge =  0 Multiplicity = 1

                         Standard orientation:
 ---------------------------------------------------------------------
 Center     Atomic      Atomic             Coordinates (Angstroms)
 Number     Number       Type             X           Y           Z
 ---------------------------------------------------------------------
      1          6           0        1.909723   -2.305126    0.422988
      2          6           0        3.086894   -2.102296    1.150758
      3          6           0        3.858176   -0.954044    0.947810
      4          6           0        3.420698   -0.025106    0.004954
      5          6           0        2.252578   -0.198687   -0.735759
      6          6           0        1.497049   -1.354351   -0.516292
      7          1           0        1.316691   -3.199995    0.587060
      8          1           0        3.409816   -2.838984    1.880865
      9          1           0        4.773672   -0.771868    1.497444
     10          1           0        1.956325    0.553558   -1.456717
     11          1           0        0.583280   -1.509235   -1.082932
     12          7           0        4.228881    1.194420   -0.218643
     13          8           0        3.821804    1.997722   -1.055083
     14          8           0        5.254108    1.323892    0.446776
     15          6           0       -3.178711    2.673327    0.562481
     16          6           0       -2.292396    2.145490   -0.382165
     17          6           0       -2.343592    0.791015   -0.724690
     18          6           0       -3.298017   -0.010490   -0.100224
     19          6           0       -4.194749    0.485782    0.844695
     20          6           0       -4.125389    1.843252    1.171821
     21          1           0       -3.131885    3.726679    0.822582
     22          1           0       -1.556156    2.787777   -0.856993
     23          1           0       -1.669505    0.356239   -1.452697
     24          1           0       -4.917732   -0.179352    1.301105
     25          1           0       -4.814978    2.250438    1.905793
     26          7           0       -3.361830   -1.445998   -0.454690
     27          8           0       -4.211914   -2.131127    0.109751
     28          8           0       -2.560555   -1.858838   -1.290249
 ---------------------------------------------------------------------

 SCF Done:  E(RHF) =  -868.339686277     A.U. after   16 cycles
 E2 =    -0.2599160312D+01 EUMP2 =    -0.87093884658935D+03

 The electronic state is 1-A.
 Alpha  occ. eigenvalues --  -20.61651 -20.61591 -20.60820 -20.60803 -15.86648
 Alpha  occ. eigenvalues --  -15.85861 -11.31777 -11.31097 -11.28362 -11.28278
 Alpha  occ. eigenvalues --  -11.27947 -11.27657 -11.27626 -11.27243 -11.27236
 Alpha  occ. eigenvalues --  -11.27232 -11.26596 -11.26486  -1.60681  -1.59892
 Alpha  occ. eigenvalues --   -1.40247  -1.39450  -1.19911  -1.19228  -1.09338
 Alpha  occ. eigenvalues --   -1.08622  -1.05280  -1.04612  -0.96221  -0.95494
 Alpha  occ. eigenvalues --   -0.86687  -0.85992  -0.83066  -0.82336  -0.78162
 Alpha  occ. eigenvalues --   -0.77418  -0.72875  -0.72082  -0.71987  -0.71214
 Alpha  occ. eigenvalues --   -0.71012  -0.70297  -0.65566  -0.65276  -0.64866
 Alpha  occ. eigenvalues --   -0.64560  -0.62659  -0.61943  -0.55758  -0.55037
 Alpha  occ. eigenvalues --   -0.53612  -0.53372  -0.52943  -0.52667  -0.49644
 Alpha  occ. eigenvalues --   -0.49596  -0.48850  -0.48819  -0.45695  -0.44887
 Alpha  occ. eigenvalues --   -0.37853  -0.37165  -0.36879  -0.36209
 Alpha virt. eigenvalues --    0.04329   0.05102   0.10744   0.11465   0.15891
 Alpha virt. eigenvalues --    0.16633   0.19836   0.22035   0.25291   0.27289
 Alpha virt. eigenvalues --    0.28468   0.29303   0.29921   0.31231   0.32443

 Mulliken charges:
               1
     1  C   -0.172143
     2  C   -0.218510
     3  C   -0.172013
     4  C    0.158738
     5  C   -0.173790
     6  C   -0.227665
     7  H    0.232483
     8  H    0.223626
     9  H    0.274634
    10  H    0.268217
    11  H    0.239930
    12  N    0.488229
    13  O   -0.464168
    14  O   -0.460214
    15  C   -0.169767
    16  C   -0.217891
    17  C   -0.170976
    18  C    0.158444
    19  C   -0.170757
    20  C   -0.218116
    21  H    0.229499
    22  H    0.228445
    23  H    0.268540
    24  H    0.276244
    25  H    0.225713
    26  N    0.489461
    27  O   -0.455818
    28  O   -0.470374
 Sum of Mulliken charges =  -0.00000

 Dipole moment (field-independent basis, Debye):
    X=             -2.8963    Y=              0.7583    Z=              2.1881  Tot=              3.7083
 Quadrupole moment (field-independent basis, Debye-Ang):
   XX=           -121.2812   YY=           -104.6329   ZZ=           -101.6588
   XY=            -32.7794   XZ=             -1.9115   YZ=             -2.2246

 Normal termination of Gaussian 16 at Fri May  7 00:15:08 2021.
