 Gaussian 16, Revision A.03,
 Gaussian 16:  EM64L-G16RevA.03 25-Dec-2016

 -------------
 #p 6-31g* mp2
 -------------

 ------------------------------------------------------
 Input file generated by CHIRIPA (05-May-2021 14:57:25)
 ------------------------------------------------------
 Symbolic Z-matrix:
 Charge =  0 Multiplicity = 1

                         Standard orientation:
 ---------------------------------------------------------------------
 Center     Atomic      Atomic             Coordinates (Angstroms)
 Number     Number       Type             X           Y           Z
 ---------------------------------------------------------------------
      1          6           0       -1.434756   -0.955182    0.279126
      2          6           0       -1.989866   -0.014731    1.153155
      3          6           0       -3.324116    0.380047    1.017240
      4          6           0       -4.077806   -0.188455   -0.008453
      5          6           0       -3.553433   -1.127713   -0.895086
      6          6           0       -2.216932   -1.507697   -0.740407
      7          1           0       -0.397404   -1.256109    0.391996
      8          1           0       -1.384786    0.416026    1.945854
      9          1           0       -3.779184    1.106116    1.679928
     10          1           0       -4.181567   -1.539553   -1.675632
     11          1           0       -1.788481   -2.238273   -1.420652
     12          7           0       -5.491509    0.221649   -0.162272
     13          8           0       -6.134438   -0.294027   -1.074060
     14          8           0       -5.929872    1.050998    0.631865
     15          6           0        2.317164    2.257885   -0.174565
     16          6           0        1.883973    1.096019    0.472687
     17          6           0        2.721927   -0.019181    0.566028
     18          6           0        3.992499    0.062515   -0.001655
     19          6           0        4.452952    1.205794   -0.652950
     20          6           0        3.598013    2.308974   -0.734331
     21          1           0        1.659625    3.119529   -0.242429
     22          1           0        0.889765    1.053494    0.908331
     23          1           0        2.412025   -0.931290    1.061442
     24          1           0        5.449457    1.218175   -1.077501
     25          1           0        3.937104    3.209969   -1.237589
     26          7           0        4.888593   -1.111735    0.090829
     27          8           0        6.003385   -1.014425   -0.417508
     28          8           0        4.459193   -2.107187    0.669904
 ---------------------------------------------------------------------

 SCF Done:  E(RHF) =  -868.336395203     A.U. after   16 cycles
 E2 =    -0.2600970034D+01 EUMP2 =    -0.87093736523728D+03

 The electronic state is 1-A.
 Alpha  occ. eigenvalues --  -20.61483 -20.61466 -20.61274 -20.61265 -15.86536
 Alpha  occ. eigenvalues --  -15.86332 -11.32006 -11.31825 -11.28678 -11.28521
 Alpha  occ. eigenvalues --  -11.28469 -11.28381 -11.28284 -11.28244 -11.27675
 Alpha  occ. eigenvalues --  -11.27578 -11.27528 -11.27391  -1.60551  -1.60345
 Alpha  occ. eigenvalues --   -1.40103  -1.39895  -1.20180  -1.20030  -1.09542
 Alpha  occ. eigenvalues --   -1.09412  -1.05625  -1.05451  -0.96363  -0.96221
 Alpha  occ. eigenvalues --   -0.87034  -0.86827  -0.83229  -0.83032  -0.78280
 Alpha  occ. eigenvalues --   -0.78046  -0.72750  -0.72548  -0.71878  -0.71671
 Alpha  occ. eigenvalues --   -0.71321  -0.71116  -0.65889  -0.65829  -0.65640
 Alpha  occ. eigenvalues --   -0.65312  -0.63025  -0.62716  -0.56090  -0.55959
 Alpha  occ. eigenvalues --   -0.53950  -0.53877  -0.53634  -0.53466  -0.49518
 Alpha  occ. eigenvalues --   -0.49500  -0.49317  -0.49293  -0.45487  -0.45271
 Alpha  occ. eigenvalues --   -0.38172  -0.38003  -0.37190  -0.37048
 Alpha virt. eigenvalues --    0.04251   0.04507   0.10321   0.10532   0.15595
 Alpha virt. eigenvalues --    0.16040   0.18211   0.22104   0.24989   0.25040
 Alpha virt. eigenvalues --    0.27842   0.28977   0.30223   0.30941   0.32956

 Mulliken charges:
               1
     1  C   -0.170242
     2  C   -0.225788
     3  C   -0.170092
     4  C    0.158573
     5  C   -0.169438
     6  C   -0.219281
     7  H    0.225254
     8  H    0.218126
     9  H    0.276985
    10  H    0.278435
    11  H    0.228580
    12  N    0.487982
    13  O   -0.458117
    14  O   -0.459563
    15  C   -0.171820
    16  C   -0.219699
    17  C   -0.177880
    18  C    0.159961
    19  C   -0.169951
    20  C   -0.217817
    21  H    0.229677
    22  H    0.220717
    23  H    0.270511
    24  H    0.278303
    25  H    0.227039
    26  N    0.488238
    27  O   -0.457252
    28  O   -0.461441
 Sum of Mulliken charges =  -0.00000

 Dipole moment (field-independent basis, Debye):
    X=              1.8166    Y=              2.7446    Z=              0.0037  Tot=              3.2913
 Quadrupole moment (field-independent basis, Debye-Ang):
   XX=           -167.3977   YY=           -101.1005   ZZ=           -101.5097
   XY=             24.3324   XZ=             -5.2687   YZ=              1.2386

 Normal termination of Gaussian 16 at Fri May  7 00:23:51 2021.
