 Gaussian 16, Revision A.03,
 Gaussian 16:  EM64L-G16RevA.03 25-Dec-2016

 -------------
 #p 6-31g* mp2
 -------------

 ------------------------------------------------------
 Input file generated by CHIRIPA (05-May-2021 14:57:22)
 ------------------------------------------------------
 Symbolic Z-matrix:
 Charge =  0 Multiplicity = 1

                         Standard orientation:
 ---------------------------------------------------------------------
 Center     Atomic      Atomic             Coordinates (Angstroms)
 Number     Number       Type             X           Y           Z
 ---------------------------------------------------------------------
      1          6           0        2.880197   -2.272036   -0.723216
      2          6           0        1.893631   -1.649006   -1.494604
      3          6           0        1.623329   -0.286541   -1.335935
      4          6           0        2.361979    0.425796   -0.392399
      5          6           0        3.351217   -0.166420    0.391169
      6          6           0        3.604565   -1.530063    0.215554
      7          1           0        3.083589   -3.330889   -0.853056
      8          1           0        1.329510   -2.222743   -2.224425
      9          1           0        0.865118    0.220957   -1.919870
     10          1           0        3.897047    0.431735    1.110683
     11          1           0        4.371328   -2.011278    0.816013
     12          7           0        2.084797    1.868800   -0.215453
     13          8           0        2.749492    2.474230    0.622565
     14          8           0        1.208097    2.367073   -0.918131
     15          6           0       -0.445007   -0.714439    1.917133
     16          6           0       -1.189706   -1.752720    1.347996
     17          6           0       -2.279169   -1.472747    0.517795
     18          6           0       -2.597405   -0.137075    0.276975
     19          6           0       -1.874835    0.919410    0.829265
     20          6           0       -0.789340    0.615966    1.656411
     21          1           0        0.399773   -0.941045    2.560868
     22          1           0       -0.924589   -2.786869    1.548725
     23          1           0       -2.872803   -2.257120    0.064167
     24          1           0       -2.163319    1.940403    0.610705
     25          1           0       -0.212790    1.424345    2.097046
     26          7           0       -3.748669    0.171743   -0.600305
     27          8           0       -4.008604    1.356830   -0.796879
     28          8           0       -4.369297   -0.777139   -1.074732
 ---------------------------------------------------------------------

 SCF Done:  E(RHF) =  -868.338386441     A.U. after   16 cycles
 E2 =    -0.2603365219D+01 EUMP2 =    -0.87094175165999D+03

 The electronic state is 1-A.
 Alpha  occ. eigenvalues --  -20.61493 -20.61465 -20.60666 -20.60634 -15.86500
 Alpha  occ. eigenvalues --  -15.85706 -11.31762 -11.31057 -11.28388 -11.28264
 Alpha  occ. eigenvalues --  -11.28085 -11.27716 -11.27545 -11.27400 -11.27391
 Alpha  occ. eigenvalues --  -11.27287 -11.26712 -11.26518  -1.60556  -1.59733
 Alpha  occ. eigenvalues --   -1.40107  -1.39283  -1.19954  -1.19247  -1.09371
 Alpha  occ. eigenvalues --   -1.08648  -1.05334  -1.04631  -0.96215  -0.95475
 Alpha  occ. eigenvalues --   -0.86738  -0.86038  -0.83044  -0.82295  -0.78100
 Alpha  occ. eigenvalues --   -0.77343  -0.72726  -0.71933  -0.71892  -0.71074
 Alpha  occ. eigenvalues --   -0.71049  -0.70343  -0.65603  -0.65334  -0.64888
 Alpha  occ. eigenvalues --   -0.64615  -0.62675  -0.61952  -0.55852  -0.55164
 Alpha  occ. eigenvalues --   -0.53978  -0.53421  -0.52719  -0.52680  -0.49501
 Alpha  occ. eigenvalues --   -0.49478  -0.48689  -0.48668  -0.45538  -0.44689
 Alpha  occ. eigenvalues --   -0.38137  -0.37244  -0.36784  -0.36142
 Alpha virt. eigenvalues --    0.04360   0.05189   0.10655   0.11437   0.15889
 Alpha virt. eigenvalues --    0.16657   0.20854   0.21571   0.26795   0.27369
 Alpha virt. eigenvalues --    0.27864   0.28405   0.30450   0.31071   0.31979

 Mulliken charges:
               1
     1  C   -0.172977
     2  C   -0.218094
     3  C   -0.164839
     4  C    0.158873
     5  C   -0.177397
     6  C   -0.221281
     7  H    0.226435
     8  H    0.226582
     9  H    0.279355
    10  H    0.274625
    11  H    0.223652
    12  N    0.486654
    13  O   -0.463703
    14  O   -0.456772
    15  C   -0.167467
    16  C   -0.218656
    17  C   -0.174810
    18  C    0.153801
    19  C   -0.163534
    20  C   -0.231442
    21  H    0.224110
    22  H    0.218901
    23  H    0.272880
    24  H    0.283438
    25  H    0.234249
    26  N    0.487757
    27  O   -0.456450
    28  O   -0.463891
 Sum of Mulliken charges =  -0.00000

 Dipole moment (field-independent basis, Debye):
    X=              5.0199    Y=             -5.9857    Z=              2.3508  Tot=              8.1581
 Quadrupole moment (field-independent basis, Debye-Ang):
   XX=           -120.2950   YY=           -104.6994   ZZ=           -101.0515
   XY=             -8.8635   XZ=             -6.0515   YZ=              2.1187

 Normal termination of Gaussian 16 at Thu May  6 17:56:15 2021.
