 Gaussian 16, Revision A.03,
 Gaussian 16:  EM64L-G16RevA.03 25-Dec-2016

 -------------
 #p 6-31g* mp2
 -------------

 ------------------------------------------------------
 Input file generated by CHIRIPA (05-May-2021 14:57:25)
 ------------------------------------------------------
 Symbolic Z-matrix:
 Charge =  0 Multiplicity = 1

                         Standard orientation:
 ---------------------------------------------------------------------
 Center     Atomic      Atomic             Coordinates (Angstroms)
 Number     Number       Type             X           Y           Z
 ---------------------------------------------------------------------
      1          6           0       -4.853849    2.152855   -0.055484
      2          6           0       -5.110539    1.236236    0.969426
      3          6           0       -4.407643    0.029524    1.035250
      4          6           0       -3.450640   -0.229378    0.055247
      5          6           0       -3.172168    0.663663   -0.978301
      6          6           0       -3.887187    1.864152   -1.024368
      7          1           0       -5.404584    3.087840   -0.098944
      8          1           0       -5.860697    1.457788    1.723232
      9          1           0       -4.586311   -0.697924    1.817755
     10          1           0       -2.418423    0.414800   -1.715426
     11          1           0       -3.685736    2.574141   -1.821474
     12          7           0       -2.700099   -1.503576    0.114474
     13          8           0       -1.862003   -1.708023   -0.760988
     14          8           0       -2.964132   -2.273718    1.035237
     15          6           0        5.629248    1.023413    1.019963
     16          6           0        4.599723    0.520238    1.822095
     17          6           0        3.456577   -0.038311    1.242624
     18          6           0        3.375678   -0.077692   -0.148489
     19          6           0        4.384506    0.415373   -0.974589
     20          6           0        5.518548    0.969470   -0.373363
     21          1           0        6.513735    1.455578    1.478561
     22          1           0        4.682976    0.560802    2.904439
     23          1           0        2.644632   -0.435142    1.839857
     24          1           0        4.272870    0.360939   -2.050690
     25          1           0        6.316526    1.359479   -0.998799
     26          7           0        2.170299   -0.666646   -0.773465
     27          8           0        2.123211   -0.689521   -2.001430
     28          8           0        1.295435   -1.094239   -0.023523
 ---------------------------------------------------------------------

 SCF Done:  E(RHF) =  -868.335336883     A.U. after   16 cycles
 E2 =    -0.2600352020D+01 EUMP2 =    -0.87093568890317D+03

 The electronic state is 1-A.
 Alpha  occ. eigenvalues --  -20.60090 -20.60028 -20.59569 -20.59382 -15.85130
 Alpha  occ. eigenvalues --  -15.84522 -11.30768 -11.30287 -11.27382 -11.27354
 Alpha  occ. eigenvalues --  -11.27167 -11.26942 -11.26854 -11.26756 -11.26454
 Alpha  occ. eigenvalues --  -11.26435 -11.26046 -11.26003  -1.59138  -1.58542
 Alpha  occ. eigenvalues --   -1.38686  -1.38081  -1.18969  -1.18506  -1.08312
 Alpha  occ. eigenvalues --   -1.07835  -1.04411  -1.03967  -0.95097  -0.94597
 Alpha  occ. eigenvalues --   -0.85796  -0.85346  -0.81928  -0.81424  -0.76933
 Alpha  occ. eigenvalues --   -0.76399  -0.71354  -0.70718  -0.70498  -0.70076
 Alpha  occ. eigenvalues --   -0.69856  -0.69617  -0.64612  -0.64414  -0.64148
 Alpha  occ. eigenvalues --   -0.63981  -0.61753  -0.61302  -0.54904  -0.54475
 Alpha  occ. eigenvalues --   -0.52730  -0.52505  -0.52282  -0.52065  -0.48116
 Alpha  occ. eigenvalues --   -0.48070  -0.47516  -0.47482  -0.44056  -0.43333
 Alpha  occ. eigenvalues --   -0.36970  -0.36521  -0.36029  -0.35592
 Alpha virt. eigenvalues --    0.05598   0.06151   0.11620   0.12057   0.17042
 Alpha virt. eigenvalues --    0.17557   0.21733   0.22131   0.27624   0.28017
 Alpha virt. eigenvalues --    0.28652   0.29084   0.31264   0.31649   0.32905

 Mulliken charges:
               1
     1  C   -0.172416
     2  C   -0.219003
     3  C   -0.172328
     4  C    0.159388
     5  C   -0.171443
     6  C   -0.219392
     7  H    0.221879
     8  H    0.219848
     9  H    0.273553
    10  H    0.281860
    11  H    0.221039
    12  N    0.486854
    13  O   -0.440824
    14  O   -0.469102
    15  C   -0.171782
    16  C   -0.218643
    17  C   -0.171824
    18  C    0.158494
    19  C   -0.171886
    20  C   -0.218601
    21  H    0.223895
    22  H    0.222357
    23  H    0.277202
    24  H    0.274573
    25  H    0.221740
    26  N    0.485864
    27  O   -0.463160
    28  O   -0.448141
 Sum of Mulliken charges =  -0.00000

 Dipole moment (field-independent basis, Debye):
    X=              1.7372    Y=              6.3459    Z=              1.8749  Tot=              6.8413
 Quadrupole moment (field-independent basis, Debye-Ang):
   XX=            -59.4563   YY=           -108.4122   ZZ=            -98.5378
   XY=             -6.9724   XZ=              3.4908   YZ=             -2.2324

 Normal termination of Gaussian 16 at Thu May  6 16:24:42 2021.
