 Gaussian 16, Revision A.03,
 Gaussian 16:  EM64L-G16RevA.03 25-Dec-2016

 -------------
 #p 6-31g* mp2
 -------------

 ------------------------------------------------------
 Input file generated by CHIRIPA (05-May-2021 14:57:21)
 ------------------------------------------------------
 Symbolic Z-matrix:
 Charge =  0 Multiplicity = 1

                         Standard orientation:
 ---------------------------------------------------------------------
 Center     Atomic      Atomic             Coordinates (Angstroms)
 Number     Number       Type             X           Y           Z
 ---------------------------------------------------------------------
      1          6           0        3.648149    2.325800    0.343404
      2          6           0        4.833235    1.631816    0.077926
      3          6           0        4.815072    0.249529   -0.130643
      4          6           0        3.588662   -0.410063   -0.066232
      5          6           0        2.391018    0.253289    0.196261
      6          6           0        2.432966    1.635539    0.401622
      7          1           0        3.671497    3.399580    0.504180
      8          1           0        5.778414    2.165280    0.032121
      9          1           0        5.717601   -0.312510   -0.337940
     10          1           0        1.464110   -0.305912    0.235677
     11          1           0        1.511048    2.171899    0.607610
     12          7           0        3.556844   -1.873409   -0.285337
     13          8           0        2.463465   -2.431362   -0.223319
     14          8           0        4.625887   -2.434717   -0.514939
     15          6           0       -2.315990    2.333698   -0.185383
     16          6           0       -3.513393    2.154952   -0.885954
     17          6           0       -4.229818    0.959642   -0.774080
     18          6           0       -3.717450   -0.040400    0.050955
     19          6           0       -2.527398    0.107568    0.761708
     20          6           0       -1.827675    1.311238    0.634766
     21          1           0       -1.765942    3.265491   -0.278142
     22          1           0       -3.895016    2.947282   -1.523623
     23          1           0       -5.159409    0.794685   -1.305182
     24          1           0       -2.172168   -0.700452    1.389669
     25          1           0       -0.898030    1.447269    1.180018
     26          7           0       -4.467058   -1.310247    0.177367
     27          8           0       -3.994393   -2.175932    0.910725
     28          8           0       -5.513069   -1.415823   -0.459303
 ---------------------------------------------------------------------

 SCF Done:  E(RHF) =  -868.336110026     A.U. after   16 cycles
 E2 =    -0.2600199585D+01 EUMP2 =    -0.87093630961078D+03

 The electronic state is 1-A.
 Alpha  occ. eigenvalues --  -20.61123 -20.61116 -20.60943 -20.60929 -15.86185
 Alpha  occ. eigenvalues --  -15.86003 -11.31724 -11.31573 -11.28384 -11.28292
 Alpha  occ. eigenvalues --  -11.28224 -11.28174 -11.28128 -11.28063 -11.27503
 Alpha  occ. eigenvalues --  -11.27394 -11.27325 -11.27220  -1.60195  -1.60010
 Alpha  occ. eigenvalues --   -1.39744  -1.39557  -1.19930  -1.19798  -1.09292
 Alpha  occ. eigenvalues --   -1.09168  -1.05385  -1.05239  -0.96092  -0.95956
 Alpha  occ. eigenvalues --   -0.86777  -0.86639  -0.82948  -0.82783  -0.77982
 Alpha  occ. eigenvalues --   -0.77761  -0.72397  -0.72219  -0.71523  -0.71335
 Alpha  occ. eigenvalues --   -0.71038  -0.70927  -0.65619  -0.65545  -0.65447
 Alpha  occ. eigenvalues --   -0.65182  -0.62860  -0.62443  -0.55874  -0.55772
 Alpha  occ. eigenvalues --   -0.53675  -0.53562  -0.53541  -0.53283  -0.49172
 Alpha  occ. eigenvalues --   -0.49143  -0.48996  -0.48956  -0.45111  -0.44917
 Alpha  occ. eigenvalues --   -0.37911  -0.37803  -0.36984  -0.36839
 Alpha virt. eigenvalues --    0.04611   0.04760   0.10670   0.10737   0.16035
 Alpha virt. eigenvalues --    0.16106   0.18019   0.22116   0.24762   0.26322
 Alpha virt. eigenvalues --    0.28042   0.29256   0.29848   0.31090   0.32068

 Mulliken charges:
               1
     1  C   -0.170351
     2  C   -0.218351
     3  C   -0.169462
     4  C    0.159275
     5  C   -0.170743
     6  C   -0.219804
     7  H    0.225762
     8  H    0.225486
     9  H    0.277971
    10  H    0.273961
    11  H    0.213449
    12  N    0.487969
    13  O   -0.458093
    14  O   -0.458538
    15  C   -0.169980
    16  C   -0.218245
    17  C   -0.169008
    18  C    0.159577
    19  C   -0.169506
    20  C   -0.224867
    21  H    0.221601
    22  H    0.224949
    23  H    0.277972
    24  H    0.280070
    25  H    0.216937
    26  N    0.487986
    27  O   -0.456704
    28  O   -0.459312
 Sum of Mulliken charges =  -0.00000

 Dipole moment (field-independent basis, Debye):
    X=              2.7111    Y=              9.4374    Z=              0.2357  Tot=              9.8219
 Quadrupole moment (field-independent basis, Debye-Ang):
   XX=           -114.7640   YY=           -110.0422   ZZ=           -104.3066
   XY=              0.4296   XZ=              6.3660   YZ=             -1.8762

 Normal termination of Gaussian 16 at Thu May  6 06:28:36 2021.
