 Gaussian 16, Revision A.03,
 Gaussian 16:  EM64L-G16RevA.03 25-Dec-2016

 -------------
 #p 6-31g* mp2
 -------------

 ------------------------------------------------------
 Input file generated by CHIRIPA (05-May-2021 14:53:15)
 ------------------------------------------------------
 Symbolic Z-matrix:
 Charge =  0 Multiplicity = 1

                         Standard orientation:
 ---------------------------------------------------------------------
 Center     Atomic      Atomic             Coordinates (Angstroms)
 Number     Number       Type             X           Y           Z
 ---------------------------------------------------------------------
      1          6           0       -5.270331    0.036153   -0.379879
      2          6           0       -6.210331   -1.003307    0.231601
      3          6           0       -7.591773   -1.009106   -0.423668
      4          1           0       -5.725477    1.031820   -0.288038
      5          1           0       -5.166063   -0.161837   -1.455669
      6          1           0       -6.311703   -0.804248    1.306178
      7          1           0       -5.752808   -1.996592    0.138465
      8          1           0       -7.510085   -1.230079   -1.492826
      9          1           0       -8.072155   -0.030960   -0.318479
     10          1           0       -8.247553   -1.759541    0.028725
     11          6           0       -3.885424    0.054077    0.264667
     12          6           0       -2.945424    1.093537   -0.346813
     13          6           0       -1.563982    1.099336    0.308456
     14          1           0       -3.989692    0.252067    1.340457
     15          1           0       -3.430279   -0.941590    0.172826
     16          1           0       -3.402947    2.086822   -0.253677
     17          1           0       -2.844053    0.894478   -1.421390
     18          1           0       -1.083601    0.121190    0.203267
     19          1           0       -1.645670    1.320309    1.377614
     20          1           0       -0.908203    1.849771   -0.143938
     21          6           0        2.410179    2.187453    0.300550
     22          6           0        1.989013    1.085461    1.052050
     23          6           0        2.627856   -0.150913    0.918606
     24          6           0        3.689219   -0.250128    0.020300
     25          6           0        4.132094    0.829363   -0.742490
     26          6           0        3.478491    2.056119   -0.592747
     27          1           0        1.908177    3.144162    0.410543
     28          1           0        1.159626    1.184531    1.746564
     29          1           0        2.322326   -1.020318    1.487995
     30          1           0        4.961815    0.699775   -1.426734
     31          1           0        3.807726    2.910234   -1.177672
     32          7           0        4.373347   -1.553931   -0.129599
     33          8           0        5.305921   -1.615310   -0.927831
     34          8           0        3.964037   -2.489784    0.553981
 ---------------------------------------------------------------------

 SCF Done:  E(RHF) =  -669.535378125     A.U. after   15 cycles
 E2 =    -0.2091575731D+01 EUMP2 =    -0.67162695385663D+03

 The electronic state is 1-A.
 Alpha  occ. eigenvalues --  -20.60735 -20.60730 -15.85787 -11.31146 -11.27698
 Alpha  occ. eigenvalues --  -11.27677 -11.27429 -11.26733 -11.26670 -11.22187
 Alpha  occ. eigenvalues --  -11.21905 -11.21876 -11.21840 -11.21717 -11.21292
 Alpha  occ. eigenvalues --   -1.59811  -1.39364  -1.19307  -1.08863  -1.08705
 Alpha  occ. eigenvalues --   -1.04708  -1.03993  -0.96469  -0.95543  -0.87511
 Alpha  occ. eigenvalues --   -0.86090  -0.82373  -0.80076  -0.78651  -0.77416
 Alpha  occ. eigenvalues --   -0.72005  -0.71133  -0.70417  -0.65485  -0.64959
 Alpha  occ. eigenvalues --   -0.64706  -0.62057  -0.61388  -0.59845  -0.58062
 Alpha  occ. eigenvalues --   -0.55755  -0.55211  -0.53407  -0.52984  -0.52877
 Alpha  occ. eigenvalues --   -0.52620  -0.50403  -0.48765  -0.48761  -0.48378
 Alpha  occ. eigenvalues --   -0.47084  -0.46199  -0.46103  -0.44772  -0.44246
 Alpha  occ. eigenvalues --   -0.37268  -0.36276
 Alpha virt. eigenvalues --    0.05077   0.11298   0.16514   0.20829   0.22512
 Alpha virt. eigenvalues --    0.23932   0.25813   0.26335   0.26993   0.27794
 Alpha virt. eigenvalues --    0.28771   0.29614   0.30994   0.31672   0.32302

 Mulliken charges:
               1
     1  C   -0.298659
     2  C   -0.300066
     3  C   -0.475965
     4  H    0.149602
     5  H    0.150723
     6  H    0.151882
     7  H    0.153200
     8  H    0.155871
     9  H    0.155101
    10  H    0.161329
    11  C   -0.299147
    12  C   -0.300652
    13  C   -0.478598
    14  H    0.148923
    15  H    0.151593
    16  H    0.151909
    17  H    0.155062
    18  H    0.159303
    19  H    0.149012
    20  H    0.157504
    21  C   -0.173495
    22  C   -0.213457
    23  C   -0.174195
    24  C    0.158889
    25  C   -0.171501
    26  C   -0.218526
    27  H    0.225287
    28  H    0.228433
    29  H    0.275295
    30  H    0.275294
    31  H    0.223137
    32  N    0.488045
    33  O   -0.460566
    34  O   -0.460569
 Sum of Mulliken charges =  -0.00000

 Dipole moment (field-independent basis, Debye):
    X=             -2.5320    Y=              4.5651    Z=              0.4935  Tot=              5.2436
 Quadrupole moment (field-independent basis, Debye-Ang):
   XX=           -111.8248   YY=            -96.4354   ZZ=            -92.6059
   XY=             18.8970   XZ=             -0.9907   YZ=             -1.2158

 Normal termination of Gaussian 16 at Thu May  6 18:48:34 2021.
