 Gaussian 16, Revision A.03,
 Gaussian 16:  EM64L-G16RevA.03 25-Dec-2016

 -------------
 #p 6-31g* mp2
 -------------

 ------------------------------------------------------
 Input file generated by CHIRIPA (05-May-2021 14:57:24)
 ------------------------------------------------------
 Symbolic Z-matrix:
 Charge =  0 Multiplicity = 1

                         Standard orientation:
 ---------------------------------------------------------------------
 Center     Atomic      Atomic             Coordinates (Angstroms)
 Number     Number       Type             X           Y           Z
 ---------------------------------------------------------------------
      1          6           0       -1.411634    1.182227    2.440786
      2          6           0       -2.355064    1.774379    1.594727
      3          6           0       -2.828930    1.090920    0.470947
      4          6           0       -2.335618   -0.188931    0.222123
      5          6           0       -1.395507   -0.805751    1.046147
      6          6           0       -0.935706   -0.103681    2.164283
      7          1           0       -1.048986    1.720383    3.311574
      8          1           0       -2.726445    2.772909    1.806997
      9          1           0       -3.559171    1.525659   -0.200743
     10          1           0       -1.043943   -1.802432    0.808562
     11          1           0       -0.203012   -0.566038    2.819594
     12          7           0       -2.829834   -0.922330   -0.964586
     13          8           0       -2.379483   -2.048786   -1.161862
     14          8           0       -3.658194   -0.356825   -1.674980
     15          6           0        2.955507   -1.991974    0.859130
     16          6           0        1.954228   -2.078515   -0.113738
     17          6           0        1.557631   -0.943603   -0.827344
     18          6           0        2.186362    0.267215   -0.541146
     19          6           0        3.187018    0.385587    0.422164
     20          6           0        3.567627   -0.762367    1.123509
     21          1           0        3.257383   -2.878667    1.408713
     22          1           0        1.477103   -3.032124   -0.321167
     23          1           0        0.785172   -0.982232   -1.585785
     24          1           0        3.644259    1.350100    0.606728
     25          1           0        4.345516   -0.692185    1.878498
     26          7           0        1.774965    1.475599   -1.290120
     27          8           0        2.344396    2.530589   -1.019227
     28          8           0        0.890872    1.344860   -2.133875
 ---------------------------------------------------------------------

 SCF Done:  E(RHF) =  -868.338035608     A.U. after   16 cycles
 E2 =    -0.2603149742D+01 EUMP2 =    -0.87094118534928D+03

 The electronic state is 1-A.
 Alpha  occ. eigenvalues --  -20.60930 -20.60902 -20.60881 -20.60813 -15.85972
 Alpha  occ. eigenvalues --  -15.85883 -11.31399 -11.31108 -11.28064 -11.27927
 Alpha  occ. eigenvalues --  -11.27827 -11.27736 -11.27620 -11.27411 -11.27091
 Alpha  occ. eigenvalues --  -11.26983 -11.26702 -11.26613  -1.59991  -1.59905
 Alpha  occ. eigenvalues --   -1.39543  -1.39471  -1.19634  -1.19280  -1.09010
 Alpha  occ. eigenvalues --   -1.08703  -1.05059  -1.04653  -0.95824  -0.95560
 Alpha  occ. eigenvalues --   -0.86426  -0.86085  -0.82644  -0.82401  -0.77686
 Alpha  occ. eigenvalues --   -0.77450  -0.72193  -0.72111  -0.71333  -0.71205
 Alpha  occ. eigenvalues --   -0.70719  -0.70416  -0.65276  -0.65026  -0.64937
 Alpha  occ. eigenvalues --   -0.64682  -0.62379  -0.62012  -0.55548  -0.55202
 Alpha  occ. eigenvalues --   -0.53661  -0.53106  -0.52786  -0.52702  -0.48961
 Alpha  occ. eigenvalues --   -0.48940  -0.48883  -0.48837  -0.44936  -0.44900
 Alpha  occ. eigenvalues --   -0.37701  -0.37375  -0.36888  -0.35792
 Alpha virt. eigenvalues --    0.04704   0.05207   0.10647   0.11669   0.16243
 Alpha virt. eigenvalues --    0.16567   0.20791   0.21739   0.26218   0.27588
 Alpha virt. eigenvalues --    0.28025   0.28633   0.30463   0.31467   0.32202

 Mulliken charges:
               1
     1  C   -0.170872
     2  C   -0.217342
     3  C   -0.165627
     4  C    0.160138
     5  C   -0.171806
     6  C   -0.218306
     7  H    0.225236
     8  H    0.225433
     9  H    0.277957
    10  H    0.267894
    11  H    0.220607
    12  N    0.489887
    13  O   -0.470895
    14  O   -0.453619
    15  C   -0.174291
    16  C   -0.229581
    17  C   -0.172349
    18  C    0.161998
    19  C   -0.172115
    20  C   -0.221388
    21  H    0.225928
    22  H    0.230506
    23  H    0.286076
    24  H    0.275097
    25  H    0.222811
    26  N    0.488123
    27  O   -0.462625
    28  O   -0.456875
 Sum of Mulliken charges =  -0.00000

 Dipole moment (field-independent basis, Debye):
    X=              3.0563    Y=             -1.4779    Z=              6.6504  Tot=              7.4668
 Quadrupole moment (field-independent basis, Debye-Ang):
   XX=           -103.4268   YY=           -104.4168   ZZ=           -105.4222
   XY=            -16.4463   XZ=             -1.6288   YZ=              3.5308

 Normal termination of Gaussian 16 at Thu May  6 22:49:42 2021.
