 Gaussian 16, Revision A.03,
 Gaussian 16:  EM64L-G16RevA.03 25-Dec-2016

 -------------
 #p 6-31g* mp2
 -------------

 ------------------------------------------------------
 Input file generated by CHIRIPA (05-May-2021 14:57:25)
 ------------------------------------------------------
 Symbolic Z-matrix:
 Charge =  0 Multiplicity = 1

                         Standard orientation:
 ---------------------------------------------------------------------
 Center     Atomic      Atomic             Coordinates (Angstroms)
 Number     Number       Type             X           Y           Z
 ---------------------------------------------------------------------
      1          6           0        1.125384    0.304732    1.483614
      2          6           0        1.723943    1.357521    0.783697
      3          6           0        2.931555    1.163975    0.106377
      4          6           0        3.515678   -0.101005    0.150136
      5          6           0        2.943959   -1.169789    0.838707
      6          6           0        1.736226   -0.953345    1.508841
      7          1           0        0.187235    0.463977    2.006981
      8          1           0        1.251819    2.335626    0.762383
      9          1           0        3.416681    1.961482   -0.443218
     10          1           0        3.438447   -2.133578    0.841802
     11          1           0        1.273656   -1.772791    2.051594
     12          7           0        4.794187   -0.318024   -0.563108
     13          8           0        5.288663   -1.441958   -0.509232
     14          8           0        5.277597    0.639920   -1.162520
     15          6           0       -4.320457   -2.244159   -0.230449
     16          6           0       -3.029840   -2.055046   -0.735489
     17          6           0       -2.457173   -0.779919   -0.761023
     18          6           0       -3.206789    0.288501   -0.271287
     19          6           0       -4.494927    0.132239    0.238196
     20          6           0       -5.047600   -1.151838    0.253928
     21          1           0       -4.757553   -3.238183   -0.214420
     22          1           0       -2.462806   -2.901518   -1.112322
     23          1           0       -1.460018   -0.605143   -1.146449
     24          1           0       -5.035668    0.995424    0.606885
     25          1           0       -6.050119   -1.295731    0.646731
     26          7           0       -2.611116    1.643159   -0.293131
     27          8           0       -3.292220    2.568077    0.144202
     28          8           0       -1.474403    1.754370   -0.747172
 ---------------------------------------------------------------------

 SCF Done:  E(RHF) =  -868.339421082     A.U. after   15 cycles
 E2 =    -0.2599831854D+01 EUMP2 =    -0.87093925293648D+03

 The electronic state is 1-A.
 Alpha  occ. eigenvalues --  -20.61720 -20.61708 -20.60423 -20.60405 -15.86738
 Alpha  occ. eigenvalues --  -15.85462 -11.31931 -11.30722 -11.28475 -11.28448
 Alpha  occ. eigenvalues --  -11.28174 -11.27438 -11.27423 -11.27315 -11.27142
 Alpha  occ. eigenvalues --  -11.26938 -11.26362 -11.26046  -1.60793  -1.59494
 Alpha  occ. eigenvalues --   -1.40345  -1.39050  -1.20089  -1.18860  -1.09516
 Alpha  occ. eigenvalues --   -1.08271  -1.05451  -1.04225  -0.96376  -0.95131
 Alpha  occ. eigenvalues --   -0.86855  -0.85619  -0.83201  -0.81956  -0.78274
 Alpha  occ. eigenvalues --   -0.77022  -0.72962  -0.72131  -0.71680  -0.71169
 Alpha  occ. eigenvalues --   -0.70817  -0.69956  -0.65732  -0.65436  -0.64497
 Alpha  occ. eigenvalues --   -0.64185  -0.62785  -0.61557  -0.55948  -0.54732
 Alpha  occ. eigenvalues --   -0.53809  -0.53527  -0.52586  -0.52289  -0.49727
 Alpha  occ. eigenvalues --   -0.49707  -0.48446  -0.48427  -0.45782  -0.44480
 Alpha  occ. eigenvalues --   -0.38068  -0.37086  -0.36792  -0.35808
 Alpha virt. eigenvalues --    0.04195   0.05478   0.10585   0.11825   0.15755
 Alpha virt. eigenvalues --    0.17009   0.20822   0.21975   0.26748   0.27679
 Alpha virt. eigenvalues --    0.28015   0.28618   0.30424   0.31508   0.31893

 Mulliken charges:
               1
     1  C   -0.172914
     2  C   -0.207975
     3  C   -0.174179
     4  C    0.157976
     5  C   -0.174428
     6  C   -0.222683
     7  H    0.223704
     8  H    0.238127
     9  H    0.276147
    10  H    0.271998
    11  H    0.218283
    12  N    0.488019
    13  O   -0.463446
    14  O   -0.459952
    15  C   -0.170278
    16  C   -0.219887
    17  C   -0.173908
    18  C    0.154397
    19  C   -0.171199
    20  C   -0.218823
    21  H    0.228112
    22  H    0.226289
    23  H    0.279763
    24  H    0.276524
    25  H    0.225641
    26  N    0.486753
    27  O   -0.458208
    28  O   -0.463852
 Sum of Mulliken charges =  -0.00000

 Dipole moment (field-independent basis, Debye):
    X=             -6.8995    Y=             -3.8265    Z=              2.5186  Tot=              8.2818
 Quadrupole moment (field-independent basis, Debye-Ang):
   XX=           -120.5532   YY=           -102.7209   ZZ=           -104.3690
   XY=             17.0255   XZ=              6.4902   YZ=              0.6713

 Normal termination of Gaussian 16 at Fri May  7 08:07:20 2021.
