 Gaussian 16, Revision A.03,
 Gaussian 16:  EM64L-G16RevA.03 25-Dec-2016

 -------------
 #p 6-31g* mp2
 -------------

 ------------------------------------------------------
 Input file generated by CHIRIPA (05-May-2021 14:51:13)
 ------------------------------------------------------
 Symbolic Z-matrix:
 Charge =  0 Multiplicity = 1

                         Standard orientation:
 ---------------------------------------------------------------------
 Center     Atomic      Atomic             Coordinates (Angstroms)
 Number     Number       Type             X           Y           Z
 ---------------------------------------------------------------------
      1          6           0        2.705513    1.124422   -0.335348
      2          6           0        3.153615    2.216313    0.636745
      3          6           0        2.559267    3.584998    0.303210
      4          1           0        2.992092    1.411248   -1.356401
      5          1           0        1.608563    1.061326   -0.324643
      6          1           0        4.249459    2.276387    0.625238
      7          1           0        2.866106    1.926765    1.655625
      8          1           0        1.465520    3.547864    0.333857
      9          1           0        2.856733    3.899473   -0.702385
     10          1           0        2.892683    4.350661    1.010638
     11          6           0        3.291381   -0.249573   -0.015000
     12          6           0        2.843280   -1.341464   -0.987093
     13          6           0        3.437628   -2.710149   -0.653558
     14          1           0        4.388331   -0.186477   -0.025705
     15          1           0        3.004802   -0.536399    1.006053
     16          1           0        3.130789   -1.051916   -2.005973
     17          1           0        1.747436   -1.401538   -0.975586
     18          1           0        3.140162   -3.024624    0.352037
     19          1           0        4.531375   -2.673015   -0.684205
     20          1           0        3.104212   -3.475812   -1.360986
     21          6           0       -3.720006   -0.210032    0.280428
     22          6           0       -4.209132    0.768978   -0.787410
     23          6           0       -5.654405    1.214743   -0.563191
     24          1           0       -4.378749   -1.089159    0.292129
     25          1           0       -3.810164    0.261285    1.268926
     26          1           0       -4.116782    0.296464   -1.773725
     27          1           0       -3.549034    1.645791   -0.796701
     28          1           0       -5.758594    1.709985    0.407625
     29          1           0       -6.329568    0.352991   -0.574952
     30          1           0       -5.983575    1.914227   -1.337935
     31          6           0       -2.276889   -0.664817    0.069919
     32          6           0       -1.787763   -1.643828    1.137758
     33          6           0       -0.342490   -2.089593    0.913538
     34          1           0       -2.186732   -1.136134   -0.918578
     35          1           0       -1.618146    0.214311    0.058219
     36          1           0       -2.447860   -2.520640    1.147048
     37          1           0       -1.880113   -1.171312    2.124073
     38          1           0        0.332674   -1.227841    0.925300
     39          1           0       -0.238300   -2.584835   -0.057276
     40          1           0       -0.013319   -2.789075    1.688284
 ---------------------------------------------------------------------

 SCF Done:  E(RHF) =  -470.732302117     A.U. after   11 cycles
 E2 =    -0.1584110111D+01 EUMP2 =    -0.47231641222825D+03

 The electronic state is 1-A.
 Alpha  occ. eigenvalues --  -11.21677 -11.21639 -11.21601 -11.21478 -11.21412
 Alpha  occ. eigenvalues --  -11.21390 -11.21369 -11.21286 -11.21152 -11.21099
 Alpha  occ. eigenvalues --  -11.21082 -11.20949  -1.08505  -1.08372  -1.03619
 Alpha  occ. eigenvalues --   -1.03443  -0.96059  -0.95921  -0.87092  -0.86927
 Alpha  occ. eigenvalues --   -0.79718  -0.79490  -0.78338  -0.78160  -0.65196
 Alpha  occ. eigenvalues --   -0.64986  -0.61009  -0.60892  -0.59430  -0.59284
 Alpha  occ. eigenvalues --   -0.57667  -0.57507  -0.55420  -0.55141  -0.52734
 Alpha  occ. eigenvalues --   -0.52629  -0.52496  -0.52332  -0.50046  -0.49806
 Alpha  occ. eigenvalues --   -0.48147  -0.47744  -0.46706  -0.46512  -0.46025
 Alpha  occ. eigenvalues --   -0.45771  -0.45690  -0.45367  -0.43848  -0.43722
 Alpha virt. eigenvalues --    0.20361   0.22964   0.23709   0.24445   0.25726
 Alpha virt. eigenvalues --    0.26635   0.26834   0.27505   0.28178   0.29574
 Alpha virt. eigenvalues --    0.30617   0.31217   0.31830   0.32156   0.32312

 Mulliken charges:
               1
     1  C   -0.300614
     2  C   -0.299470
     3  C   -0.475534
     4  H    0.150158
     5  H    0.149742
     6  H    0.152224
     7  H    0.151520
     8  H    0.154532
     9  H    0.155370
    10  H    0.160256
    11  C   -0.300105
    12  C   -0.304914
    13  C   -0.476036
    14  H    0.149810
    15  H    0.149782
    16  H    0.150601
    17  H    0.159965
    18  H    0.156349
    19  H    0.154397
    20  H    0.159160
    21  C   -0.298244
    22  C   -0.299718
    23  C   -0.475768
    24  H    0.149964
    25  H    0.149653
    26  H    0.152124
    27  H    0.152022
    28  H    0.155237
    29  H    0.155240
    30  H    0.160469
    31  C   -0.299321
    32  C   -0.300127
    33  C   -0.481786
    34  H    0.149797
    35  H    0.149430
    36  H    0.152360
    37  H    0.151968
    38  H    0.161313
    39  H    0.157613
    40  H    0.160584
 Sum of Mulliken charges =  -0.00000

 Dipole moment (field-independent basis, Debye):
    X=             -0.0577    Y=             -0.0228    Z=              0.0112  Tot=              0.0630
 Quadrupole moment (field-independent basis, Debye-Ang):
   XX=            -85.3330   YY=            -85.3966   ZZ=            -84.1552
   XY=              1.2934   XZ=             -0.2375   YZ=              0.3935

 Normal termination of Gaussian 16 at Wed May  5 18:23:06 2021.
