 Gaussian 16, Revision A.03,
 Gaussian 16:  EM64L-G16RevA.03 25-Dec-2016

 -------------
 #p 6-31g* mp2
 -------------

 ------------------------------------------------------
 Input file generated by CHIRIPA (05-May-2021 14:51:13)
 ------------------------------------------------------
 Symbolic Z-matrix:
 Charge =  0 Multiplicity = 1

                         Standard orientation:
 ---------------------------------------------------------------------
 Center     Atomic      Atomic             Coordinates (Angstroms)
 Number     Number       Type             X           Y           Z
 ---------------------------------------------------------------------
      1          6           0        3.327243   -0.157663   -0.796781
      2          6           0        3.665040   -1.489180   -0.125260
      3          6           0        4.068098   -2.571235   -1.127505
      4          1           0        2.512703   -0.313873   -1.517246
      5          1           0        4.196129    0.183503   -1.376469
      6          1           0        2.796252   -1.827046    0.454109
      7          1           0        4.478741   -1.329745    0.593828
      8          1           0        4.949004   -2.259216   -1.697811
      9          1           0        3.256956   -2.759343   -1.838324
     10          1           0        4.305309   -3.514677   -0.625999
     11          6           0        2.922431    0.934067    0.192147
     12          6           0        2.584633    2.265584   -0.479374
     13          6           0        2.181575    3.347640    0.522871
     14          1           0        2.053545    0.592901    0.771835
     15          1           0        3.736970    1.090278    0.912612
     16          1           0        1.770933    2.106149   -1.198462
     17          1           0        3.453422    2.603450   -1.058743
     18          1           0        2.992718    3.535747    1.233690
     19          1           0        1.300669    3.035620    1.093177
     20          1           0        1.944364    4.291081    0.021365
     21          6           0       -2.441829   -0.720952    0.381120
     22          6           0       -1.874392   -0.612851    1.796859
     23          6           0       -0.507564   -1.283269    1.938682
     24          1           0       -2.521481   -1.781268    0.104841
     25          1           0       -1.734165   -0.266067   -0.325763
     26          1           0       -2.583553   -1.066570    2.501021
     27          1           0       -1.796261    0.447326    2.069873
     28          1           0        0.218424   -0.825525    1.258965
     29          1           0       -0.573341   -2.348024    1.692564
     30          1           0       -0.120546   -1.194083    2.958545
     31          6           0       -3.807844   -0.055452    0.223514
     32          6           0       -4.375282   -0.163554   -1.192225
     33          6           0       -5.742109    0.506865   -1.334047
     34          1           0       -4.515509   -0.510338    0.930397
     35          1           0       -3.728192    1.004864    0.499793
     36          1           0       -4.453412   -1.223731   -1.465239
     37          1           0       -3.666121    0.290166   -1.896387
     38          1           0       -5.676332    1.571619   -1.087930
     39          1           0       -6.468096    0.049120   -0.654332
     40          1           0       -6.129126    0.417678   -2.353911
 ---------------------------------------------------------------------

 SCF Done:  E(RHF) =  -470.733267090     A.U. after   11 cycles
 E2 =    -0.1583026296D+01 EUMP2 =    -0.47231629338655D+03

 The electronic state is 1-A.
 Alpha  occ. eigenvalues --  -11.21672 -11.21637 -11.21620 -11.21554 -11.21461
 Alpha  occ. eigenvalues --  -11.21398 -11.21392 -11.21333 -11.21139 -11.21097
 Alpha  occ. eigenvalues --  -11.21095 -11.21037  -1.08487  -1.08424  -1.03584
 Alpha  occ. eigenvalues --   -1.03520  -0.96042  -0.95968  -0.87055  -0.86987
 Alpha  occ. eigenvalues --   -0.79652  -0.79582  -0.78314  -0.78219  -0.65204
 Alpha  occ. eigenvalues --   -0.64997  -0.60995  -0.60907  -0.59399  -0.59339
 Alpha  occ. eigenvalues --   -0.57658  -0.57573  -0.55443  -0.55162  -0.52730
 Alpha  occ. eigenvalues --   -0.52668  -0.52469  -0.52388  -0.50060  -0.49860
 Alpha  occ. eigenvalues --   -0.47991  -0.47900  -0.46758  -0.46606  -0.45927
 Alpha  occ. eigenvalues --   -0.45791  -0.45751  -0.45439  -0.43837  -0.43775
 Alpha virt. eigenvalues --    0.20499   0.23078   0.24097   0.24570   0.25669
 Alpha virt. eigenvalues --    0.26692   0.27059   0.27550   0.28014   0.29310
 Alpha virt. eigenvalues --    0.30792   0.31652   0.31703   0.31914   0.32277

 Mulliken charges:
               1
     1  C   -0.297766
     2  C   -0.302764
     3  C   -0.475611
     4  H    0.149073
     5  H    0.149577
     6  H    0.155658
     7  H    0.151820
     8  H    0.154948
     9  H    0.155156
    10  H    0.160252
    11  C   -0.306326
    12  C   -0.299139
    13  C   -0.475626
    14  H    0.156525
    15  H    0.150042
    16  H    0.151152
    17  H    0.152174
    18  H    0.155482
    19  H    0.154692
    20  H    0.160217
    21  C   -0.298313
    22  C   -0.299657
    23  C   -0.484092
    24  H    0.149878
    25  H    0.148858
    26  H    0.152488
    27  H    0.151826
    28  H    0.162222
    29  H    0.155638
    30  H    0.161056
    31  C   -0.298370
    32  C   -0.299696
    33  C   -0.475752
    34  H    0.149741
    35  H    0.149820
    36  H    0.152003
    37  H    0.151881
    38  H    0.155294
    39  H    0.155262
    40  H    0.160378
 Sum of Mulliken charges =  -0.00000

 Dipole moment (field-independent basis, Debye):
    X=             -0.0172    Y=             -0.0115    Z=              0.0188  Tot=              0.0279
 Quadrupole moment (field-independent basis, Debye-Ang):
   XX=            -84.6395   YY=            -84.9012   ZZ=            -85.1485
   XY=              1.4204   XZ=             -0.0710   YZ=             -0.6303

 Normal termination of Gaussian 16 at Wed May  5 15:20:50 2021.
