 Gaussian 16, Revision A.03,
 Gaussian 16:  EM64L-G16RevA.03 25-Dec-2016

 -------------
 #p 6-31g* mp2
 -------------

 ------------------------------------------------------
 Input file generated by CHIRIPA (05-May-2021 14:51:13)
 ------------------------------------------------------
 Symbolic Z-matrix:
 Charge =  0 Multiplicity = 1

                         Standard orientation:
 ---------------------------------------------------------------------
 Center     Atomic      Atomic             Coordinates (Angstroms)
 Number     Number       Type             X           Y           Z
 ---------------------------------------------------------------------
      1          6           0       -4.676746    0.473898   -0.355479
      2          6           0       -5.736311    1.177411    0.493270
      3          6           0       -6.596421    2.146341   -0.318629
      4          1           0       -4.034039    1.229113   -0.828261
      5          1           0       -5.172407   -0.069875   -1.171583
      6          1           0       -5.238896    1.718564    1.308345
      7          1           0       -6.376452    0.420428    0.964239
      8          1           0       -7.118757    1.617207   -1.122236
      9          1           0       -5.974738    2.922718   -0.776175
     10          1           0       -7.347189    2.638217    0.307682
     11          6           0       -3.808932   -0.497979    0.442069
     12          6           0       -2.749366   -1.201492   -0.406680
     13          6           0       -1.889256   -2.170422    0.405219
     14          1           0       -3.313270    0.045794    1.258173
     15          1           0       -4.451639   -1.253194    0.914851
     16          1           0       -2.109225   -0.444509   -0.877650
     17          1           0       -3.246782   -1.742645   -1.221756
     18          1           0       -2.510940   -2.946799    0.862764
     19          1           0       -1.366920   -1.641287    1.208825
     20          1           0       -1.138489   -2.662298   -0.221093
     21          6           0        3.496550   -0.145646   -0.083542
     22          6           0        3.195782   -1.643529   -0.145730
     23          6           0        1.698562   -1.943016   -0.225933
     24          1           0        2.987178    0.288284    0.787774
     25          1           0        3.070747    0.343878   -0.970363
     26          1           0        3.623222   -2.130294    0.740257
     27          1           0        3.706084   -2.073980   -1.016890
     28          1           0        1.261086   -1.483744   -1.118281
     29          1           0        1.177753   -1.540378    0.648848
     30          1           0        1.506255   -3.019575   -0.269504
     31          6           0        4.989128    0.169727   -0.003048
     32          6           0        5.289895    1.667610    0.059140
     33          6           0        6.787116    1.967097    0.139344
     34          1           0        5.414930   -0.319798    0.883775
     35          1           0        5.498499   -0.264204   -0.874363
     36          1           0        4.779592    2.098061    0.930301
     37          1           0        4.862455    2.154375   -0.826845
     38          1           0        7.307924    1.564459   -0.735438
     39          1           0        7.224591    1.507825    1.031692
     40          1           0        6.979422    3.043657    0.182914
 ---------------------------------------------------------------------

 SCF Done:  E(RHF) =  -470.732537384     A.U. after   11 cycles
 E2 =    -0.1582743451D+01 EUMP2 =    -0.47231528083446D+03

 The electronic state is 1-A.
 Alpha  occ. eigenvalues --  -11.21603 -11.21573 -11.21559 -11.21517 -11.21400
 Alpha  occ. eigenvalues --  -11.21358 -11.21341 -11.21296 -11.21073 -11.21050
 Alpha  occ. eigenvalues --  -11.21013 -11.20890  -1.08423  -1.08374  -1.03542
 Alpha  occ. eigenvalues --   -1.03441  -0.96048  -0.95839  -0.87123  -0.86803
 Alpha  occ. eigenvalues --   -0.79673  -0.79445  -0.78238  -0.78188  -0.65058
 Alpha  occ. eigenvalues --   -0.65004  -0.60963  -0.60828  -0.59466  -0.59180
 Alpha  occ. eigenvalues --   -0.57591  -0.57517  -0.55373  -0.55110  -0.52990
 Alpha  occ. eigenvalues --   -0.52485  -0.52350  -0.52149  -0.50045  -0.49717
 Alpha  occ. eigenvalues --   -0.47879  -0.47845  -0.46693  -0.46475  -0.45776
 Alpha  occ. eigenvalues --   -0.45728  -0.45707  -0.45635  -0.43920  -0.43539
 Alpha virt. eigenvalues --    0.22232   0.22984   0.23569   0.24813   0.26285
 Alpha virt. eigenvalues --    0.26563   0.27124   0.27423   0.27552   0.29235
 Alpha virt. eigenvalues --    0.29377   0.30895   0.31402   0.32135   0.32266

 Mulliken charges:
               1
     1  C   -0.298198
     2  C   -0.299584
     3  C   -0.475666
     4  H    0.149500
     5  H    0.149401
     6  H    0.151811
     7  H    0.151876
     8  H    0.155130
     9  H    0.155109
    10  H    0.160136
    11  C   -0.298310
    12  C   -0.300225
    13  C   -0.478537
    14  H    0.149221
    15  H    0.149525
    16  H    0.151921
    17  H    0.151357
    18  H    0.153377
    19  H    0.154160
    20  H    0.168478
    21  C   -0.298302
    22  C   -0.301203
    23  C   -0.476121
    24  H    0.149247
    25  H    0.149291
    26  H    0.151791
    27  H    0.151486
    28  H    0.154587
    29  H    0.159322
    30  H    0.159427
    31  C   -0.298231
    32  C   -0.299600
    33  C   -0.475694
    34  H    0.149545
    35  H    0.149684
    36  H    0.151824
    37  H    0.151851
    38  H    0.155198
    39  H    0.155198
    40  H    0.160217
 Sum of Mulliken charges =  -0.00000

 Dipole moment (field-independent basis, Debye):
    X=              0.0180    Y=             -0.0195    Z=             -0.0009  Tot=              0.0265
 Quadrupole moment (field-independent basis, Debye-Ang):
   XX=            -86.2123   YY=            -84.8934   ZZ=            -83.9192
   XY=              0.6326   XZ=             -0.2574   YZ=              0.4428

 Normal termination of Gaussian 16 at Wed May  5 18:21:50 2021.
