 Gaussian 16, Revision A.03,
 Gaussian 16:  EM64L-G16RevA.03 25-Dec-2016

 -------------
 #p 6-31g* mp2
 -------------

 ------------------------------------------------------
 Input file generated by CHIRIPA (05-May-2021 14:53:14)
 ------------------------------------------------------
 Symbolic Z-matrix:
 Charge =  0 Multiplicity = 1

                         Standard orientation:
 ---------------------------------------------------------------------
 Center     Atomic      Atomic             Coordinates (Angstroms)
 Number     Number       Type             X           Y           Z
 ---------------------------------------------------------------------
      1          6           0        3.441749    0.785736    0.420071
      2          6           0        3.980612    1.938369   -0.427896
      3          6           0        3.866133    3.292129    0.273546
      4          1           0        2.390287    0.983101    0.669909
      5          1           0        3.988630    0.753612    1.372585
      6          1           0        3.433818    1.967447   -1.379099
      7          1           0        5.030859    1.738144   -0.675906
      8          1           0        4.426683    3.287365    1.213952
      9          1           0        2.820568    3.517971    0.506763
     10          1           0        4.257115    4.101898   -0.350367
     11          6           0        3.549302   -0.574127   -0.267632
     12          6           0        3.010439   -1.726759    0.580335
     13          6           0        3.124919   -3.080520   -0.121107
     14          1           0        3.002421   -0.542003   -1.220146
     15          1           0        4.600765   -0.771491   -0.517470
     16          1           0        1.960192   -1.526535    0.828345
     17          1           0        3.557233   -1.755838    1.531538
     18          1           0        4.170484   -3.306362   -0.354324
     19          1           0        2.564369   -3.075756   -1.061513
     20          1           0        2.733937   -3.890288    0.502806
     21          6           0       -0.798535   -1.695308   -0.236558
     22          6           0       -2.082279   -2.170013    0.051852
     23          6           0       -3.160370   -1.285605    0.152302
     24          6           0       -2.917691    0.073245   -0.042434
     25          6           0       -1.650282    0.576900   -0.331040
     26          6           0       -0.587007   -0.325781   -0.426748
     27          1           0        0.033198   -2.389435   -0.312749
     28          1           0       -2.249507   -3.233084    0.200041
     29          1           0       -4.164450   -1.626021    0.374471
     30          1           0       -1.514696    1.642122   -0.473651
     31          1           0        0.408891    0.045719   -0.650847
     32          7           0       -4.051176    1.019201    0.061398
     33          8           0       -3.811106    2.211706   -0.114479
     34          8           0       -5.158208    0.550223    0.316695
 ---------------------------------------------------------------------

 SCF Done:  E(RHF) =  -669.534554562     A.U. after   15 cycles
 E2 =    -0.2093633908D+01 EUMP2 =    -0.67162818846959D+03

 The electronic state is 1-A.
 Alpha  occ. eigenvalues --  -20.60762 -20.60757 -15.85815 -11.31187 -11.27759
 Alpha  occ. eigenvalues --  -11.27755 -11.27445 -11.26755 -11.26737 -11.22787
 Alpha  occ. eigenvalues --  -11.22543 -11.22417 -11.22354 -11.22345 -11.21677
 Alpha  occ. eigenvalues --   -1.59837  -1.39391  -1.19359  -1.09519  -1.08744
 Alpha  occ. eigenvalues --   -1.04766  -1.04542  -0.96995  -0.95585  -0.87996
 Alpha  occ. eigenvalues --   -0.86165  -0.82421  -0.80606  -0.79277  -0.77471
 Alpha  occ. eigenvalues --   -0.72035  -0.71161  -0.70524  -0.66376  -0.65007
 Alpha  occ. eigenvalues --   -0.64605  -0.62129  -0.61899  -0.60363  -0.58575
 Alpha  occ. eigenvalues --   -0.56449  -0.55079  -0.53652  -0.53390  -0.53096
 Alpha  occ. eigenvalues --   -0.52824  -0.50948  -0.48894  -0.48792  -0.48787
 Alpha  occ. eigenvalues --   -0.47672  -0.46783  -0.46755  -0.44796  -0.44794
 Alpha  occ. eigenvalues --   -0.37306  -0.36360
 Alpha virt. eigenvalues --    0.05042   0.11148   0.16466   0.18368   0.22160
 Alpha virt. eigenvalues --    0.23824   0.25144   0.25995   0.26632   0.28744
 Alpha virt. eigenvalues --    0.29802   0.30510   0.30969   0.31438   0.32262

 Mulliken charges:
               1
     1  C   -0.302638
     2  C   -0.300610
     3  C   -0.476095
     4  H    0.146494
     5  H    0.155166
     6  H    0.150081
     7  H    0.155059
     8  H    0.157468
     9  H    0.155575
    10  H    0.163590
    11  C   -0.302183
    12  C   -0.308886
    13  C   -0.481040
    14  H    0.144170
    15  H    0.156422
    16  H    0.150165
    17  H    0.159397
    18  H    0.163228
    19  H    0.150467
    20  H    0.161861
    21  C   -0.177362
    22  C   -0.220386
    23  C   -0.170598
    24  C    0.158527
    25  C   -0.172691
    26  C   -0.225927
    27  H    0.235424
    28  H    0.223890
    29  H    0.275613
    30  H    0.275582
    31  H    0.233014
    32  N    0.488076
    33  O   -0.460440
    34  O   -0.460412
 Sum of Mulliken charges =  -0.00000

 Dipole moment (field-independent basis, Debye):
    X=              4.2344    Y=             -3.3018    Z=             -0.2983  Tot=              5.3778
 Quadrupole moment (field-independent basis, Debye-Ang):
   XX=           -114.4467   YY=            -93.2895   ZZ=            -95.3652
   XY=             12.7735   XZ=              0.8058   YZ=             -1.2465

 Normal termination of Gaussian 16 at Thu May  6 13:46:08 2021.
