 Gaussian 16, Revision A.03,
 Gaussian 16:  EM64L-G16RevA.03 25-Dec-2016

 -------------
 #p 6-31g* mp2
 -------------

 ------------------------------------------------------
 Input file generated by CHIRIPA (05-May-2021 14:55:24)
 ------------------------------------------------------
 Symbolic Z-matrix:
 Charge =  0 Multiplicity = 1

                         Standard orientation:
 ---------------------------------------------------------------------
 Center     Atomic      Atomic             Coordinates (Angstroms)
 Number     Number       Type             X           Y           Z
 ---------------------------------------------------------------------
      1          6           0       -4.997406    1.909588   -0.216138
      2          6           0       -4.507433    1.585856    1.053368
      3          6           0       -3.596426    0.538057    1.216862
      4          6           0       -3.194956   -0.168235    0.084050
      5          6           0       -3.665072    0.130217   -1.193920
      6          6           0       -4.575406    1.182018   -1.333760
      7          1           0       -5.704837    2.725098   -0.333957
      8          1           0       -4.833409    2.149176    1.923112
      9          1           0       -3.201173    0.266179    2.188086
     10          1           0       -3.321626   -0.449459   -2.042117
     11          1           0       -4.954255    1.431204   -2.320889
     12          7           0       -2.230869   -1.279611    0.244613
     13          8           0       -1.892790   -1.886548   -0.769274
     14          8           0       -1.831553   -1.522727    1.381309
     15          6           0        3.706462   -0.296241   -0.477064
     16          6           0        2.680832   -1.041358    0.377843
     17          6           0        1.513538   -1.589886   -0.443335
     18          1           0        3.206285    0.528780   -1.002523
     19          1           0        4.089079   -0.974331   -1.252430
     20          1           0        2.301284   -0.362474    1.152231
     21          1           0        3.183548   -1.864584    0.901478
     22          1           0        1.873499   -2.288105   -1.205909
     23          1           0        0.986223   -0.777461   -0.953731
     24          1           0        0.792373   -2.118783    0.187578
     25          6           0        4.879390    0.258012    0.329641
     26          6           0        5.905021    1.003129   -0.525266
     27          6           0        7.072316    1.551658    0.295912
     28          1           0        4.496774    0.936102    1.105007
     29          1           0        5.379567   -0.567009    0.855100
     30          1           0        5.402306    1.826355   -1.048901
     31          1           0        6.284569    0.324246   -1.299654
     32          1           0        7.599630    0.739231    0.806308
     33          1           0        6.712353    2.249876    1.058486
     34          1           0        7.793479    2.080554   -0.335001
 ---------------------------------------------------------------------

 SCF Done:  E(RHF) =  -669.536135964     A.U. after   15 cycles
 E2 =    -0.2091901010D+01 EUMP2 =    -0.67162803697426D+03

 The electronic state is 1-A.
 Alpha  occ. eigenvalues --  -20.60990 -20.60980 -15.85974 -11.31309 -11.27866
 Alpha  occ. eigenvalues --  -11.27862 -11.27603 -11.26872 -11.26862 -11.21092
 Alpha  occ. eigenvalues --  -11.20713 -11.20664 -11.20501 -11.20356 -11.19277
 Alpha  occ. eigenvalues --   -1.60021  -1.39578  -1.19472  -1.08878  -1.07618
 Alpha  occ. eigenvalues --   -1.04867  -1.02600  -0.95726  -0.95011  -0.86268
 Alpha  occ. eigenvalues --   -0.86027  -0.82554  -0.78708  -0.77611  -0.77388
 Alpha  occ. eigenvalues --   -0.72197  -0.71331  -0.70581  -0.65126  -0.64871
 Alpha  occ. eigenvalues --   -0.64269  -0.62213  -0.60022  -0.58457  -0.56607
 Alpha  occ. eigenvalues --   -0.55371  -0.54344  -0.53203  -0.52958  -0.51691
 Alpha  occ. eigenvalues --   -0.51453  -0.49069  -0.48972  -0.48827  -0.46986
 Alpha  occ. eigenvalues --   -0.45805  -0.45083  -0.44876  -0.44761  -0.42768
 Alpha  occ. eigenvalues --   -0.37446  -0.36467
 Alpha virt. eigenvalues --    0.04901   0.11187   0.16395   0.21326   0.23582
 Alpha virt. eigenvalues --    0.25294   0.27243   0.27382   0.28182   0.28237
 Alpha virt. eigenvalues --    0.29058   0.30908   0.32201   0.32414   0.32553

 Mulliken charges:
               1
     1  C   -0.170580
     2  C   -0.218606
     3  C   -0.170888
     4  C    0.160350
     5  C   -0.170978
     6  C   -0.218604
     7  H    0.226034
     8  H    0.223857
     9  H    0.275844
    10  H    0.276084
    11  H    0.223912
    12  N    0.488372
    13  O   -0.456588
    14  O   -0.460818
    15  C   -0.296752
    16  C   -0.300497
    17  C   -0.477946
    18  H    0.145811
    19  H    0.147901
    20  H    0.148763
    21  H    0.149204
    22  H    0.148813
    23  H    0.145639
    24  H    0.187564
    25  C   -0.297140
    26  C   -0.298777
    27  C   -0.475148
    28  H    0.147562
    29  H    0.149019
    30  H    0.150085
    31  H    0.151301
    32  H    0.154891
    33  H    0.154005
    34  H    0.158312
 Sum of Mulliken charges =  -0.00000

 Dipole moment (field-independent basis, Debye):
    X=             -3.7821    Y=              3.7939    Z=             -0.5355  Tot=              5.3838
 Quadrupole moment (field-independent basis, Debye-Ang):
   XX=            -75.4248   YY=            -95.9036   ZZ=            -90.2725
   XY=            -13.2942   XZ=              1.3562   YZ=              1.2748

 Normal termination of Gaussian 16 at Wed May  5 20:45:11 2021.
