 Gaussian 16, Revision A.03,
 Gaussian 16:  EM64L-G16RevA.03 25-Dec-2016

 -------------
 #p 6-31g* mp2
 -------------

 ------------------------------------------------------
 Input file generated by CHIRIPA (05-May-2021 14:53:17)
 ------------------------------------------------------
 Symbolic Z-matrix:
 Charge =  0 Multiplicity = 1

                         Standard orientation:
 ---------------------------------------------------------------------
 Center     Atomic      Atomic             Coordinates (Angstroms)
 Number     Number       Type             X           Y           Z
 ---------------------------------------------------------------------
      1          6           0        2.899621   -0.247118    0.189824
      2          6           0        3.738305   -1.381331   -0.400223
      3          6           0        3.399287   -2.743851    0.205086
      4          1           0        3.051530   -0.214812    1.277401
      5          1           0        1.834858   -0.465997    0.029308
      6          1           0        4.801218   -1.159704   -0.239866
      7          1           0        3.584530   -1.410818   -1.486547
      8          1           0        2.346737   -2.990858    0.032669
      9          1           0        3.570338   -2.738317    1.286433
     10          1           0        4.010479   -3.540175   -0.231002
     11          6           0        3.226983    1.121242   -0.405286
     12          6           0        2.388299    2.255455    0.184761
     13          6           0        2.727317    3.617975   -0.420548
     14          1           0        4.291747    1.340121   -0.244770
     15          1           0        3.075075    1.088936   -1.492863
     16          1           0        2.542074    2.284942    1.271085
     17          1           0        1.325387    2.033828    0.024404
     18          1           0        2.556267    3.612442   -1.501895
     19          1           0        3.779867    3.864982   -0.248131
     20          1           0        2.116125    4.414299    0.015540
     21          6           0       -0.913972   -2.384237    0.153692
     22          6           0       -2.001319   -2.336935   -0.724921
     23          6           0       -2.827648   -1.210207   -0.771960
     24          6           0       -2.536212   -0.143966    0.077443
     25          6           0       -1.460331   -0.161023    0.963716
     26          6           0       -0.647419   -1.298044    0.993726
     27          1           0       -0.277271   -3.263505    0.183619
     28          1           0       -2.210720   -3.179010   -1.378454
     29          1           0       -3.676027   -1.147052   -1.442543
     30          1           0       -1.276795    0.693954    1.603052
     31          1           0        0.196338   -1.331999    1.677075
     32          7           0       -3.403907    1.054300    0.036660
     33          8           0       -3.125872    1.980528    0.795234
     34          8           0       -4.345613    1.044582   -0.753109
 ---------------------------------------------------------------------

 SCF Done:  E(RHF) =  -669.534792766     A.U. after   15 cycles
 E2 =    -0.2093701169D+01 EUMP2 =    -0.67162849393518D+03

 The electronic state is 1-A.
 Alpha  occ. eigenvalues --  -20.60808 -20.60803 -15.85860 -11.31252 -11.27798
 Alpha  occ. eigenvalues --  -11.27786 -11.27529 -11.26834 -11.26775 -11.22293
 Alpha  occ. eigenvalues --  -11.22063 -11.21932 -11.21882 -11.21754 -11.21174
 Alpha  occ. eigenvalues --   -1.59882  -1.39435  -1.19419  -1.08961  -1.08795
 Alpha  occ. eigenvalues --   -1.04819  -1.04039  -0.96502  -0.95639  -0.87524
 Alpha  occ. eigenvalues --   -0.86216  -0.82469  -0.80130  -0.78778  -0.77492
 Alpha  occ. eigenvalues --   -0.72077  -0.71206  -0.70521  -0.65608  -0.65062
 Alpha  occ. eigenvalues --   -0.64791  -0.62157  -0.61430  -0.59885  -0.58112
 Alpha  occ. eigenvalues --   -0.55883  -0.55255  -0.53261  -0.53129  -0.53007
 Alpha  occ. eigenvalues --   -0.52792  -0.50449  -0.48841  -0.48831  -0.48425
 Alpha  occ. eigenvalues --   -0.47153  -0.46281  -0.46179  -0.44834  -0.44269
 Alpha  occ. eigenvalues --   -0.37365  -0.36344
 Alpha virt. eigenvalues --    0.04972   0.11104   0.16375   0.19966   0.22742
 Alpha virt. eigenvalues --    0.23683   0.25265   0.26071   0.26585   0.28234
 Alpha virt. eigenvalues --    0.29128   0.29881   0.31154   0.31471   0.31835

 Mulliken charges:
               1
     1  C   -0.310228
     2  C   -0.298118
     3  C   -0.479057
     4  H    0.144463
     5  H    0.157583
     6  H    0.155025
     7  H    0.154399
     8  H    0.145389
     9  H    0.155223
    10  H    0.164515
    11  C   -0.297143
    12  C   -0.302242
    13  C   -0.476043
    14  H    0.150372
    15  H    0.151667
    16  H    0.149784
    17  H    0.153723
    18  H    0.156700
    19  H    0.154781
    20  H    0.164479
    21  C   -0.174843
    22  C   -0.218124
    23  C   -0.171111
    24  C    0.158615
    25  C   -0.173170
    26  C   -0.219620
    27  H    0.228696
    28  H    0.223896
    29  H    0.275750
    30  H    0.276816
    31  H    0.230082
    32  N    0.488047
    33  O   -0.460094
    34  O   -0.460210
 Sum of Mulliken charges =  -0.00000

 Dipole moment (field-independent basis, Debye):
    X=              3.0735    Y=             -4.1404    Z=              0.0858  Tot=              5.1572
 Quadrupole moment (field-independent basis, Debye-Ang):
   XX=           -108.5823   YY=            -94.0619   ZZ=            -92.2078
   XY=             11.7991   XZ=              2.5105   YZ=              1.8761

 Normal termination of Gaussian 16 at Wed May  5 20:23:38 2021.
