 Gaussian 16, Revision A.03,
 Gaussian 16:  EM64L-G16RevA.03 25-Dec-2016

 -------------
 #p 6-31g* mp2
 -------------

 ------------------------------------------------------
 Input file generated by CHIRIPA (05-May-2021 14:55:24)
 ------------------------------------------------------
 Symbolic Z-matrix:
 Charge =  0 Multiplicity = 1

                         Standard orientation:
 ---------------------------------------------------------------------
 Center     Atomic      Atomic             Coordinates (Angstroms)
 Number     Number       Type             X           Y           Z
 ---------------------------------------------------------------------
      1          6           0       -2.246033    2.654645    0.061890
      2          6           0       -2.464881    1.992787   -1.150781
      3          6           0       -2.831518    0.643768   -1.167303
      4          6           0       -2.971006   -0.015678    0.052929
      5          6           0       -2.759929    0.616127    1.277493
      6          6           0       -2.393995    1.965418    1.270027
      7          1           0       -1.961493    3.702701    0.065408
      8          1           0       -2.350705    2.525530   -2.090565
      9          1           0       -3.007090    0.107009   -2.091685
     10          1           0       -2.881473    0.058508    2.198202
     11          1           0       -2.224679    2.476870    2.213315
     12          7           0       -3.358777   -1.443967    0.048135
     13          8           0       -3.475142   -2.002520    1.136765
     14          8           0       -3.539004   -1.977863   -1.044161
     15          6           0        3.050278   -0.150581   -0.409902
     16          6           0        1.893807   -0.940341    0.203968
     17          6           0        0.558442   -0.668296   -0.489275
     18          1           0        2.820928    0.922608   -0.358810
     19          1           0        3.131743   -0.402370   -1.476373
     20          1           0        1.815426   -0.688177    1.269278
     21          1           0        2.126023   -2.011765    0.151581
     22          1           0        0.612731   -0.937388   -1.549106
     23          1           0        0.300369    0.393719   -0.425059
     24          1           0       -0.254404   -1.243052   -0.034525
     25          6           0        4.391890   -0.411907    0.272383
     26          6           0        5.548362    0.377854   -0.341488
     27          6           0        6.883727    0.105808    0.351755
     28          1           0        4.310426   -0.160116    1.338854
     29          1           0        4.621241   -1.485094    0.221291
     30          1           0        5.316146    1.449277   -0.289101
     31          1           0        5.626743    0.125689   -1.406798
     32          1           0        7.141799   -0.956207    0.287540
     33          1           0        6.829437    0.374902    1.411587
     34          1           0        7.696572    0.680565   -0.102994
 ---------------------------------------------------------------------

 SCF Done:  E(RHF) =  -669.534595606     A.U. after   15 cycles
 E2 =    -0.2093367104D+01 EUMP2 =    -0.67162796271090D+03

 The electronic state is 1-A.
 Alpha  occ. eigenvalues --  -20.60780 -20.60775 -15.85823 -11.31136 -11.27740
 Alpha  occ. eigenvalues --  -11.27725 -11.27526 -11.26792 -11.26776 -11.21690
 Alpha  occ. eigenvalues --  -11.21536 -11.21453 -11.21395 -11.21147 -11.20944
 Alpha  occ. eigenvalues --   -1.59857  -1.39409  -1.19360  -1.08768  -1.08462
 Alpha  occ. eigenvalues --   -1.04762  -1.03539  -0.95998  -0.95595  -0.87022
 Alpha  occ. eigenvalues --   -0.86163  -0.82429  -0.79616  -0.78281  -0.77471
 Alpha  occ. eigenvalues --   -0.72049  -0.71194  -0.70479  -0.65097  -0.65016
 Alpha  occ. eigenvalues --   -0.64775  -0.62110  -0.60946  -0.59383  -0.57607
 Alpha  occ. eigenvalues --   -0.55361  -0.55279  -0.53426  -0.52860  -0.52510
 Alpha  occ. eigenvalues --   -0.52244  -0.49867  -0.48807  -0.48803  -0.47923
 Alpha  occ. eigenvalues --   -0.46620  -0.45815  -0.45745  -0.44813  -0.43819
 Alpha  occ. eigenvalues --   -0.37287  -0.36346
 Alpha virt. eigenvalues --    0.05048   0.11252   0.16549   0.21404   0.22816
 Alpha virt. eigenvalues --    0.24242   0.26593   0.27269   0.27476   0.27751
 Alpha virt. eigenvalues --    0.28362   0.30664   0.31322   0.31614   0.31842

 Mulliken charges:
               1
     1  C   -0.172040
     2  C   -0.218391
     3  C   -0.167962
     4  C    0.159804
     5  C   -0.171198
     6  C   -0.218029
     7  H    0.225583
     8  H    0.223608
     9  H    0.275593
    10  H    0.275406
    11  H    0.223354
    12  N    0.489729
    13  O   -0.461067
    14  O   -0.459945
    15  C   -0.298068
    16  C   -0.299634
    17  C   -0.478293
    18  H    0.146078
    19  H    0.149600
    20  H    0.150042
    21  H    0.154857
    22  H    0.154595
    23  H    0.155735
    24  H    0.160669
    25  C   -0.298143
    26  C   -0.299404
    27  C   -0.475665
    28  H    0.148798
    29  H    0.151214
    30  H    0.150155
    31  H    0.152108
    32  H    0.156093
    33  H    0.154858
    34  H    0.159959
 Sum of Mulliken charges =  -0.00000

 Dipole moment (field-independent basis, Debye):
    X=              1.3074    Y=              5.0204    Z=             -0.0044  Tot=              5.1878
 Quadrupole moment (field-independent basis, Debye-Ang):
   XX=           -104.9116   YY=            -94.9522   ZZ=            -89.4827
   XY=            -15.2973   XZ=             -0.2685   YZ=              0.7592

 Normal termination of Gaussian 16 at Thu May  6 17:39:52 2021.
