 Gaussian 16, Revision A.03,
 Gaussian 16:  EM64L-G16RevA.03 25-Dec-2016

 -------------
 #p 6-31g* mp2
 -------------

 ------------------------------------------------------
 Input file generated by CHIRIPA (05-May-2021 14:55:22)
 ------------------------------------------------------
 Symbolic Z-matrix:
 Charge =  0 Multiplicity = 1

                         Standard orientation:
 ---------------------------------------------------------------------
 Center     Atomic      Atomic             Coordinates (Angstroms)
 Number     Number       Type             X           Y           Z
 ---------------------------------------------------------------------
      1          6           0        1.341855    0.015576    0.980338
      2          6           0        1.920193    1.257519    0.698160
      3          6           0        3.239581    1.339388    0.243121
      4          6           0        3.954884    0.153945    0.080771
      5          6           0        3.406640   -1.098407    0.353412
      6          6           0        2.085613   -1.156356    0.807369
      7          1           0        0.316285   -0.038731    1.333403
      8          1           0        1.344960    2.169305    0.831567
      9          1           0        3.711990    2.287646    0.017167
     10          1           0        4.005129   -1.989956    0.210696
     11          1           0        1.639054   -2.122250    1.025726
     12          7           0        5.352529    0.227955   -0.400386
     13          8           0        5.961547   -0.831081   -0.535202
     14          8           0        5.812519    1.343600   -0.633589
     15          6           0       -4.074119   -0.156649   -0.524537
     16          6           0       -3.123013   -1.229853    0.006138
     17          6           0       -1.740029   -1.167385   -0.642896
     18          1           0       -4.172876   -0.268971   -1.612918
     19          1           0       -3.631237    0.833952   -0.351448
     20          1           0       -3.568186   -2.218073   -0.166653
     21          1           0       -3.026659   -1.115082    1.093411
     22          1           0       -1.271842   -0.194934   -0.459207
     23          1           0       -1.816446   -1.304192   -1.726429
     24          1           0       -1.076255   -1.943318   -0.248950
     25          6           0       -5.460690   -0.206225    0.114755
     26          6           0       -6.411796    0.866979   -0.415921
     27          6           0       -7.794781    0.804511    0.233114
     28          1           0       -5.903573   -1.196826   -0.058334
     29          1           0       -5.361934   -0.093902    1.203136
     30          1           0       -6.508150    0.752207   -1.503193
     31          1           0       -5.966624    1.855199   -0.243130
     32          1           0       -7.718363    0.941318    1.316647
     33          1           0       -8.262967   -0.167940    0.049425
     34          1           0       -8.458555    1.580444   -0.160832
 ---------------------------------------------------------------------

 SCF Done:  E(RHF) =  -669.534623671     A.U. after   15 cycles
 E2 =    -0.2091718847D+01 EUMP2 =    -0.67162634251742D+03

 The electronic state is 1-A.
 Alpha  occ. eigenvalues --  -20.60721 -20.60715 -15.85776 -11.31127 -11.27718
 Alpha  occ. eigenvalues --  -11.27712 -11.27404 -11.26714 -11.26700 -11.22533
 Alpha  occ. eigenvalues --  -11.22163 -11.22135 -11.22118 -11.22004 -11.21522
 Alpha  occ. eigenvalues --   -1.59797  -1.39351  -1.19310  -1.09165  -1.08703
 Alpha  occ. eigenvalues --   -1.04715  -1.04279  -0.96741  -0.95534  -0.87751
 Alpha  occ. eigenvalues --   -0.86112  -0.82377  -0.80344  -0.78942  -0.77423
 Alpha  occ. eigenvalues --   -0.71994  -0.71121  -0.70449  -0.65797  -0.64963
 Alpha  occ. eigenvalues --   -0.64730  -0.62072  -0.61690  -0.60117  -0.58325
 Alpha  occ. eigenvalues --   -0.56192  -0.55075  -0.53488  -0.53162  -0.52954
 Alpha  occ. eigenvalues --   -0.52803  -0.50628  -0.48758  -0.48749  -0.48644
 Alpha  occ. eigenvalues --   -0.47372  -0.46487  -0.46400  -0.44760  -0.44524
 Alpha  occ. eigenvalues --   -0.37235  -0.36323
 Alpha virt. eigenvalues --    0.05102   0.11262   0.16536   0.19877   0.22518
 Alpha virt. eigenvalues --    0.23969   0.25600   0.26122   0.26894   0.27183
 Alpha virt. eigenvalues --    0.29406   0.29809   0.31010   0.31196   0.31701

 Mulliken charges:
               1
     1  C   -0.166760
     2  C   -0.221037
     3  C   -0.170352
     4  C    0.158119
     5  C   -0.170999
     6  C   -0.220252
     7  H    0.229274
     8  H    0.222712
     9  H    0.275403
    10  H    0.275432
    11  H    0.222856
    12  N    0.488145
    13  O   -0.460640
    14  O   -0.460691
    15  C   -0.298188
    16  C   -0.301729
    17  C   -0.478136
    18  H    0.152674
    19  H    0.147558
    20  H    0.155837
    21  H    0.147862
    22  H    0.151555
    23  H    0.162645
    24  H    0.154870
    25  C   -0.298652
    26  C   -0.300079
    27  C   -0.476060
    28  H    0.151157
    29  H    0.149210
    30  H    0.153285
    31  H    0.151736
    32  H    0.155310
    33  H    0.156100
    34  H    0.161836
 Sum of Mulliken charges =  -0.00000

 Dipole moment (field-independent basis, Debye):
    X=             -5.1162    Y=             -0.2775    Z=              1.6242  Tot=              5.3750
 Quadrupole moment (field-independent basis, Debye-Ang):
   XX=           -134.7663   YY=            -89.4680   ZZ=            -94.8825
   XY=             -1.8830   XZ=              7.1863   YZ=              0.5042

 Normal termination of Gaussian 16 at Thu May  6 07:51:06 2021.
