 Gaussian 16, Revision A.03,
 Gaussian 16:  EM64L-G16RevA.03 25-Dec-2016

 -------------
 #p 6-31g* mp2
 -------------

 ------------------------------------------------------
 Input file generated by CHIRIPA (05-May-2021 14:57:25)
 ------------------------------------------------------
 Symbolic Z-matrix:
 Charge =  0 Multiplicity = 1

                         Standard orientation:
 ---------------------------------------------------------------------
 Center     Atomic      Atomic             Coordinates (Angstroms)
 Number     Number       Type             X           Y           Z
 ---------------------------------------------------------------------
      1          6           0        3.789630    2.393871    0.143972
      2          6           0        2.614927    2.049671    0.820818
      3          6           0        2.123440    0.741844    0.770032
      4          6           0        2.835155   -0.200775    0.029612
      5          6           0        4.008412    0.111264   -0.655509
      6          6           0        4.481403    1.425277   -0.590736
      7          1           0        4.164245    3.412225    0.188856
      8          1           0        2.075608    2.799820    1.392180
      9          1           0        1.216559    0.448112    1.284527
     10          1           0        4.524120   -0.658369   -1.216872
     11          1           0        5.393959    1.689730   -1.117379
     12          7           0        2.324629   -1.588587   -0.031557
     13          8           0        2.970150   -2.400592   -0.690790
     14          8           0        1.288626   -1.838070    0.580891
     15          6           0       -2.084572   -2.369443    0.392264
     16          6           0       -2.369121   -1.957545   -0.913834
     17          6           0       -2.832155   -0.662516   -1.164930
     18          6           0       -2.999993    0.198413   -0.081453
     19          6           0       -2.725175   -0.182361    1.231093
     20          6           0       -2.263191   -1.482101    1.458679
     21          1           0       -1.725285   -3.377283    0.578189
     22          1           0       -2.231340   -2.644525   -1.743967
     23          1           0       -3.060108   -0.317510   -2.166143
     24          1           0       -2.872389    0.525018    2.038161
     25          1           0       -2.043010   -1.799248    2.474051
     26          7           0       -3.489630    1.571896   -0.334833
     27          8           0       -3.629166    2.311325    0.636975
     28          8           0       -3.724600    1.882995   -1.500441
 ---------------------------------------------------------------------

 SCF Done:  E(RHF) =  -868.339667560     A.U. after   16 cycles
 E2 =    -0.2599680943D+01 EUMP2 =    -0.87093934850347D+03

 The electronic state is 1-A.
 Alpha  occ. eigenvalues --  -20.61252 -20.61247 -20.60454 -20.60439 -15.86280
 Alpha  occ. eigenvalues --  -15.85496 -11.31417 -11.30569 -11.27964 -11.27943
 Alpha  occ. eigenvalues --  -11.27643 -11.27170 -11.27119 -11.26926 -11.26887
 Alpha  occ. eigenvalues --  -11.26663 -11.26012 -11.25963  -1.60324  -1.59536
 Alpha  occ. eigenvalues --   -1.39883  -1.39097  -1.19565  -1.18706  -1.09003
 Alpha  occ. eigenvalues --   -1.08103  -1.04931  -1.04085  -0.95882  -0.95000
 Alpha  occ. eigenvalues --   -0.86339  -0.85471  -0.82722  -0.81866  -0.77794
 Alpha  occ. eigenvalues --   -0.76987  -0.72539  -0.71718  -0.71630  -0.70865
 Alpha  occ. eigenvalues --   -0.70668  -0.69732  -0.65221  -0.64927  -0.64345
 Alpha  occ. eigenvalues --   -0.64066  -0.62282  -0.61462  -0.55436  -0.54466
 Alpha  occ. eigenvalues --   -0.53275  -0.53020  -0.52385  -0.52167  -0.49289
 Alpha  occ. eigenvalues --   -0.49257  -0.48491  -0.48445  -0.45339  -0.44571
 Alpha  occ. eigenvalues --   -0.37534  -0.36545  -0.36470  -0.35707
 Alpha virt. eigenvalues --    0.04690   0.05587   0.11134   0.11986   0.16238
 Alpha virt. eigenvalues --    0.17200   0.21280   0.22196   0.27176   0.27888
 Alpha virt. eigenvalues --    0.28226   0.29121   0.30859   0.31816   0.32247

 Mulliken charges:
               1
     1  C   -0.169846
     2  C   -0.218147
     3  C   -0.170489
     4  C    0.157484
     5  C   -0.171039
     6  C   -0.218536
     7  H    0.227666
     8  H    0.227175
     9  H    0.274250
    10  H    0.274981
    11  H    0.224236
    12  N    0.490405
    13  O   -0.461221
    14  O   -0.467547
    15  C   -0.149481
    16  C   -0.219982
    17  C   -0.172785
    18  C    0.155803
    19  C   -0.178891
    20  C   -0.216185
    21  H    0.232969
    22  H    0.223983
    23  H    0.272617
    24  H    0.269940
    25  H    0.222498
    26  N    0.488038
    27  O   -0.465605
    28  O   -0.462291
 Sum of Mulliken charges =  -0.00000

 Dipole moment (field-independent basis, Debye):
    X=              3.7668    Y=             -0.1823    Z=              1.1060  Tot=              3.9301
 Quadrupole moment (field-independent basis, Debye-Ang):
   XX=           -103.7417   YY=           -108.6653   ZZ=            -99.1933
   XY=             28.6216   XZ=             -4.5522   YZ=              2.5936

 Normal termination of Gaussian 16 at Thu May  6 16:25:01 2021.
