 Gaussian 16, Revision A.03,
 Gaussian 16:  EM64L-G16RevA.03 25-Dec-2016

 -------------
 #p 6-31g* mp2
 -------------

 ------------------------------------------------------
 Input file generated by CHIRIPA (05-May-2021 14:51:14)
 ------------------------------------------------------
 Symbolic Z-matrix:
 Charge =  0 Multiplicity = 1

                         Standard orientation:
 ---------------------------------------------------------------------
 Center     Atomic      Atomic             Coordinates (Angstroms)
 Number     Number       Type             X           Y           Z
 ---------------------------------------------------------------------
      1          6           0       -4.985084   -0.188643    0.260152
      2          6           0       -5.818857   -0.224550   -1.021066
      3          6           0       -7.303327    0.040156   -0.767942
      4          1           0       -5.376752   -0.933888    0.965951
      5          1           0       -5.106850    0.791734    0.741222
      6          1           0       -5.694463   -1.204079   -1.500299
      7          1           0       -5.425038    0.520734   -1.723970
      8          1           0       -7.446674    1.024815   -0.311324
      9          1           0       -7.717629   -0.709798   -0.086382
     10          1           0       -7.880696    0.009835   -1.697235
     11          6           0       -3.498953   -0.451487    0.023392
     12          6           0       -2.665180   -0.415580    1.304610
     13          6           0       -1.180710   -0.680286    1.051486
     14          1           0       -3.377187   -1.431864   -0.457678
     15          1           0       -3.107285    0.293758   -0.682406
     16          1           0       -3.058999   -1.160864    2.007514
     17          1           0       -2.789574    0.563949    1.783843
     18          1           0       -0.766408    0.069668    0.369927
     19          1           0       -1.037363   -1.664945    0.594868
     20          1           0       -0.603341   -0.649965    1.980779
     21          6           0        5.000685    0.265683   -0.211772
     22          6           0        5.500883   -1.177323   -0.286069
     23          6           0        7.020649   -1.269715   -0.425962
     24          1           0        5.320751    0.804890   -1.113857
     25          1           0        5.479470    0.768983    0.639608
     26          1           0        5.020246   -1.678157   -1.136228
     27          1           0        5.179424   -1.713210    0.616209
     28          1           0        7.515633   -0.794975    0.427393
     29          1           0        7.355550   -0.759723   -1.335001
     30          1           0        7.356577   -2.310088   -0.477285
     31          6           0        3.483352    0.374447   -0.071773
     32          6           0        2.983154    1.817453    0.002525
     33          6           0        1.463388    1.909845    0.142417
     34          1           0        3.004567   -0.128853   -0.923152
     35          1           0        3.163286   -0.164761    0.830313
     36          1           0        3.304612    2.353340   -0.899753
     37          1           0        3.463791    2.318287    0.852683
     38          1           0        1.128487    1.399854    1.051456
     39          1           0        0.968404    1.435105   -0.710937
     40          1           0        1.127460    2.950218    0.193740
 ---------------------------------------------------------------------

 SCF Done:  E(RHF) =  -470.732253385     A.U. after   11 cycles
 E2 =    -0.1582883773D+01 EUMP2 =    -0.47231513715707D+03

 The electronic state is 1-A.
 Alpha  occ. eigenvalues --  -11.21581 -11.21577 -11.21573 -11.21515 -11.21378
 Alpha  occ. eigenvalues --  -11.21360 -11.21317 -11.21299 -11.21056 -11.21049
 Alpha  occ. eigenvalues --  -11.21020 -11.20884  -1.08410  -1.08374  -1.03536
 Alpha  occ. eigenvalues --   -1.03446  -0.96028  -0.95861  -0.87091  -0.86841
 Alpha  occ. eigenvalues --   -0.79688  -0.79437  -0.78239  -0.78166  -0.65039
 Alpha  occ. eigenvalues --   -0.65009  -0.60935  -0.60870  -0.59343  -0.59280
 Alpha  occ. eigenvalues --   -0.57677  -0.57475  -0.55300  -0.55185  -0.52732
 Alpha  occ. eigenvalues --   -0.52658  -0.52503  -0.52147  -0.49939  -0.49814
 Alpha  occ. eigenvalues --   -0.48037  -0.47679  -0.46613  -0.46515  -0.45824
 Alpha  occ. eigenvalues --   -0.45690  -0.45682  -0.45544  -0.43768  -0.43716
 Alpha virt. eigenvalues --    0.22476   0.22972   0.23691   0.24768   0.26087
 Alpha virt. eigenvalues --    0.26608   0.27027   0.27549   0.27778   0.29265
 Alpha virt. eigenvalues --    0.29861   0.31424   0.31790   0.31877   0.32442

 Mulliken charges:
               1
     1  C   -0.298221
     2  C   -0.299618
     3  C   -0.475672
     4  H    0.149568
     5  H    0.149491
     6  H    0.151818
     7  H    0.151859
     8  H    0.155152
     9  H    0.155132
    10  H    0.160129
    11  C   -0.298404
    12  C   -0.299300
    13  C   -0.481975
    14  H    0.149282
    15  H    0.149554
    16  H    0.151181
    17  H    0.151609
    18  H    0.165912
    19  H    0.153889
    20  H    0.157749
    21  C   -0.298255
    22  C   -0.299611
    23  C   -0.475693
    24  H    0.149529
    25  H    0.149390
    26  H    0.151956
    27  H    0.152008
    28  H    0.155125
    29  H    0.155120
    30  H    0.160199
    31  C   -0.298193
    32  C   -0.299750
    33  C   -0.479936
    34  H    0.149630
    35  H    0.150096
    36  H    0.151536
    37  H    0.151683
    38  H    0.161723
    39  H    0.154875
    40  H    0.159429
 Sum of Mulliken charges =  -0.00000

 Dipole moment (field-independent basis, Debye):
    X=              0.0260    Y=              0.0171    Z=             -0.0051  Tot=              0.0315
 Quadrupole moment (field-independent basis, Debye-Ang):
   XX=            -87.3696   YY=            -83.9333   ZZ=            -83.7730
   XY=              0.5329   XZ=              0.2653   YZ=             -0.1376

 Normal termination of Gaussian 16 at Thu May  6 02:25:16 2021.
