 Gaussian 16, Revision A.03,
 Gaussian 16:  EM64L-G16RevA.03 25-Dec-2016

 -------------
 #p 6-31g* mp2
 -------------

 ------------------------------------------------------
 Input file generated by CHIRIPA (05-May-2021 14:55:19)
 ------------------------------------------------------
 Symbolic Z-matrix:
 Charge =  0 Multiplicity = 1

                         Standard orientation:
 ---------------------------------------------------------------------
 Center     Atomic      Atomic             Coordinates (Angstroms)
 Number     Number       Type             X           Y           Z
 ---------------------------------------------------------------------
      1          6           0        1.851584    1.349881    1.366284
      2          6           0        1.796236   -0.025667    1.118645
      3          6           0        2.798453   -0.653797    0.373285
      4          6           0        3.846211    0.127565   -0.111449
      5          6           0        3.929454    1.499985    0.118384
      6          6           0        2.916140    2.106983    0.866244
      7          1           0        1.068727    1.829620    1.946269
      8          1           0        0.970679   -0.616142    1.505737
      9          1           0        2.780398   -1.716999    0.166663
     10          1           0        4.764968    2.062246   -0.280614
     11          1           0        2.961723    3.175430    1.057001
     12          7           0        4.913088   -0.526222   -0.901852
     13          8           0        5.825561    0.184410   -1.317823
     14          8           0        4.816630   -1.736912   -1.090433
     15          6           0       -5.037680    0.307226   -0.337003
     16          6           0       -6.528375    0.098274   -0.605618
     17          6           0       -7.193765    1.324264   -1.231718
     18          1           0       -4.908948    1.174330    0.325194
     19          1           0       -4.533662    0.557193   -1.280865
     20          1           0       -7.029199   -0.152583    0.338238
     21          1           0       -6.653585   -0.768550   -1.267097
     22          1           0       -6.720600    1.573675   -2.186971
     23          1           0       -7.098347    2.193142   -0.572516
     24          1           0       -8.259057    1.153035   -1.415272
     25          6           0       -4.358483   -0.909638    0.288827
     26          6           0       -2.867789   -0.700685    0.557441
     27          6           0       -2.202400   -1.926675    1.183541
     28          1           0       -4.862502   -1.159605    1.232689
     29          1           0       -4.487216   -1.776742   -0.373370
     30          1           0       -2.742579    0.166138    1.218920
     31          1           0       -2.366966   -0.449829   -0.386413
     32          1           0       -2.297817   -2.795554    0.524339
     33          1           0       -2.675565   -2.176086    2.138794
     34          1           0       -1.137107   -1.755447    1.367096
 ---------------------------------------------------------------------

 SCF Done:  E(RHF) =  -669.535468945     A.U. after   15 cycles
 E2 =    -0.2090784621D+01 EUMP2 =    -0.67162625356556D+03

 The electronic state is 1-A.
 Alpha  occ. eigenvalues --  -20.60743 -20.60738 -15.85796 -11.31160 -11.27733
 Alpha  occ. eigenvalues --  -11.27726 -11.27474 -11.26747 -11.26728 -11.22414
 Alpha  occ. eigenvalues --  -11.22050 -11.22021 -11.22002 -11.21881 -11.21426
 Alpha  occ. eigenvalues --   -1.59818  -1.39372  -1.19334  -1.09028  -1.08729
 Alpha  occ. eigenvalues --   -1.04740  -1.04156  -0.96610  -0.95564  -0.87629
 Alpha  occ. eigenvalues --   -0.86137  -0.82398  -0.80222  -0.78812  -0.77447
 Alpha  occ. eigenvalues --   -0.72015  -0.71142  -0.70442  -0.65649  -0.64987
 Alpha  occ. eigenvalues --   -0.64778  -0.62129  -0.61539  -0.60001  -0.58215
 Alpha  occ. eigenvalues --   -0.55873  -0.55242  -0.53421  -0.53099  -0.53060
 Alpha  occ. eigenvalues --   -0.52670  -0.50529  -0.48777  -0.48769  -0.48532
 Alpha  occ. eigenvalues --   -0.47241  -0.46361  -0.46262  -0.44778  -0.44408
 Alpha  occ. eigenvalues --   -0.37314  -0.36340
 Alpha virt. eigenvalues --    0.05092   0.11288   0.16568   0.19652   0.22510
 Alpha virt. eigenvalues --    0.23716   0.25720   0.26075   0.26905   0.28192
 Alpha virt. eigenvalues --    0.28566   0.29859   0.30860   0.31491   0.32185

 Mulliken charges:
               1
     1  C   -0.172593
     2  C   -0.225028
     3  C   -0.173289
     4  C    0.158685
     5  C   -0.171073
     6  C   -0.218588
     7  H    0.226061
     8  H    0.233783
     9  H    0.275854
    10  H    0.275511
    11  H    0.223292
    12  N    0.488103
    13  O   -0.460617
    14  O   -0.460414
    15  C   -0.298676
    16  C   -0.300151
    17  C   -0.476021
    18  H    0.148723
    19  H    0.150798
    20  H    0.152361
    21  H    0.153249
    22  H    0.155962
    23  H    0.154939
    24  H    0.161666
    25  C   -0.298901
    26  C   -0.300143
    27  C   -0.479250
    28  H    0.150541
    29  H    0.152210
    30  H    0.147791
    31  H    0.154890
    32  H    0.161196
    33  H    0.158646
    34  H    0.150481
 Sum of Mulliken charges =  -0.00000

 Dipole moment (field-independent basis, Debye):
    X=             -3.9538    Y=              2.2875    Z=              2.7359  Tot=              5.3245
 Quadrupole moment (field-independent basis, Debye-Ang):
   XX=           -122.8501   YY=            -90.8137   ZZ=            -95.5114
   XY=             11.3933   XZ=             10.5185   YZ=              0.3481

 Normal termination of Gaussian 16 at Thu May  6 07:41:34 2021.
