 Gaussian 16, Revision A.03,
 Gaussian 16:  EM64L-G16RevA.03 25-Dec-2016

 -------------
 #p 6-31g* mp2
 -------------

 ------------------------------------------------------
 Input file generated by CHIRIPA (05-May-2021 14:57:27)
 ------------------------------------------------------
 Symbolic Z-matrix:
 Charge =  0 Multiplicity = 1

                         Standard orientation:
 ---------------------------------------------------------------------
 Center     Atomic      Atomic             Coordinates (Angstroms)
 Number     Number       Type             X           Y           Z
 ---------------------------------------------------------------------
      1          6           0        2.914090    2.729006   -0.026229
      2          6           0        3.787679    2.161445   -0.959631
      3          6           0        4.042364    0.786825   -0.949412
      4          6           0        3.403473    0.005902    0.012496
      5          6           0        2.527937    0.541753    0.955678
      6          6           0        2.288111    1.918777    0.926766
      7          1           0        2.722016    3.797777   -0.041428
      8          1           0        4.275229    2.788244   -1.700888
      9          1           0        4.714116    0.321299   -1.660363
     10          1           0        2.056749   -0.108731    1.682501
     11          1           0        1.609194    2.356812    1.652880
     12          7           0        3.665231   -1.450619    0.033210
     13          8           0        3.089850   -2.116950    0.890867
     14          8           0        4.440822   -1.898329   -0.808604
     15          6           0       -1.692142   -2.129918    0.174624
     16          6           0       -1.364280   -0.855813    0.649690
     17          6           0       -2.280764    0.195508    0.553114
     18          6           0       -3.521606   -0.063820   -0.026842
     19          6           0       -3.877799   -1.322222   -0.509378
     20          6           0       -2.945645   -2.358652   -0.402376
     21          1           0       -0.974108   -2.940825    0.253698
     22          1           0       -0.391536   -0.675268    1.098266
     23          1           0       -2.053006    1.191599    0.912762
     24          1           0       -4.855327   -1.471565   -0.951594
     25          1           0       -3.202999   -3.347118   -0.772170
     26          7           0       -4.500142    1.041284   -0.134603
     27          8           0       -5.586698    0.786953   -0.649721
     28          8           0       -4.162033    2.140872    0.298094
 ---------------------------------------------------------------------

 SCF Done:  E(RHF) =  -868.338268474     A.U. after   16 cycles
 E2 =    -0.2599697348D+01 EUMP2 =    -0.87093796582156D+03

 The electronic state is 1-A.
 Alpha  occ. eigenvalues --  -20.61627 -20.61577 -20.60868 -20.60851 -15.86653
 Alpha  occ. eigenvalues --  -15.85915 -11.31963 -11.31200 -11.28600 -11.28449
 Alpha  occ. eigenvalues --  -11.28156 -11.27820 -11.27741 -11.27532 -11.27431
 Alpha  occ. eigenvalues --  -11.27379 -11.26760 -11.26688  -1.60677  -1.59939
 Alpha  occ. eigenvalues --   -1.40236  -1.39496  -1.20108  -1.19356  -1.09493
 Alpha  occ. eigenvalues --   -1.08739  -1.05514  -1.04763  -0.96351  -0.95592
 Alpha  occ. eigenvalues --   -0.86904  -0.86147  -0.83193  -0.82445  -0.78275
 Alpha  occ. eigenvalues --   -0.77525  -0.72871  -0.72134  -0.71998  -0.71261
 Alpha  occ. eigenvalues --   -0.71200  -0.70402  -0.65759  -0.65524  -0.65001
 Alpha  occ. eigenvalues --   -0.64761  -0.62899  -0.62095  -0.55956  -0.55167
 Alpha  occ. eigenvalues --   -0.53832  -0.53617  -0.53074  -0.52811  -0.49641
 Alpha  occ. eigenvalues --   -0.49613  -0.48897  -0.48880  -0.45656  -0.44921
 Alpha  occ. eigenvalues --   -0.38038  -0.37295  -0.37108  -0.36360
 Alpha virt. eigenvalues --    0.04226   0.05031   0.10444   0.11321   0.15762
 Alpha virt. eigenvalues --    0.16561   0.19376   0.22078   0.25139   0.26916
 Alpha virt. eigenvalues --    0.28283   0.29293   0.29914   0.31008   0.32119

 Mulliken charges:
               1
     1  C   -0.169369
     2  C   -0.217195
     3  C   -0.170190
     4  C    0.160401
     5  C   -0.177395
     6  C   -0.218790
     7  H    0.230469
     8  H    0.227188
     9  H    0.277704
    10  H    0.269729
    11  H    0.224672
    12  N    0.488345
    13  O   -0.466788
    14  O   -0.456092
    15  C   -0.172674
    16  C   -0.218998
    17  C   -0.172343
    18  C    0.158379
    19  C   -0.170950
    20  C   -0.218822
    21  H    0.236360
    22  H    0.221118
    23  H    0.269420
    24  H    0.275550
    25  H    0.225154
    26  N    0.488366
    27  O   -0.459757
    28  O   -0.463493
 Sum of Mulliken charges =  -0.00000

 Dipole moment (field-independent basis, Debye):
    X=              2.7628    Y=              1.2441    Z=              0.1224  Tot=              3.0325
 Quadrupole moment (field-independent basis, Debye-Ang):
   XX=           -131.6046   YY=           -102.4797   ZZ=           -101.9508
   XY=             34.6657   XZ=             -3.2037   YZ=              1.2312

 Normal termination of Gaussian 16 at Thu May  6 02:03:42 2021.
