 Gaussian 16, Revision A.03,
 Gaussian 16:  EM64L-G16RevA.03 25-Dec-2016

 -------------
 #p 6-31g* mp2
 -------------

 ------------------------------------------------------
 Input file generated by CHIRIPA (05-May-2021 14:57:22)
 ------------------------------------------------------
 Symbolic Z-matrix:
 Charge =  0 Multiplicity = 1

                         Standard orientation:
 ---------------------------------------------------------------------
 Center     Atomic      Atomic             Coordinates (Angstroms)
 Number     Number       Type             X           Y           Z
 ---------------------------------------------------------------------
      1          6           0        3.912678   -2.387336    0.540350
      2          6           0        4.675133   -1.660139   -0.379633
      3          6           0        4.390738   -0.314656   -0.631310
      4          6           0        3.331952    0.274666    0.057865
      5          6           0        2.553980   -0.423241    0.980349
      6          6           0        2.856397   -1.767659    1.216213
      7          1           0        4.140604   -3.432126    0.729717
      8          1           0        5.496046   -2.138792   -0.905978
      9          1           0        4.964840    0.271803   -1.338339
     10          1           0        1.741878    0.081269    1.489642
     11          1           0        2.262571   -2.329948    1.931228
     12          7           0        3.021336    1.698505   -0.200204
     13          8           0        2.083289    2.194594    0.419958
     14          8           0        3.721803    2.291460   -1.017753
     15          6           0       -3.030290    2.420712    0.331244
     16          6           0       -1.972847    1.633298   -0.135998
     17          6           0       -2.156910    0.268817   -0.378608
     18          6           0       -3.417258   -0.277892   -0.142127
     19          6           0       -4.490484    0.480325    0.323254
     20          6           0       -4.283524    1.842731    0.558977
     21          1           0       -2.878411    3.479867    0.517034
     22          1           0       -0.998484    2.079470   -0.313745
     23          1           0       -1.355630   -0.363981   -0.740457
     24          1           0       -5.450357    0.007154    0.491102
     25          1           0       -5.106568    2.451815    0.921831
     26          7           0       -3.624238   -1.721309   -0.395323
     27          8           0       -4.744248   -2.178978   -0.179098
     28          8           0       -2.662540   -2.367658   -0.805207
 ---------------------------------------------------------------------

 SCF Done:  E(RHF) =  -868.340343030     A.U. after   16 cycles
 E2 =    -0.2598483999D+01 EUMP2 =    -0.87093882702898D+03

 The electronic state is 1-A.
 Alpha  occ. eigenvalues --  -20.61528 -20.61455 -20.60651 -20.60637 -15.86516
 Alpha  occ. eigenvalues --  -15.85690 -11.31591 -11.30879 -11.28123 -11.28100
 Alpha  occ. eigenvalues --  -11.27761 -11.27416 -11.27366 -11.27050 -11.27030
 Alpha  occ. eigenvalues --  -11.27023 -11.26403 -11.26184  -1.60556  -1.59726
 Alpha  occ. eigenvalues --   -1.40119  -1.39285  -1.19723  -1.19001  -1.09165
 Alpha  occ. eigenvalues --   -1.08416  -1.05077  -1.04359  -0.96052  -0.95294
 Alpha  occ. eigenvalues --   -0.86487  -0.85752  -0.82896  -0.82121  -0.77986
 Alpha  occ. eigenvalues --   -0.77203  -0.72744  -0.71912  -0.71863  -0.71048
 Alpha  occ. eigenvalues --   -0.70815  -0.70090  -0.65374  -0.65064  -0.64636
 Alpha  occ. eigenvalues --   -0.64302  -0.62431  -0.61691  -0.55567  -0.54830
 Alpha  occ. eigenvalues --   -0.53424  -0.53157  -0.52721  -0.52404  -0.49515
 Alpha  occ. eigenvalues --   -0.49467  -0.48680  -0.48647  -0.45579  -0.44731
 Alpha  occ. eigenvalues --   -0.37671  -0.36960  -0.36668  -0.35969
 Alpha virt. eigenvalues --    0.04483   0.05286   0.10975   0.11690   0.16032
 Alpha virt. eigenvalues --    0.16840   0.21072   0.22042   0.26851   0.27532
 Alpha virt. eigenvalues --    0.28519   0.28757   0.30743   0.31552   0.32517

 Mulliken charges:
               1
     1  C   -0.169237
     2  C   -0.218057
     3  C   -0.170733
     4  C    0.157318
     5  C   -0.174293
     6  C   -0.216596
     7  H    0.229029
     8  H    0.225428
     9  H    0.275930
    10  H    0.273480
    11  H    0.227990
    12  N    0.488991
    13  O   -0.470368
    14  O   -0.455932
    15  C   -0.172005
    16  C   -0.225514
    17  C   -0.176585
    18  C    0.158365
    19  C   -0.172855
    20  C   -0.218459
    21  H    0.228801
    22  H    0.244537
    23  H    0.272007
    24  H    0.273654
    25  H    0.222295
    26  N    0.488060
    27  O   -0.461286
    28  O   -0.463966
 Sum of Mulliken charges =  -0.00000

 Dipole moment (field-independent basis, Debye):
    X=              2.1457    Y=              0.0729    Z=              1.8035  Tot=              2.8039
 Quadrupole moment (field-independent basis, Debye-Ang):
   XX=            -95.2806   YY=           -111.1124   ZZ=           -103.6157
   XY=            -35.4314   XZ=             -4.6140   YZ=             -1.2798

 Normal termination of Gaussian 16 at Thu May  6 16:13:39 2021.
