 Gaussian 16, Revision A.03,
 Gaussian 16:  EM64L-G16RevA.03 25-Dec-2016

 -------------
 #p 6-31g* mp2
 -------------

 ------------------------------------------------------
 Input file generated by CHIRIPA (05-May-2021 14:55:24)
 ------------------------------------------------------
 Symbolic Z-matrix:
 Charge =  0 Multiplicity = 1

                         Standard orientation:
 ---------------------------------------------------------------------
 Center     Atomic      Atomic             Coordinates (Angstroms)
 Number     Number       Type             X           Y           Z
 ---------------------------------------------------------------------
      1          6           0       -0.339443   -2.064698    0.645589
      2          6           0       -0.676512   -1.042268    1.538641
      3          6           0       -1.732612   -0.171243    1.254885
      4          6           0       -2.433514   -0.352274    0.063560
      5          6           0       -2.121815   -1.361358   -0.846321
      6          6           0       -1.061896   -2.220705   -0.541948
      7          1           0        0.482444   -2.736796    0.874025
      8          1           0       -0.117193   -0.918743    2.461651
      9          1           0       -2.014852    0.628749    1.928510
     10          1           0       -2.697788   -1.459547   -1.758478
     11          1           0       -0.802356   -3.013851   -1.237364
     12          7           0       -3.553581    0.563659   -0.247752
     13          8           0       -4.155529    0.383110   -1.304018
     14          8           0       -3.808333    1.444774    0.570401
     15          6           0        2.824718    1.335310   -0.467663
     16          6           0        2.088615    2.352709    0.404711
     17          6           0        1.988898    3.730670   -0.250326
     18          1           0        3.832956    1.712039   -0.687839
     19          1           0        2.306420    1.247017   -1.432530
     20          1           0        2.607353    2.438032    1.368167
     21          1           0        1.082080    1.973427    0.622995
     22          1           0        1.452394    3.666664   -1.202516
     23          1           0        2.986334    4.133910   -0.453109
     24          1           0        1.459059    4.442392    0.390441
     25          6           0        2.932500   -0.047039    0.173600
     26          6           0        3.668604   -1.064437   -0.698774
     27          6           0        3.768320   -2.442399   -0.043737
     28          1           0        3.450799    0.041254    1.138465
     29          1           0        1.924263   -0.423768    0.393776
     30          1           0        4.675139   -0.685155   -0.917058
     31          1           0        3.149865   -1.149761   -1.662230
     32          1           0        2.770884   -2.845639    0.159047
     33          1           0        4.304825   -2.378393    0.908453
     34          1           0        4.298160   -3.154121   -0.684503
 ---------------------------------------------------------------------

 SCF Done:  E(RHF) =  -669.534362475     A.U. after   15 cycles
 E2 =    -0.2094373455D+01 EUMP2 =    -0.67162873592980D+03

 The electronic state is 1-A.
 Alpha  occ. eigenvalues --  -20.60852 -20.60846 -15.85907 -11.31314 -11.27884
 Alpha  occ. eigenvalues --  -11.27880 -11.27594 -11.26899 -11.26887 -11.22246
 Alpha  occ. eigenvalues --  -11.22038 -11.21843 -11.21792 -11.21683 -11.21168
 Alpha  occ. eigenvalues --   -1.59927  -1.39479  -1.19498  -1.08952  -1.08807
 Alpha  occ. eigenvalues --   -1.04897  -1.04004  -0.96457  -0.95714  -0.87479
 Alpha  occ. eigenvalues --   -0.86291  -0.82538  -0.80080  -0.78680  -0.77569
 Alpha  occ. eigenvalues --   -0.72123  -0.71251  -0.70627  -0.65532  -0.65140
 Alpha  occ. eigenvalues --   -0.64872  -0.62233  -0.61412  -0.59850  -0.58075
 Alpha  occ. eigenvalues --   -0.55898  -0.55295  -0.53325  -0.53117  -0.52974
 Alpha  occ. eigenvalues --   -0.52863  -0.50413  -0.48885  -0.48876  -0.48391
 Alpha  occ. eigenvalues --   -0.47110  -0.46214  -0.46105  -0.44875  -0.44216
 Alpha  occ. eigenvalues --   -0.37359  -0.36465
 Alpha virt. eigenvalues --    0.04898   0.11073   0.16251   0.20018   0.22856
 Alpha virt. eigenvalues --    0.23799   0.25837   0.26543   0.26593   0.28098
 Alpha virt. eigenvalues --    0.28762   0.30387   0.31136   0.31634   0.32171

 Mulliken charges:
               1
     1  C   -0.175020
     2  C   -0.218454
     3  C   -0.171566
     4  C    0.158447
     5  C   -0.170793
     6  C   -0.220200
     7  H    0.233571
     8  H    0.226422
     9  H    0.276545
    10  H    0.276175
    11  H    0.224330
    12  N    0.488040
    13  O   -0.460090
    14  O   -0.459908
    15  C   -0.296973
    16  C   -0.302044
    17  C   -0.475929
    18  H    0.150057
    19  H    0.151277
    20  H    0.149574
    21  H    0.152146
    22  H    0.157737
    23  H    0.154884
    24  H    0.162342
    25  C   -0.309331
    26  C   -0.299228
    27  C   -0.476993
    28  H    0.146261
    29  H    0.157744
    30  H    0.155166
    31  H    0.152574
    32  H    0.141841
    33  H    0.157485
    34  H    0.163915
 Sum of Mulliken charges =  -0.00000

 Dipole moment (field-independent basis, Debye):
    X=              3.8829    Y=             -3.1817    Z=              1.0568  Tot=              5.1300
 Quadrupole moment (field-independent basis, Debye-Ang):
   XX=           -113.8337   YY=            -92.8209   ZZ=            -90.9824
   XY=              7.4161   XZ=             -1.4952   YZ=              2.2507

 Normal termination of Gaussian 16 at Wed May  5 16:04:19 2021.
