 Gaussian 16, Revision A.03,
 Gaussian 16:  EM64L-G16RevA.03 25-Dec-2016

 -------------
 #p 6-31g* mp2
 -------------

 ------------------------------------------------------
 Input file generated by CHIRIPA (05-May-2021 14:55:22)
 ------------------------------------------------------
 Symbolic Z-matrix:
 Charge =  0 Multiplicity = 1

                         Standard orientation:
 ---------------------------------------------------------------------
 Center     Atomic      Atomic             Coordinates (Angstroms)
 Number     Number       Type             X           Y           Z
 ---------------------------------------------------------------------
      1          6           0       -3.521894    1.895312   -1.032584
      2          6           0       -2.383569    2.144037   -0.258714
      3          6           0       -1.753447    1.104508    0.431848
      4          6           0       -2.290939   -0.177342    0.325777
      5          6           0       -3.423667   -0.456948   -0.437138
      6          6           0       -4.037401    0.597901   -1.119173
      7          1           0       -4.005022    2.708794   -1.565717
      8          1           0       -1.981011    3.150625   -0.189636
      9          1           0       -0.870948    1.269007    1.038109
     10          1           0       -3.801684   -1.470883   -0.486701
     11          1           0       -4.921308    0.401798   -1.719420
     12          7           0       -1.632532   -1.285954    1.052331
     13          8           0       -2.125711   -2.406386    0.942591
     14          8           0       -0.635761   -1.013460    1.717786
     15          6           0        2.821284    0.672264   -0.019394
     16          6           0        3.927062    1.722902    0.087393
     17          6           0        3.411288    3.076266    0.577469
     18          1           0        2.041484    1.037906   -0.701422
     19          1           0        2.344957    0.550190    0.963257
     20          1           0        4.402082    1.841955   -0.894848
     21          1           0        4.704412    1.354633    0.769097
     22          1           0        2.955121    2.978977    1.567947
     23          1           0        2.651073    3.469068   -0.105451
     24          1           0        4.218267    3.812396    0.646437
     25          6           0        3.321315   -0.686013   -0.508048
     26          6           0        2.215538   -1.736650   -0.614836
     27          6           0        2.731311   -3.090015   -1.104912
     28          1           0        3.797642   -0.563938   -1.490701
     29          1           0        4.101115   -1.051654    0.173979
     30          1           0        1.438187   -1.368381   -1.296539
     31          1           0        1.740517   -1.855703    0.367406
     32          1           0        3.491526   -3.482816   -0.421991
     33          1           0        3.187478   -2.992725   -2.095391
     34          1           0        1.924332   -3.826145   -1.173880
 ---------------------------------------------------------------------

 SCF Done:  E(RHF) =  -669.536539389     A.U. after   15 cycles
 E2 =    -0.2092004424D+01 EUMP2 =    -0.67162854381351D+03

 The electronic state is 1-A.
 Alpha  occ. eigenvalues --  -20.60920 -20.60906 -15.85936 -11.31242 -11.27809
 Alpha  occ. eigenvalues --  -11.27791 -11.27547 -11.26814 -11.26800 -11.21402
 Alpha  occ. eigenvalues --  -11.21104 -11.20998 -11.20800 -11.20629 -11.20272
 Alpha  occ. eigenvalues --   -1.59965  -1.39523  -1.19410  -1.08819  -1.07944
 Alpha  occ. eigenvalues --   -1.04804  -1.03042  -0.95663  -0.95536  -0.86560
 Alpha  occ. eigenvalues --   -0.86204  -0.82500  -0.79132  -0.77754  -0.77509
 Alpha  occ. eigenvalues --   -0.72165  -0.71267  -0.70519  -0.65069  -0.64808
 Alpha  occ. eigenvalues --   -0.64568  -0.62149  -0.60435  -0.58929  -0.57118
 Alpha  occ. eigenvalues --   -0.55314  -0.54842  -0.53138  -0.52896  -0.52231
 Alpha  occ. eigenvalues --   -0.51962  -0.49508  -0.48931  -0.48920  -0.47452
 Alpha  occ. eigenvalues --   -0.46168  -0.45484  -0.45232  -0.44541  -0.43290
 Alpha  occ. eigenvalues --   -0.37389  -0.36403
 Alpha virt. eigenvalues --    0.04935   0.11230   0.16407   0.21084   0.23225
 Alpha virt. eigenvalues --    0.24675   0.26447   0.27023   0.27668   0.28337
 Alpha virt. eigenvalues --    0.29087   0.31033   0.31810   0.32111   0.32280

 Mulliken charges:
               1
     1  C   -0.170554
     2  C   -0.219288
     3  C   -0.170945
     4  C    0.158251
     5  C   -0.170832
     6  C   -0.218707
     7  H    0.225815
     8  H    0.224107
     9  H    0.277835
    10  H    0.275612
    11  H    0.223594
    12  N    0.489034
    13  O   -0.459263
    14  O   -0.460378
    15  C   -0.301998
    16  C   -0.298727
    17  C   -0.475658
    18  H    0.142475
    19  H    0.159105
    20  H    0.150888
    21  H    0.153590
    22  H    0.154558
    23  H    0.149142
    24  H    0.160443
    25  C   -0.297319
    26  C   -0.309241
    27  C   -0.475571
    28  H    0.145462
    29  H    0.149832
    30  H    0.142902
    31  H    0.178624
    32  H    0.154426
    33  H    0.149638
    34  H    0.163147
 Sum of Mulliken charges =  -0.00000

 Dipole moment (field-independent basis, Debye):
    X=             -2.4535    Y=              3.7911    Z=             -2.3963  Tot=              5.1121
 Quadrupole moment (field-independent basis, Debye-Ang):
   XX=            -82.4190   YY=            -95.6491   ZZ=            -95.8803
   XY=             -6.1393   XZ=              7.3851   YZ=              2.1225

 Normal termination of Gaussian 16 at Thu May  6 06:16:32 2021.
