 Gaussian 16, Revision A.03,
 Gaussian 16:  EM64L-G16RevA.03 25-Dec-2016

 -------------
 #p 6-31g* mp2
 -------------

 ------------------------------------------------------
 Input file generated by CHIRIPA (05-May-2021 14:55:22)
 ------------------------------------------------------
 Symbolic Z-matrix:
 Charge =  0 Multiplicity = 1

                         Standard orientation:
 ---------------------------------------------------------------------
 Center     Atomic      Atomic             Coordinates (Angstroms)
 Number     Number       Type             X           Y           Z
 ---------------------------------------------------------------------
      1          6           0        0.832796    1.931824    0.241362
      2          6           0        0.793637    1.036712   -0.832772
      3          6           0        1.872562    0.184642   -1.086636
      4          6           0        2.979684    0.254592   -0.242433
      5          6           0        3.048665    1.135578    0.835711
      6          6           0        1.958201    1.978317    1.070713
      7          1           0       -0.009820    2.590108    0.431243
      8          1           0       -0.079058    0.998420   -1.478513
      9          1           0        1.868688   -0.517884   -1.911172
     10          1           0        3.932398    1.150724    1.461974
     11          1           0        1.991383    2.672470    1.905636
     12          7           0        4.128001   -0.642518   -0.501203
     13          8           0        5.091737   -0.561452    0.257267
     14          8           0        4.042572   -1.409751   -1.457599
     15          6           0       -4.053412    0.068905    0.154075
     16          6           0       -5.280189   -0.295453   -0.682730
     17          6           0       -6.234372    0.883305   -0.877302
     18          1           0       -4.383088    0.441193    1.133697
     19          1           0       -3.519757    0.897501   -0.331758
     20          1           0       -5.810605   -1.124036   -0.196184
     21          1           0       -4.947548   -0.667098   -1.660404
     22          1           0       -5.726479    1.710567   -1.383546
     23          1           0       -6.594440    1.251034    0.088993
     24          1           0       -7.104311    0.600652   -1.478280
     25          6           0       -3.090081   -1.099168    0.357374
     26          6           0       -1.863305   -0.734810    1.194180
     27          6           0       -0.909121   -1.913568    1.388751
     28          1           0       -3.623738   -1.927764    0.843208
     29          1           0       -2.760405   -1.471456   -0.622248
     30          1           0       -2.195946   -0.363166    2.171854
     31          1           0       -1.332888    0.093772    0.707634
     32          1           0       -0.549054   -2.281297    0.422456
     33          1           0       -1.417015   -2.740831    1.894996
     34          1           0       -0.039182   -1.630914    1.989729
 ---------------------------------------------------------------------

 SCF Done:  E(RHF) =  -669.534445871     A.U. after   15 cycles
 E2 =    -0.2093514411D+01 EUMP2 =    -0.67162796028150D+03

 The electronic state is 1-A.
 Alpha  occ. eigenvalues --  -20.60803 -20.60797 -15.85858 -11.31251 -11.27827
 Alpha  occ. eigenvalues --  -11.27824 -11.27566 -11.26851 -11.26837 -11.22146
 Alpha  occ. eigenvalues --  -11.22042 -11.21978 -11.21884 -11.21582 -11.21333
 Alpha  occ. eigenvalues --   -1.59878  -1.39431  -1.19437  -1.08988  -1.08817
 Alpha  occ. eigenvalues --   -1.04850  -1.03989  -0.96439  -0.95656  -0.87452
 Alpha  occ. eigenvalues --   -0.86249  -0.82484  -0.80071  -0.78807  -0.77525
 Alpha  occ. eigenvalues --   -0.72078  -0.71201  -0.70543  -0.65670  -0.65087
 Alpha  occ. eigenvalues --   -0.64830  -0.62205  -0.61403  -0.59816  -0.58063
 Alpha  occ. eigenvalues --   -0.55767  -0.55341  -0.53232  -0.52995  -0.52936
 Alpha  occ. eigenvalues --   -0.52858  -0.50390  -0.48839  -0.48830  -0.48380
 Alpha  occ. eigenvalues --   -0.47127  -0.46338  -0.46289  -0.44831  -0.44268
 Alpha  occ. eigenvalues --   -0.37317  -0.36406
 Alpha virt. eigenvalues --    0.04986   0.11109   0.16426   0.20016   0.22787
 Alpha virt. eigenvalues --    0.23971   0.25512   0.26500   0.27359   0.27835
 Alpha virt. eigenvalues --    0.29250   0.30815   0.31127   0.31671   0.31768

 Mulliken charges:
               1
     1  C   -0.169093
     2  C   -0.217450
     3  C   -0.171138
     4  C    0.158755
     5  C   -0.171107
     6  C   -0.219031
     7  H    0.227013
     8  H    0.224402
     9  H    0.275747
    10  H    0.275963
    11  H    0.223988
    12  N    0.488111
    13  O   -0.460251
    14  O   -0.460209
    15  C   -0.296576
    16  C   -0.299792
    17  C   -0.475781
    18  H    0.150901
    19  H    0.140027
    20  H    0.154539
    21  H    0.151949
    22  H    0.153265
    23  H    0.155854
    24  H    0.162368
    25  C   -0.298466
    26  C   -0.305109
    27  C   -0.474110
    28  H    0.152575
    29  H    0.147398
    30  H    0.150348
    31  H    0.151259
    32  H    0.154632
    33  H    0.156328
    34  H    0.162693
 Sum of Mulliken charges =  -0.00000

 Dipole moment (field-independent basis, Debye):
    X=             -4.0174    Y=              3.1335    Z=              0.9444  Tot=              5.1817
 Quadrupole moment (field-independent basis, Debye-Ang):
   XX=           -118.4014   YY=            -93.4288   ZZ=            -91.7361
   XY=             10.4120   XZ=              5.3032   YZ=              1.2116

 Normal termination of Gaussian 16 at Thu May  6 07:49:55 2021.
