 Gaussian 16, Revision A.03,
 Gaussian 16:  EM64L-G16RevA.03 25-Dec-2016

 -------------
 #p 6-31g* mp2
 -------------

 ------------------------------------------------------
 Input file generated by CHIRIPA (05-May-2021 14:55:23)
 ------------------------------------------------------
 Symbolic Z-matrix:
 Charge =  0 Multiplicity = 1

                         Standard orientation:
 ---------------------------------------------------------------------
 Center     Atomic      Atomic             Coordinates (Angstroms)
 Number     Number       Type             X           Y           Z
 ---------------------------------------------------------------------
      1          6           0        4.749541    0.422373    0.022582
      2          6           0        4.311763   -0.433118   -0.993787
      3          6           0        3.013831   -0.952313   -0.974856
      4          6           0        2.176422   -0.593509    0.080272
      5          6           0        2.583260    0.256531    1.107504
      6          6           0        3.885417    0.763865    1.068140
      7          1           0        5.759447    0.821089   -0.000061
      8          1           0        4.980676   -0.700042   -1.807022
      9          1           0        2.649037   -1.616641   -1.748814
     10          1           0        1.893513    0.504520    1.905105
     11          1           0        4.222688    1.428037    1.858816
     12          7           0        0.800124   -1.136880    0.111130
     13          8           0        0.081733   -0.805496    1.051734
     14          8           0        0.465832   -1.883868   -0.805873
     15          6           0       -3.007505    1.375436   -0.309013
     16          6           0       -1.607377    1.945095   -0.078555
     17          6           0       -1.485773    3.407148   -0.509146
     18          1           0       -3.263579    1.468222   -1.373326
     19          1           0       -3.738332    1.983048    0.242436
     20          1           0       -0.879256    1.335761   -0.629161
     21          1           0       -1.354529    1.850768    0.985300
     22          1           0       -2.189916    4.032888    0.048735
     23          1           0       -1.711942    3.514955   -1.574898
     24          1           0       -0.476843    3.794189   -0.335597
     25          6           0       -3.144821   -0.085310    0.116535
     26          6           0       -4.544950   -0.654970   -0.113923
     27          6           0       -4.666554   -2.117023    0.316668
     28          1           0       -2.413995   -0.692923   -0.434914
     29          1           0       -2.888748   -0.178097    1.180848
     30          1           0       -4.797797   -0.560642   -1.177777
     31          1           0       -5.273071   -0.045635    0.436683
     32          1           0       -4.440384   -2.224829    1.382420
     33          1           0       -3.962410   -2.742763   -0.241213
     34          1           0       -5.675484   -2.504064    0.143119
 ---------------------------------------------------------------------

 SCF Done:  E(RHF) =  -669.535514748     A.U. after   15 cycles
 E2 =    -0.2093856458D+01 EUMP2 =    -0.67162937120632D+03

 The electronic state is 1-A.
 Alpha  occ. eigenvalues --  -20.61052 -20.61040 -15.86029 -11.31339 -11.27896
 Alpha  occ. eigenvalues --  -11.27891 -11.27626 -11.26893 -11.26882 -11.20562
 Alpha  occ. eigenvalues --  -11.20397 -11.20218 -11.20163 -11.19747 -11.19508
 Alpha  occ. eigenvalues --   -1.60091  -1.39648  -1.19501  -1.08913  -1.07085
 Alpha  occ. eigenvalues --   -1.04891  -1.02364  -0.95762  -0.94801  -0.86293
 Alpha  occ. eigenvalues --   -0.85824  -0.82604  -0.78457  -0.77653  -0.76811
 Alpha  occ. eigenvalues --   -0.72254  -0.71386  -0.70610  -0.65157  -0.64895
 Alpha  occ. eigenvalues --   -0.63729  -0.62239  -0.59779  -0.58213  -0.56412
 Alpha  occ. eigenvalues --   -0.55398  -0.54098  -0.53223  -0.52982  -0.51590
 Alpha  occ. eigenvalues --   -0.51243  -0.49084  -0.49036  -0.48725  -0.46813
 Alpha  occ. eigenvalues --   -0.45497  -0.45176  -0.44223  -0.43996  -0.42536
 Alpha  occ. eigenvalues --   -0.37474  -0.36488
 Alpha virt. eigenvalues --    0.04835   0.11158   0.16329   0.21246   0.24015
 Alpha virt. eigenvalues --    0.25325   0.27090   0.27699   0.27934   0.28886
 Alpha virt. eigenvalues --    0.29231   0.31024   0.31998   0.32495   0.32638

 Mulliken charges:
               1
     1  C   -0.170353
     2  C   -0.218608
     3  C   -0.170757
     4  C    0.158381
     5  C   -0.170168
     6  C   -0.218690
     7  H    0.226206
     8  H    0.223972
     9  H    0.275792
    10  H    0.275949
    11  H    0.224033
    12  N    0.487705
    13  O   -0.454057
    14  O   -0.460839
    15  C   -0.299285
    16  C   -0.292761
    17  C   -0.475237
    18  H    0.144555
    19  H    0.143351
    20  H    0.146144
    21  H    0.155241
    22  H    0.152930
    23  H    0.152986
    24  H    0.152536
    25  C   -0.299049
    26  C   -0.299553
    27  C   -0.474459
    28  H    0.168689
    29  H    0.155465
    30  H    0.146610
    31  H    0.144894
    32  H    0.154524
    33  H    0.160692
    34  H    0.153159
 Sum of Mulliken charges =  -0.00000

 Dipole moment (field-independent basis, Debye):
    X=              5.1846    Y=              1.6691    Z=              0.0005  Tot=              5.4467
 Quadrupole moment (field-independent basis, Debye-Ang):
   XX=            -75.4378   YY=            -98.2990   ZZ=            -90.5787
   XY=              0.8262   XZ=             -1.0980   YZ=              3.4491

 Normal termination of Gaussian 16 at Thu May  6 17:39:05 2021.
