 Gaussian 16, Revision A.03,
 Gaussian 16:  EM64L-G16RevA.03 25-Dec-2016

 -------------
 #p 6-31g* mp2
 -------------

 ------------------------------------------------------
 Input file generated by CHIRIPA (05-May-2021 14:51:13)
 ------------------------------------------------------
 Symbolic Z-matrix:
 Charge =  0 Multiplicity = 1

                         Standard orientation:
 ---------------------------------------------------------------------
 Center     Atomic      Atomic             Coordinates (Angstroms)
 Number     Number       Type             X           Y           Z
 ---------------------------------------------------------------------
      1          6           0       -4.521296    0.209514   -0.188808
      2          6           0       -4.883657    1.646155    0.189003
      3          6           0       -6.230752    2.086459   -0.384813
      4          1           0       -4.502494    0.118633   -1.283491
      5          1           0       -5.311135   -0.466247    0.167418
      6          1           0       -4.092693    2.318856   -0.166616
      7          1           0       -4.901411    1.733675    1.282914
      8          1           0       -7.034888    1.439120   -0.020232
      9          1           0       -6.221574    2.027626   -1.477999
     10          1           0       -6.470023    3.116460   -0.102491
     11          6           0       -3.177306   -0.245191    0.377462
     12          6           0       -2.814945   -1.681833   -0.000349
     13          6           0       -1.467850   -2.122136    0.573466
     14          1           0       -2.387467    0.430569    0.021236
     15          1           0       -3.196108   -0.154310    1.472145
     16          1           0       -2.797191   -1.769352   -1.094260
     17          1           0       -3.605909   -2.354533    0.355270
     18          1           0       -1.477028   -2.063303    1.666652
     19          1           0       -0.663714   -1.474797    0.208886
     20          1           0       -1.228579   -3.152138    0.291144
     21          6           0        3.760389   -0.740397   -0.118927
     22          6           0        2.305334   -1.174800   -0.298073
     23          6           0        2.143646   -2.694473   -0.345436
     24          1           0        4.362408   -1.149141   -0.941999
     25          1           0        4.156051   -1.181181    0.806576
     26          1           0        1.912111   -0.732202   -1.222249
     27          1           0        1.706675   -0.764814    0.525417
     28          1           0        2.509848   -3.149886    0.580359
     29          1           0        2.716451   -3.117089   -1.177235
     30          1           0        1.095722   -2.982896   -0.474001
     31          6           0        3.938213    0.776075   -0.069727
     32          6           0        5.393268    1.210476    0.109419
     33          6           0        5.554956    2.730150    0.156782
     34          1           0        3.542551    1.216859   -0.995230
     35          1           0        3.336194    1.184820    0.753345
     36          1           0        5.991927    0.800491   -0.714071
     37          1           0        5.786491    0.767879    1.033595
     38          1           0        4.982151    3.152767    0.988583
     39          1           0        5.188754    3.185563   -0.769013
     40          1           0        6.602879    3.018573    0.285347
 ---------------------------------------------------------------------

 SCF Done:  E(RHF) =  -470.731993815     A.U. after   11 cycles
 E2 =    -0.1583410735D+01 EUMP2 =    -0.47231540455049D+03

 The electronic state is 1-A.
 Alpha  occ. eigenvalues --  -11.21601 -11.21591 -11.21588 -11.21561 -11.21405
 Alpha  occ. eigenvalues --  -11.21382 -11.21346 -11.21321 -11.21071 -11.21063
 Alpha  occ. eigenvalues --  -11.21023 -11.20883  -1.08438  -1.08395  -1.03578
 Alpha  occ. eigenvalues --   -1.03449  -0.96073  -0.95851  -0.87088  -0.86871
 Alpha  occ. eigenvalues --   -0.79609  -0.79562  -0.78269  -0.78198  -0.65079
 Alpha  occ. eigenvalues --   -0.65021  -0.61029  -0.60858  -0.59542  -0.59165
 Alpha  occ. eigenvalues --   -0.57667  -0.57543  -0.55272  -0.55159  -0.52993
 Alpha  occ. eigenvalues --   -0.52478  -0.52412  -0.52153  -0.49888  -0.49840
 Alpha  occ. eigenvalues --   -0.47997  -0.47797  -0.46679  -0.46523  -0.45836
 Alpha  occ. eigenvalues --   -0.45745  -0.45706  -0.45606  -0.43937  -0.43563
 Alpha virt. eigenvalues --    0.22282   0.23006   0.23536   0.24966   0.26330
 Alpha virt. eigenvalues --    0.26679   0.27051   0.27295   0.27821   0.29103
 Alpha virt. eigenvalues --    0.29983   0.31109   0.31457   0.31782   0.32488

 Mulliken charges:
               1
     1  C   -0.298271
     2  C   -0.299659
     3  C   -0.475701
     4  H    0.149639
     5  H    0.149552
     6  H    0.151974
     7  H    0.151897
     8  H    0.155178
     9  H    0.155176
    10  H    0.160255
    11  C   -0.298780
    12  C   -0.299402
    13  C   -0.484129
    14  H    0.149846
    15  H    0.149517
    16  H    0.151767
    17  H    0.151736
    18  H    0.154888
    19  H    0.165563
    20  H    0.160875
    21  C   -0.297868
    22  C   -0.302191
    23  C   -0.481151
    24  H    0.149644
    25  H    0.149694
    26  H    0.150574
    27  H    0.153161
    28  H    0.154433
    29  H    0.153845
    30  H    0.168461
    31  C   -0.298346
    32  C   -0.299620
    33  C   -0.475682
    34  H    0.149179
    35  H    0.149588
    36  H    0.151931
    37  H    0.151971
    38  H    0.155159
    39  H    0.155072
    40  H    0.160225
 Sum of Mulliken charges =  -0.00000

 Dipole moment (field-independent basis, Debye):
    X=             -0.0244    Y=             -0.0036    Z=              0.0121  Tot=              0.0275
 Quadrupole moment (field-independent basis, Debye-Ang):
   XX=            -85.7503   YY=            -86.1000   ZZ=            -83.1485
   XY=              0.3439   XZ=             -0.8258   YZ=             -0.2269

 Normal termination of Gaussian 16 at Wed May  5 18:23:20 2021.
