 Gaussian 16, Revision A.03,
 Gaussian 16:  EM64L-G16RevA.03 25-Dec-2016

 -------------
 #p 6-31g* mp2
 -------------

 ------------------------------------------------------
 Input file generated by CHIRIPA (05-May-2021 14:51:08)
 ------------------------------------------------------
 Symbolic Z-matrix:
 Charge =  0 Multiplicity = 1

                         Standard orientation:
 ---------------------------------------------------------------------
 Center     Atomic      Atomic             Coordinates (Angstroms)
 Number     Number       Type             X           Y           Z
 ---------------------------------------------------------------------
      1          6           0       -4.931898   -0.178368    0.366282
      2          6           0       -6.017898   -0.694239   -0.578422
      3          6           0       -7.396935   -0.748486    0.079689
      4          1           0       -4.890745   -0.823580    1.254512
      5          1           0       -5.209781    0.823936    0.720631
      6          1           0       -5.737375   -1.694703   -0.931968
      7          1           0       -6.056341   -0.047836   -1.464594
      8          1           0       -7.702227    0.247293    0.417063
      9          1           0       -7.381449   -1.408931    0.952715
     10          1           0       -8.158173   -1.120065   -0.613352
     11          6           0       -3.547677   -0.118383   -0.277194
     12          6           0       -2.461676    0.397488    0.667510
     13          6           0       -1.082640    0.451736    0.009399
     14          1           0       -3.269793   -1.120686   -0.631543
     15          1           0       -3.588830    0.526830   -1.165424
     16          1           0       -2.423234   -0.248915    1.553682
     17          1           0       -2.742199    1.397952    1.021056
     18          1           0       -1.098125    1.112180   -0.863627
     19          1           0       -0.777347   -0.544044   -0.327975
     20          1           0       -0.321402    0.823315    0.702440
     21          6           0        4.152849    0.898935    0.067411
     22          6           0        2.759336    1.409498   -0.300600
     23          6           0        2.600892    2.912840   -0.071136
     24          1           0        4.356005    1.133868    1.121204
     25          1           0        4.902795    1.442126   -0.524129
     26          1           0        2.012151    0.864536    0.290456
     27          1           0        2.559397    1.173153   -1.353587
     28          1           0        3.324300    3.472705   -0.672663
     29          1           0        2.773946    3.162334    0.980723
     30          1           0        1.597351    3.256526   -0.340665
     31          6           0        4.326726   -0.602184   -0.156499
     32          6           0        5.720239   -1.112747    0.211512
     33          6           0        5.878682   -2.616089   -0.017952
     34          1           0        3.576780   -1.145375    0.435042
     35          1           0        4.123570   -0.837117   -1.210291
     36          1           0        5.920177   -0.876402    1.264499
     37          1           0        6.467423   -0.567785   -0.379544
     38          1           0        5.705629   -2.865584   -1.069811
     39          1           0        5.155274   -3.175954    0.583574
     40          1           0        6.882223   -2.959775    0.251577
 ---------------------------------------------------------------------

 SCF Done:  E(RHF) =  -470.733058574     A.U. after   11 cycles
 E2 =    -0.1582539310D+01 EUMP2 =    -0.47231559788377D+03

 The electronic state is 1-A.
 Alpha  occ. eigenvalues --  -11.21604 -11.21600 -11.21569 -11.21476 -11.21407
 Alpha  occ. eigenvalues --  -11.21350 -11.21348 -11.21287 -11.21073 -11.21057
 Alpha  occ. eigenvalues --  -11.21049 -11.21010  -1.08434  -1.08372  -1.03546
 Alpha  occ. eigenvalues --   -1.03462  -0.96001  -0.95913  -0.87010  -0.86940
 Alpha  occ. eigenvalues --   -0.79666  -0.79472  -0.78257  -0.78168  -0.65063
 Alpha  occ. eigenvalues --   -0.65014  -0.60931  -0.60909  -0.59483  -0.59176
 Alpha  occ. eigenvalues --   -0.57638  -0.57487  -0.55267  -0.55224  -0.52733
 Alpha  occ. eigenvalues --   -0.52582  -0.52406  -0.52353  -0.49926  -0.49864
 Alpha  occ. eigenvalues --   -0.47923  -0.47842  -0.46635  -0.46557  -0.45803
 Alpha  occ. eigenvalues --   -0.45724  -0.45705  -0.45656  -0.43772  -0.43669
 Alpha virt. eigenvalues --    0.21973   0.23035   0.23553   0.24954   0.26363
 Alpha virt. eigenvalues --    0.26618   0.26928   0.27510   0.27869   0.28933
 Alpha virt. eigenvalues --    0.30327   0.31109   0.31595   0.31763   0.32310

 Mulliken charges:
               1
     1  C   -0.298235
     2  C   -0.299615
     3  C   -0.475698
     4  H    0.149603
     5  H    0.149523
     6  H    0.151932
     7  H    0.151942
     8  H    0.155185
     9  H    0.155166
    10  H    0.160262
    11  C   -0.298618
    12  C   -0.299939
    13  C   -0.477938
    14  H    0.149536
    15  H    0.149618
    16  H    0.151683
    17  H    0.151862
    18  H    0.155426
    19  H    0.155373
    20  H    0.163654
    21  C   -0.297843
    22  C   -0.304107
    23  C   -0.476685
    24  H    0.149051
    25  H    0.149094
    26  H    0.158070
    27  H    0.151860
    28  H    0.154953
    29  H    0.154361
    30  H    0.160953
    31  C   -0.298184
    32  C   -0.299571
    33  C   -0.475661
    34  H    0.149387
    35  H    0.149622
    36  H    0.151801
    37  H    0.151879
    38  H    0.155125
    39  H    0.155045
    40  H    0.160129
 Sum of Mulliken charges =  -0.00000

 Dipole moment (field-independent basis, Debye):
    X=             -0.0257    Y=             -0.0059    Z=             -0.0056  Tot=              0.0269
 Quadrupole moment (field-independent basis, Debye-Ang):
   XX=            -86.0767   YY=            -85.0550   ZZ=            -83.8932
   XY=              0.0293   XZ=              0.1286   YZ=             -0.5780

 Normal termination of Gaussian 16 at Wed May  5 21:19:20 2021.
