 Gaussian 16, Revision A.03,
 Gaussian 16:  EM64L-G16RevA.03 25-Dec-2016

 -------------
 #p 6-31g* mp2
 -------------

 ------------------------------------------------------
 Input file generated by CHIRIPA (05-May-2021 14:51:09)
 ------------------------------------------------------
 Symbolic Z-matrix:
 Charge =  0 Multiplicity = 1

                         Standard orientation:
 ---------------------------------------------------------------------
 Center     Atomic      Atomic             Coordinates (Angstroms)
 Number     Number       Type             X           Y           Z
 ---------------------------------------------------------------------
      1          6           0       -3.549731    0.578329    0.277723
      2          6           0       -2.151247    0.307688    0.833583
      3          6           0       -1.328738    1.584200    1.011880
      4          1           0       -3.460025    1.096170   -0.687024
      5          1           0       -4.078582    1.265050    0.953094
      6          1           0       -1.625688   -0.379409    0.158082
      7          1           0       -2.244290   -0.209740    1.797028
      8          1           0       -1.828454    2.271152    1.702519
      9          1           0       -1.206338    2.100518    0.054261
     10          1           0       -0.332633    1.367592    1.410273
     11          6           0       -4.384113   -0.688061    0.093896
     12          6           0       -5.782598   -0.417421   -0.461963
     13          6           0       -6.605107   -1.693933   -0.640261
     14          1           0       -3.855262   -1.374782   -0.581474
     15          1           0       -4.473820   -1.205902    1.058644
     16          1           0       -5.689554    0.100007   -1.425409
     17          1           0       -6.308156    0.269677    0.213537
     18          1           0       -6.727507   -2.210251    0.317358
     19          1           0       -6.105390   -2.380884   -1.330900
     20          1           0       -7.601211   -1.477324   -1.038653
     21          6           0        3.362817    0.480390    0.007627
     22          6           0        3.219616    1.748443   -0.834702
     23          6           0        2.006467    2.589244   -0.435803
     24          1           0        2.449302   -0.122043   -0.089889
     25          1           0        3.441490    0.759540    1.067477
     26          1           0        3.142626    1.467059   -1.892772
     27          1           0        4.133655    2.347837   -0.735321
     28          1           0        2.079741    2.898468    0.611868
     29          1           0        1.083082    2.012686   -0.552161
     30          1           0        1.923214    3.490869   -1.050623
     31          6           0        4.571028   -0.370658   -0.379247
     32          6           0        4.714229   -1.638711    0.463083
     33          6           0        5.927376   -2.479511    0.064184
     34          1           0        4.492355   -0.649807   -1.439096
     35          1           0        5.484543    0.231775   -0.281730
     36          1           0        3.800190   -2.238103    0.363701
     37          1           0        4.791218   -1.357326    1.521153
     38          1           0        6.850764   -1.902954    0.180541
     39          1           0        5.854104   -2.788735   -0.983486
     40          1           0        6.010630   -3.381136    0.679002
 ---------------------------------------------------------------------

 SCF Done:  E(RHF) =  -470.732226166     A.U. after   11 cycles
 E2 =    -0.1582897624D+01 EUMP2 =    -0.47231512379045D+03

 The electronic state is 1-A.
 Alpha  occ. eigenvalues --  -11.21601 -11.21594 -11.21589 -11.21538 -11.21402
 Alpha  occ. eigenvalues --  -11.21391 -11.21342 -11.21332 -11.21072 -11.21065
 Alpha  occ. eigenvalues --  -11.20980 -11.20897  -1.08430  -1.08400  -1.03550
 Alpha  occ. eigenvalues --   -1.03462  -0.96041  -0.95871  -0.87105  -0.86845
 Alpha  occ. eigenvalues --   -0.79691  -0.79455  -0.78251  -0.78206  -0.65092
 Alpha  occ. eigenvalues --   -0.65010  -0.61056  -0.60786  -0.59440  -0.59234
 Alpha  occ. eigenvalues --   -0.57639  -0.57493  -0.55485  -0.55037  -0.52851
 Alpha  occ. eigenvalues --   -0.52634  -0.52379  -0.52179  -0.50135  -0.49649
 Alpha  occ. eigenvalues --   -0.47900  -0.47840  -0.46722  -0.46448  -0.45805
 Alpha  occ. eigenvalues --   -0.45742  -0.45703  -0.45642  -0.43754  -0.43725
 Alpha virt. eigenvalues --    0.21905   0.23088   0.23584   0.25014   0.26408
 Alpha virt. eigenvalues --    0.26774   0.27039   0.27231   0.27884   0.29078
 Alpha virt. eigenvalues --    0.30270   0.31354   0.31589   0.31839   0.32316

 Mulliken charges:
               1
     1  C   -0.298425
     2  C   -0.300642
     3  C   -0.479273
     4  H    0.149667
     5  H    0.149710
     6  H    0.150926
     7  H    0.152088
     8  H    0.155074
     9  H    0.157078
    10  H    0.164220
    11  C   -0.298210
    12  C   -0.299640
    13  C   -0.475695
    14  H    0.149303
    15  H    0.149679
    16  H    0.151904
    17  H    0.151975
    18  H    0.155187
    19  H    0.155115
    20  H    0.160257
    21  C   -0.298743
    22  C   -0.299553
    23  C   -0.480351
    24  H    0.149395
    25  H    0.149161
    26  H    0.151201
    27  H    0.151363
    28  H    0.154539
    29  H    0.163852
    30  H    0.158796
    31  C   -0.298123
    32  C   -0.299648
    33  C   -0.475693
    34  H    0.149446
    35  H    0.149754
    36  H    0.151874
    37  H    0.151883
    38  H    0.155189
    39  H    0.155139
    40  H    0.160221
 Sum of Mulliken charges =  -0.00000

 Dipole moment (field-independent basis, Debye):
    X=             -0.0229    Y=              0.0121    Z=              0.0124  Tot=              0.0287
 Quadrupole moment (field-independent basis, Debye-Ang):
   XX=            -85.7282   YY=            -85.7622   ZZ=            -83.4795
   XY=              0.1894   XZ=              0.0872   YZ=              0.2058

 Normal termination of Gaussian 16 at Wed May  5 16:39:33 2021.
