 Gaussian 16, Revision A.03,
 Gaussian 16:  EM64L-G16RevA.03 25-Dec-2016

 -------------
 #p 6-31g* mp2
 -------------

 ------------------------------------------------------
 Input file generated by CHIRIPA (05-May-2021 14:55:25)
 ------------------------------------------------------
 Symbolic Z-matrix:
 Charge =  0 Multiplicity = 1

                         Standard orientation:
 ---------------------------------------------------------------------
 Center     Atomic      Atomic             Coordinates (Angstroms)
 Number     Number       Type             X           Y           Z
 ---------------------------------------------------------------------
      1          6           0       -4.702625    2.177582    0.126816
      2          6           0       -3.314262    2.314216    0.025325
      3          6           0       -2.493906    1.185213   -0.057835
      4          6           0       -3.098200   -0.070840   -0.036598
      5          6           0       -4.478323   -0.239654    0.063658
      6          6           0       -5.279208    0.903330    0.145626
      7          1           0       -5.332335    3.060050    0.190953
      8          1           0       -2.863722    3.302567    0.010486
      9          1           0       -1.416314    1.262152   -0.137166
     10          1           0       -4.898373   -1.238064    0.076018
     11          1           0       -6.357139    0.794196    0.224365
     12          7           0       -2.240032   -1.273466   -0.124005
     13          8           0       -2.796959   -2.368928   -0.103242
     14          8           0       -1.026723   -1.097849   -0.211622
     15          6           0        4.423968    0.479083   -0.278619
     16          6           0        5.688397    0.986378    0.415541
     17          6           0        6.231033    2.271675   -0.210037
     18          1           0        4.640662    0.307927   -1.341960
     19          1           0        3.653219    1.261224   -0.238644
     20          1           0        6.456071    0.202995    0.375483
     21          1           0        5.468718    1.156163    1.477393
     22          1           0        5.484848    3.071017   -0.156543
     23          1           0        6.477810    2.112434   -1.264714
     24          1           0        7.134992    2.616621    0.301561
     25          6           0        3.869501   -0.805144    0.335432
     26          6           0        2.605072   -1.312438   -0.358727
     27          6           0        2.062435   -2.597735    0.266850
     28          1           0        4.640249   -1.587283    0.295457
     29          1           0        3.652806   -0.633988    1.398773
     30          1           0        2.824750   -1.482222   -1.420580
     31          1           0        1.837397   -0.529055   -0.318670
     32          1           0        1.815658   -2.438494    1.321527
     33          1           0        2.808621   -3.397077    0.213356
     34          1           0        1.158477   -2.942681   -0.244748
 ---------------------------------------------------------------------

 SCF Done:  E(RHF) =  -669.535863674     A.U. after   15 cycles
 E2 =    -0.2091615322D+01 EUMP2 =    -0.67162747899557D+03

 The electronic state is 1-A.
 Alpha  occ. eigenvalues --  -20.60991 -20.60984 -15.86019 -11.31328 -11.27892
 Alpha  occ. eigenvalues --  -11.27885 -11.27623 -11.26893 -11.26883 -11.21123
 Alpha  occ. eigenvalues --  -11.20742 -11.20735 -11.20420 -11.20175 -11.19257
 Alpha  occ. eigenvalues --   -1.60051  -1.39608  -1.19495  -1.08902  -1.07585
 Alpha  occ. eigenvalues --   -1.04889  -1.02543  -0.95753  -0.94988  -0.86291
 Alpha  occ. eigenvalues --   -0.86022  -0.82582  -0.78694  -0.77649  -0.77301
 Alpha  occ. eigenvalues --   -0.72257  -0.71361  -0.70604  -0.65156  -0.64893
 Alpha  occ. eigenvalues --   -0.64229  -0.62238  -0.59946  -0.58451  -0.56544
 Alpha  occ. eigenvalues --   -0.55392  -0.54316  -0.53221  -0.52981  -0.51657
 Alpha  occ. eigenvalues --   -0.51442  -0.49100  -0.48992  -0.48850  -0.46949
 Alpha  occ. eigenvalues --   -0.45772  -0.45019  -0.44864  -0.44736  -0.42781
 Alpha  occ. eigenvalues --   -0.37472  -0.36489
 Alpha virt. eigenvalues --    0.04895   0.11166   0.16397   0.21165   0.23560
 Alpha virt. eigenvalues --    0.25205   0.26757   0.27433   0.27845   0.28682
 Alpha virt. eigenvalues --    0.29041   0.30639   0.31768   0.32379   0.33039

 Mulliken charges:
               1
     1  C   -0.170541
     2  C   -0.218536
     3  C   -0.170510
     4  C    0.157323
     5  C   -0.170565
     6  C   -0.218568
     7  H    0.226137
     8  H    0.223978
     9  H    0.275415
    10  H    0.275967
    11  H    0.223945
    12  N    0.494839
    13  O   -0.458917
    14  O   -0.464634
    15  C   -0.296337
    16  C   -0.298764
    17  C   -0.474922
    18  H    0.148495
    19  H    0.144879
    20  H    0.151741
    21  H    0.150517
    22  H    0.152638
    23  H    0.154654
    24  H    0.158586
    25  C   -0.297714
    26  C   -0.299617
    27  C   -0.473513
    28  H    0.146860
    29  H    0.146765
    30  H    0.146306
    31  H    0.159090
    32  H    0.149941
    33  H    0.142887
    34  H    0.182177
 Sum of Mulliken charges =  -0.00000

 Dipole moment (field-independent basis, Debye):
    X=             -3.4402    Y=              4.1798    Z=              0.2723  Tot=              5.4203
 Quadrupole moment (field-independent basis, Debye-Ang):
   XX=            -74.1134   YY=            -94.7331   ZZ=            -95.5293
   XY=            -11.1787   XZ=             -1.3970   YZ=              0.4562

 Normal termination of Gaussian 16 at Thu May  6 16:03:59 2021.
