 Gaussian 16, Revision A.03,
 Gaussian 16:  EM64L-G16RevA.03 25-Dec-2016

 -------------
 #p 6-31g* mp2
 -------------

 ------------------------------------------------------
 Input file generated by CHIRIPA (05-May-2021 14:51:12)
 ------------------------------------------------------
 Symbolic Z-matrix:
 Charge =  0 Multiplicity = 1

                         Standard orientation:
 ---------------------------------------------------------------------
 Center     Atomic      Atomic             Coordinates (Angstroms)
 Number     Number       Type             X           Y           Z
 ---------------------------------------------------------------------
      1          6           0        1.298506    1.793615   -0.333302
      2          6           0        0.466873    2.542967    0.708256
      3          6           0       -0.561977    3.482551    0.078618
      4          1           0        1.810496    2.521686   -0.977292
      5          1           0        0.625896    1.218694   -0.984806
      6          1           0        1.140951    3.115209    1.358466
      7          1           0       -0.043046    1.813027    1.349962
      8          1           0       -1.257603    2.923035   -0.555139
      9          1           0       -0.066878    4.232616   -0.546586
     10          1           0       -1.145365    4.008012    0.841120
     11          6           0        2.331474    0.850388    0.280723
     12          6           0        3.163107    0.101036   -0.760836
     13          6           0        4.191956   -0.838548   -0.131198
     14          1           0        3.004084    1.425308    0.932227
     15          1           0        1.819484    0.122317    0.924713
     16          1           0        3.673026    0.830975   -1.402542
     17          1           0        2.489029   -0.471207   -1.411046
     18          1           0        3.696858   -1.588613    0.494007
     19          1           0        4.887582   -0.279032    0.502559
     20          1           0        4.775345   -1.364009   -0.893699
     21          6           0       -1.254085   -1.604011    0.461362
     22          6           0       -0.260659   -2.468765   -0.315356
     23          6           0        0.855617   -3.025706    0.568691
     24          1           0       -0.713918   -0.774760    0.938340
     25          1           0       -1.691654   -2.200439    1.273890
     26          1           0        0.173880   -1.871293   -1.127032
     27          1           0       -0.803283   -3.295944   -0.790698
     28          1           0        0.439654   -3.644451    1.370397
     29          1           0        1.422368   -2.211705    1.032151
     30          1           0        1.554374   -3.640846   -0.006809
     31          6           0       -2.375895   -1.039991   -0.408782
     32          6           0       -3.369320   -0.175238    0.367935
     33          6           0       -4.485596    0.381704   -0.516112
     34          1           0       -1.938326   -0.443563   -1.221311
     35          1           0       -2.916062   -1.869243   -0.885761
     36          1           0       -2.826697    0.651942    0.843277
     37          1           0       -3.803859   -0.772710    1.179611
     38          1           0       -5.052347   -0.432298   -0.979572
     39          1           0       -4.069633    1.000449   -1.317816
     40          1           0       -5.184354    0.996844    0.059388
 ---------------------------------------------------------------------

 SCF Done:  E(RHF) =  -470.732025180     A.U. after   11 cycles
 E2 =    -0.1586802197D+01 EUMP2 =    -0.47231882737732D+03

 The electronic state is 1-A.
 Alpha  occ. eigenvalues --  -11.21683 -11.21681 -11.21644 -11.21614 -11.21478
 Alpha  occ. eigenvalues --  -11.21467 -11.21419 -11.21399 -11.21142 -11.21118
 Alpha  occ. eigenvalues --  -11.21105 -11.21007  -1.08588  -1.08410  -1.03662
 Alpha  occ. eigenvalues --   -1.03508  -0.96084  -0.95980  -0.87078  -0.87022
 Alpha  occ. eigenvalues --   -0.79732  -0.79575  -0.78462  -0.78170  -0.65795
 Alpha  occ. eigenvalues --   -0.64531  -0.61470  -0.60511  -0.59449  -0.59367
 Alpha  occ. eigenvalues --   -0.57672  -0.57613  -0.55577  -0.55061  -0.52748
 Alpha  occ. eigenvalues --   -0.52702  -0.52479  -0.52423  -0.50079  -0.49906
 Alpha  occ. eigenvalues --   -0.48095  -0.47830  -0.47040  -0.46537  -0.46182
 Alpha  occ. eigenvalues --   -0.46056  -0.45579  -0.45099  -0.43843  -0.43825
 Alpha virt. eigenvalues --    0.17948   0.20898   0.23586   0.24825   0.25158
 Alpha virt. eigenvalues --    0.25535   0.27131   0.28346   0.29046   0.29886
 Alpha virt. eigenvalues --    0.30046   0.31434   0.31666   0.31955   0.32430

 Mulliken charges:
               1
     1  C   -0.300365
     2  C   -0.303736
     3  C   -0.476866
     4  H    0.150481
     5  H    0.150955
     6  H    0.152684
     7  H    0.154394
     8  H    0.155941
     9  H    0.155611
    10  H    0.160688
    11  C   -0.305222
    12  C   -0.302317
    13  C   -0.480056
    14  H    0.150236
    15  H    0.154691
    16  H    0.152297
    17  H    0.154556
    18  H    0.160817
    19  H    0.154596
    20  H    0.159949
    21  C   -0.305126
    22  C   -0.302832
    23  C   -0.482596
    24  H    0.155435
    25  H    0.150119
    26  H    0.154344
    27  H    0.152808
    28  H    0.155651
    29  H    0.161200
    30  H    0.161298
    31  C   -0.299336
    32  C   -0.302778
    33  C   -0.475863
    34  H    0.149753
    35  H    0.150219
    36  H    0.154978
    37  H    0.152153
    38  H    0.155309
    39  H    0.155210
    40  H    0.160720
 Sum of Mulliken charges =  -0.00000

 Dipole moment (field-independent basis, Debye):
    X=             -0.0090    Y=             -0.0100    Z=              0.0141  Tot=              0.0195
 Quadrupole moment (field-independent basis, Debye-Ang):
   XX=            -85.3575   YY=            -84.1665   ZZ=            -85.0894
   XY=              1.9548   XZ=             -0.7795   YZ=              0.3020

 Normal termination of Gaussian 16 at Thu May  6 00:43:38 2021.
