 Gaussian 16, Revision A.03,
 Gaussian 16:  EM64L-G16RevA.03 25-Dec-2016

 -------------
 #p 6-31g* mp2
 -------------

 ------------------------------------------------------
 Input file generated by CHIRIPA (05-May-2021 14:53:11)
 ------------------------------------------------------
 Symbolic Z-matrix:
 Charge =  0 Multiplicity = 1

                         Standard orientation:
 ---------------------------------------------------------------------
 Center     Atomic      Atomic             Coordinates (Angstroms)
 Number     Number       Type             X           Y           Z
 ---------------------------------------------------------------------
      1          6           0        5.033577   -0.234716   -0.180690
      2          6           0        5.691172    0.872765    0.643349
      3          6           0        7.146808    1.120127    0.246195
      4          1           0        5.610090   -1.162415   -0.062570
      5          1           0        5.083945    0.031139   -1.245669
      6          1           0        5.638347    0.605551    1.706562
      7          1           0        5.112917    1.797887    0.523405
      8          1           0        7.214628    1.411258   -0.807011
      9          1           0        7.743043    0.212149    0.382868
     10          1           0        7.597448    1.915665    0.847779
     11          6           0        3.578184   -0.493683    0.204661
     12          6           0        2.920589   -1.601163   -0.619378
     13          6           0        1.464953   -1.848526   -0.222225
     14          1           0        3.527816   -0.759537    1.269639
     15          1           0        3.001671    0.434016    0.086540
     16          1           0        3.498844   -2.526285   -0.499435
     17          1           0        2.973414   -1.333950   -1.682592
     18          1           0        0.868718   -0.940547   -0.358898
     19          1           0        1.397133   -2.139657    0.830982
     20          1           0        1.014312   -2.644064   -0.823809
     21          6           0       -4.026086   -2.128856    0.311709
     22          6           0       -4.936295   -1.108229    0.605574
     23          6           0       -4.580266    0.232473    0.431467
     24          6           0       -3.299958    0.517848   -0.040403
     25          6           0       -2.370773   -0.476607   -0.342008
     26          6           0       -2.748482   -1.810350   -0.160312
     27          1           0       -4.311077   -3.167643    0.449908
     28          1           0       -5.929184   -1.352629    0.972298
     29          1           0       -5.265226    1.042393    0.651185
     30          1           0       -1.388224   -0.201829   -0.706032
     31          1           0       -2.039536   -2.600909   -0.389346
     32          7           0       -2.911570    1.933505   -0.228740
     33          8           0       -1.777529    2.158625   -0.645762
     34          8           0       -3.748549    2.791171    0.044230
 ---------------------------------------------------------------------

 SCF Done:  E(RHF) =  -669.535612930     A.U. after   15 cycles
 E2 =    -0.2091152797D+01 EUMP2 =    -0.67162676572659D+03

 The electronic state is 1-A.
 Alpha  occ. eigenvalues --  -20.60738 -20.60732 -15.85788 -11.31117 -11.27694
 Alpha  occ. eigenvalues --  -11.27656 -11.27431 -11.26710 -11.26671 -11.21963
 Alpha  occ. eigenvalues --  -11.21788 -11.21548 -11.21495 -11.21399 -11.21006
 Alpha  occ. eigenvalues --   -1.59812  -1.39367  -1.19291  -1.08695  -1.08560
 Alpha  occ. eigenvalues --   -1.04688  -1.03732  -0.96211  -0.95534  -0.87242
 Alpha  occ. eigenvalues --   -0.86091  -0.82365  -0.79807  -0.78331  -0.77413
 Alpha  occ. eigenvalues --   -0.72010  -0.71133  -0.70415  -0.65191  -0.64943
 Alpha  occ. eigenvalues --   -0.64696  -0.62084  -0.61098  -0.59602  -0.57792
 Alpha  occ. eigenvalues --   -0.55528  -0.55173  -0.53040  -0.52947  -0.52837
 Alpha  occ. eigenvalues --   -0.52545  -0.50134  -0.48766  -0.48763  -0.48109
 Alpha  occ. eigenvalues --   -0.46800  -0.45886  -0.45775  -0.44780  -0.43970
 Alpha  occ. eigenvalues --   -0.37278  -0.36284
 Alpha virt. eigenvalues --    0.05104   0.11350   0.16598   0.20272   0.22853
 Alpha virt. eigenvalues --    0.23977   0.25642   0.26183   0.26955   0.27919
 Alpha virt. eigenvalues --    0.29058   0.29491   0.31439   0.31663   0.32455

 Mulliken charges:
               1
     1  C   -0.298707
     2  C   -0.300341
     3  C   -0.475893
     4  H    0.148672
     5  H    0.150657
     6  H    0.151700
     7  H    0.155129
     8  H    0.155739
     9  H    0.154326
    10  H    0.161021
    11  C   -0.300439
    12  C   -0.298793
    13  C   -0.483772
    14  H    0.149462
    15  H    0.156125
    16  H    0.152686
    17  H    0.154502
    18  H    0.156828
    19  H    0.158255
    20  H    0.153930
    21  C   -0.170984
    22  C   -0.218723
    23  C   -0.170710
    24  C    0.159523
    25  C   -0.176881
    26  C   -0.221975
    27  H    0.225354
    28  H    0.223112
    29  H    0.275294
    30  H    0.282507
    31  H    0.226460
    32  N    0.487639
    33  O   -0.461236
    34  O   -0.460469
 Sum of Mulliken charges =  -0.00000

 Dipole moment (field-independent basis, Debye):
    X=             -1.2268    Y=             -4.9479    Z=              0.6832  Tot=              5.1433
 Quadrupole moment (field-independent basis, Debye-Ang):
   XX=            -82.4230   YY=            -99.8338   ZZ=            -94.7053
   XY=             14.0889   XZ=             -3.4794   YZ=              0.5876

 Normal termination of Gaussian 16 at Wed May  5 23:18:39 2021.
