 Gaussian 16, Revision A.03,
 Gaussian 16:  EM64L-G16RevA.03 25-Dec-2016

 -------------
 #p 6-31g* mp2
 -------------

 ------------------------------------------------------
 Input file generated by CHIRIPA (05-May-2021 14:55:22)
 ------------------------------------------------------
 Symbolic Z-matrix:
 Charge =  0 Multiplicity = 1

                         Standard orientation:
 ---------------------------------------------------------------------
 Center     Atomic      Atomic             Coordinates (Angstroms)
 Number     Number       Type             X           Y           Z
 ---------------------------------------------------------------------
      1          6           0       -4.240452    1.831175    0.337307
      2          6           0       -4.528927    0.514332    0.710439
      3          6           0       -3.698650   -0.535870    0.307618
      4          6           0       -2.583242   -0.231853   -0.471309
      5          6           0       -2.269188    1.069755   -0.859225
      6          6           0       -3.113491    2.104202   -0.444955
      7          1           0       -4.890879    2.640878    0.654675
      8          1           0       -5.403455    0.299336    1.317912
      9          1           0       -3.898472   -1.564499    0.582230
     10          1           0       -1.390192    1.252893   -1.465232
     11          1           0       -2.886994    3.125918   -0.736228
     12          7           0       -1.696841   -1.335315   -0.903818
     13          8           0       -0.720264   -1.041151   -1.589676
     14          8           0       -1.995442   -2.473479   -0.548771
     15          6           0        3.982345    0.575263    0.223761
     16          6           0        5.217998   -0.060095   -0.414571
     17          6           0        6.186426    0.975534   -0.986771
     18          1           0        3.464423    1.188648   -0.526212
     19          1           0        4.301510    1.260251    1.021458
     20          1           0        4.896535   -0.744729   -1.209905
     21          1           0        5.732933   -0.672193    0.336956
     22          1           0        6.535445    1.652462   -0.200287
     23          1           0        5.694295    1.579514   -1.755936
     24          1           0        7.062537    0.499584   -1.438172
     25          6           0        3.004744   -0.447292    0.800307
     26          6           0        1.769091    0.188066    1.438640
     27          6           0        0.800663   -0.847563    2.010839
     28          1           0        2.685580   -1.132280    0.002610
     29          1           0        3.522666   -1.060678    1.550280
     30          1           0        1.254157    0.800164    0.687112
     31          1           0        2.090555    0.872700    2.233973
     32          1           0        1.292795   -1.451542    2.780004
     33          1           0        0.451645   -1.524490    1.224355
     34          1           0       -0.075448   -0.371614    2.462239
 ---------------------------------------------------------------------

 SCF Done:  E(RHF) =  -669.536394196     A.U. after   15 cycles
 E2 =    -0.2091975379D+01 EUMP2 =    -0.67162836957466D+03

 The electronic state is 1-A.
 Alpha  occ. eigenvalues --  -20.60923 -20.60912 -15.85945 -11.31268 -11.27832
 Alpha  occ. eigenvalues --  -11.27821 -11.27564 -11.26835 -11.26825 -11.21095
 Alpha  occ. eigenvalues --  -11.21047 -11.20850 -11.20681 -11.20654 -11.20439
 Alpha  occ. eigenvalues --   -1.59984  -1.39537  -1.19432  -1.08837  -1.07845
 Alpha  occ. eigenvalues --   -1.04828  -1.02992  -0.95681  -0.95441  -0.86460
 Alpha  occ. eigenvalues --   -0.86228  -0.82516  -0.79065  -0.77656  -0.77569
 Alpha  occ. eigenvalues --   -0.72170  -0.71321  -0.70542  -0.65089  -0.64832
 Alpha  occ. eigenvalues --   -0.64455  -0.62177  -0.60371  -0.58823  -0.57059
 Alpha  occ. eigenvalues --   -0.55335  -0.54704  -0.53160  -0.52921  -0.52163
 Alpha  occ. eigenvalues --   -0.51857  -0.49378  -0.48932  -0.48918  -0.47379
 Alpha  occ. eigenvalues --   -0.46083  -0.45227  -0.45083  -0.44935  -0.43240
 Alpha  occ. eigenvalues --   -0.37403  -0.36425
 Alpha virt. eigenvalues --    0.04923   0.11189   0.16418   0.21252   0.23358
 Alpha virt. eigenvalues --    0.24632   0.26722   0.27401   0.28026   0.28413
 Alpha virt. eigenvalues --    0.28482   0.30744   0.31727   0.32140   0.32337

 Mulliken charges:
               1
     1  C   -0.170570
     2  C   -0.218662
     3  C   -0.170826
     4  C    0.159871
     5  C   -0.171079
     6  C   -0.218548
     7  H    0.225933
     8  H    0.223793
     9  H    0.276029
    10  H    0.275556
    11  H    0.223810
    12  N    0.488457
    13  O   -0.461309
    14  O   -0.459150
    15  C   -0.297571
    16  C   -0.299897
    17  C   -0.475351
    18  H    0.148501
    19  H    0.145949
    20  H    0.155439
    21  H    0.151028
    22  H    0.153296
    23  H    0.154288
    24  H    0.159462
    25  C   -0.300882
    26  C   -0.296007
    27  C   -0.485388
    28  H    0.162910
    29  H    0.147277
    30  H    0.148310
    31  H    0.146892
    32  H    0.154612
    33  H    0.170620
    34  H    0.153208
 Sum of Mulliken charges =  -0.00000

 Dipole moment (field-independent basis, Debye):
    X=             -3.2593    Y=              3.7631    Z=              1.4167  Tot=              5.1760
 Quadrupole moment (field-independent basis, Debye-Ang):
   XX=            -78.0083   YY=            -95.0741   ZZ=            -95.4618
   XY=             -8.1397   XZ=             -3.5933   YZ=             -3.7303

 Normal termination of Gaussian 16 at Thu May  6 03:04:51 2021.
