 Gaussian 16, Revision A.03,
 Gaussian 16:  EM64L-G16RevA.03 25-Dec-2016

 -------------
 #p 6-31g* mp2
 -------------

 ------------------------------------------------------
 Input file generated by CHIRIPA (05-May-2021 14:53:16)
 ------------------------------------------------------
 Symbolic Z-matrix:
 Charge =  0 Multiplicity = 1

                         Standard orientation:
 ---------------------------------------------------------------------
 Center     Atomic      Atomic             Coordinates (Angstroms)
 Number     Number       Type             X           Y           Z
 ---------------------------------------------------------------------
      1          6           0        4.300483    0.864449    0.046932
      2          6           0        2.813955    0.953372   -0.299931
      3          6           0        2.275168    2.382592   -0.230413
      4          1           0        4.459950    1.269281    1.055706
      5          1           0        4.869292    1.505574   -0.640680
      6          1           0        2.248262    0.311195    0.387248
      7          1           0        2.657981    0.548105   -1.307923
      8          1           0        2.813790    3.031717   -0.928356
      9          1           0        2.401743    2.793461    0.776447
     10          1           0        1.210782    2.423067   -0.482016
     11          6           0        4.853719   -0.558021   -0.018151
     12          6           0        6.340246   -0.646944    0.328712
     13          6           0        6.879033   -2.076164    0.259194
     14          1           0        4.284910   -1.199146    0.669461
     15          1           0        4.694252   -0.962853   -1.026925
     16          1           0        6.496221   -0.241677    1.336704
     17          1           0        6.905940   -0.004767   -0.358467
     18          1           0        6.752458   -2.487033   -0.747665
     19          1           0        6.340411   -2.725289    0.957137
     20          1           0        7.943419   -2.116639    0.510797
     21          6           0       -2.522260    2.172796    0.006617
     22          6           0       -3.809116    1.989785    0.523368
     23          6           0       -4.402754    0.724036    0.518642
     24          6           0       -3.677717   -0.341328   -0.012969
     25          6           0       -2.393953   -0.190972   -0.535110
     26          6           0       -1.820024    1.083754   -0.520044
     27          1           0       -2.068763    3.159548    0.014303
     28          1           0       -4.356828    2.833729    0.933017
     29          1           0       -5.397547    0.554134    0.912263
     30          1           0       -1.872701   -1.051434   -0.936757
     31          1           0       -0.820484    1.222925   -0.922034
     32          7           0       -4.295744   -1.686072   -0.023445
     33          8           0       -3.636103   -2.608470   -0.497461
     34          8           0       -5.428092   -1.792220    0.442558
 ---------------------------------------------------------------------

 SCF Done:  E(RHF) =  -669.535483632     A.U. after   15 cycles
 E2 =    -0.2090878552D+01 EUMP2 =    -0.67162636218477D+03

 The electronic state is 1-A.
 Alpha  occ. eigenvalues --  -20.60740 -20.60735 -15.85793 -11.31154 -11.27726
 Alpha  occ. eigenvalues --  -11.27717 -11.27464 -11.26740 -11.26712 -11.22436
 Alpha  occ. eigenvalues --  -11.22135 -11.21992 -11.21942 -11.21806 -11.21319
 Alpha  occ. eigenvalues --   -1.59815  -1.39369  -1.19327  -1.08997  -1.08723
 Alpha  occ. eigenvalues --   -1.04730  -1.04134  -0.96590  -0.95558  -0.87609
 Alpha  occ. eigenvalues --   -0.86130  -0.82390  -0.80208  -0.78765  -0.77440
 Alpha  occ. eigenvalues --   -0.72012  -0.71138  -0.70435  -0.65616  -0.64980
 Alpha  occ. eigenvalues --   -0.64777  -0.62126  -0.61514  -0.59986  -0.58187
 Alpha  occ. eigenvalues --   -0.55849  -0.55229  -0.53389  -0.53089  -0.53049
 Alpha  occ. eigenvalues --   -0.52664  -0.50506  -0.48772  -0.48766  -0.48517
 Alpha  occ. eigenvalues --   -0.47222  -0.46317  -0.46208  -0.44775  -0.44382
 Alpha  occ. eigenvalues --   -0.37307  -0.36331
 Alpha virt. eigenvalues --    0.05097   0.11288   0.16582   0.19497   0.22553
 Alpha virt. eigenvalues --    0.23802   0.25923   0.26138   0.26889   0.27999
 Alpha virt. eigenvalues --    0.28582   0.30534   0.30854   0.31452   0.31932

 Mulliken charges:
               1
     1  C   -0.298642
     2  C   -0.302100
     3  C   -0.477369
     4  H    0.151315
     5  H    0.150825
     6  H    0.153782
     7  H    0.151402
     8  H    0.159395
     9  H    0.159475
    10  H    0.147628
    11  C   -0.299169
    12  C   -0.300176
    13  C   -0.476139
    14  H    0.151200
    15  H    0.150457
    16  H    0.152501
    17  H    0.152222
    18  H    0.155879
    19  H    0.156360
    20  H    0.161343
    21  C   -0.172211
    22  C   -0.218629
    23  C   -0.171227
    24  C    0.158815
    25  C   -0.171915
    26  C   -0.224032
    27  H    0.225677
    28  H    0.223332
    29  H    0.275492
    30  H    0.276050
    31  H    0.231503
    32  N    0.487961
    33  O   -0.460449
    34  O   -0.460558
 Sum of Mulliken charges =  -0.00000

 Dipole moment (field-independent basis, Debye):
    X=              2.3827    Y=              4.7177    Z=              0.0773  Tot=              5.2858
 Quadrupole moment (field-independent basis, Debye-Ang):
   XX=           -107.0307   YY=            -98.7743   ZZ=            -93.5887
   XY=            -19.5621   XZ=             -2.4053   YZ=              0.7934

 Normal termination of Gaussian 16 at Wed May  5 15:39:57 2021.
