 Gaussian 16, Revision A.03,
 Gaussian 16:  EM64L-G16RevA.03 25-Dec-2016

 -------------
 #p 6-31g* mp2
 -------------

 ------------------------------------------------------
 Input file generated by CHIRIPA (05-May-2021 14:55:22)
 ------------------------------------------------------
 Symbolic Z-matrix:
 Charge =  0 Multiplicity = 1

                         Standard orientation:
 ---------------------------------------------------------------------
 Center     Atomic      Atomic             Coordinates (Angstroms)
 Number     Number       Type             X           Y           Z
 ---------------------------------------------------------------------
      1          6           0        0.993871    0.774622    1.745470
      2          6           0        2.262654    1.362729    1.716491
      3          6           0        3.269591    0.838836    0.900302
      4          6           0        2.971785   -0.279059    0.122540
      5          6           0        1.717547   -0.887440    0.129556
      6          6           0        0.725839   -0.346609    0.953307
      7          1           0        0.217573    1.188173    2.382442
      8          1           0        2.473656    2.233563    2.330632
      9          1           0        4.260560    1.274332    0.858581
     10          1           0        1.537186   -1.754766   -0.493848
     11          1           0       -0.258601   -0.805415    0.973791
     12          7           0        4.029723   -0.842647   -0.745525
     13          8           0        3.742048   -1.828159   -1.421280
     14          8           0        5.126577   -0.288203   -0.733721
     15          6           0       -4.230114   -0.106109   -0.132422
     16          6           0       -4.065673   -1.603735    0.128467
     17          6           0       -5.373545   -2.278720    0.542785
     18          1           0       -4.622599    0.376436    0.773144
     19          1           0       -4.984725    0.041563   -0.917374
     20          1           0       -3.310593   -1.748597    0.911720
     21          1           0       -3.673352   -2.082741   -0.777763
     22          1           0       -6.131022   -2.163687   -0.239262
     23          1           0       -5.766201   -1.827645    1.459820
     24          1           0       -5.233097   -3.348857    0.724279
     25          6           0       -2.931292    0.582711   -0.547534
     26          6           0       -3.095733    2.080337   -0.808423
     27          6           0       -1.787861    2.755322   -1.222742
     28          1           0       -2.176680    0.435039    0.237417
     29          1           0       -2.538806    0.100167   -1.453100
     30          1           0       -3.488054    2.559342    0.097807
     31          1           0       -3.850812    2.225200   -1.591677
     32          1           0       -1.395204    2.304248   -2.139777
     33          1           0       -1.030384    2.640289   -0.440695
     34          1           0       -1.928309    3.825459   -1.404236
 ---------------------------------------------------------------------

 SCF Done:  E(RHF) =  -669.535374917     A.U. after   15 cycles
 E2 =    -0.2092265642D+01 EUMP2 =    -0.67162764055986D+03

 The electronic state is 1-A.
 Alpha  occ. eigenvalues --  -20.60761 -20.60756 -15.85813 -11.31192 -11.27749
 Alpha  occ. eigenvalues --  -11.27734 -11.27516 -11.26788 -11.26746 -11.22404
 Alpha  occ. eigenvalues --  -11.22266 -11.22202 -11.22104 -11.21686 -11.21573
 Alpha  occ. eigenvalues --   -1.59835  -1.39388  -1.19361  -1.09183  -1.08759
 Alpha  occ. eigenvalues --   -1.04760  -1.04199  -0.96633  -0.95592  -0.87645
 Alpha  occ. eigenvalues --   -0.86167  -0.82419  -0.80272  -0.79032  -0.77455
 Alpha  occ. eigenvalues --   -0.72032  -0.71157  -0.70477  -0.65868  -0.65013
 Alpha  occ. eigenvalues --   -0.64741  -0.62115  -0.61595  -0.60002  -0.58249
 Alpha  occ. eigenvalues --   -0.55928  -0.55270  -0.53309  -0.53107  -0.53088
 Alpha  occ. eigenvalues --   -0.52809  -0.50571  -0.48797  -0.48786  -0.48575
 Alpha  occ. eigenvalues --   -0.47318  -0.46517  -0.46472  -0.44791  -0.44476
 Alpha  occ. eigenvalues --   -0.37327  -0.36339
 Alpha virt. eigenvalues --    0.05045   0.11190   0.16491   0.19549   0.22778
 Alpha virt. eigenvalues --    0.23276   0.24773   0.26163   0.27136   0.28118
 Alpha virt. eigenvalues --    0.29219   0.30500   0.31076   0.31378   0.32073

 Mulliken charges:
               1
     1  C   -0.172672
     2  C   -0.218508
     3  C   -0.171029
     4  C    0.159005
     5  C   -0.172407
     6  C   -0.218094
     7  H    0.225307
     8  H    0.223576
     9  H    0.275658
    10  H    0.275943
    11  H    0.228040
    12  N    0.488013
    13  O   -0.460309
    14  O   -0.460361
    15  C   -0.298409
    16  C   -0.300672
    17  C   -0.475908
    18  H    0.149599
    19  H    0.153455
    20  H    0.144542
    21  H    0.154158
    22  H    0.157985
    23  H    0.155794
    24  H    0.162244
    25  C   -0.300586
    26  C   -0.300243
    27  C   -0.477197
    28  H    0.140693
    29  H    0.152777
    30  H    0.150459
    31  H    0.155169
    32  H    0.158712
    33  H    0.153609
    34  H    0.161656
 Sum of Mulliken charges =  -0.00000

 Dipole moment (field-independent basis, Debye):
    X=             -3.8349    Y=              1.9884    Z=              2.9661  Tot=              5.2401
 Quadrupole moment (field-independent basis, Debye-Ang):
   XX=           -115.3584   YY=            -94.0147   ZZ=            -93.2286
   XY=              9.2006   XZ=             10.5793   YZ=              1.0628

 Normal termination of Gaussian 16 at Thu May  6 07:48:52 2021.
