 Gaussian 16, Revision A.03,
 Gaussian 16:  EM64L-G16RevA.03 25-Dec-2016

 -------------
 #p 6-31g* mp2
 -------------

 ------------------------------------------------------
 Input file generated by CHIRIPA (05-May-2021 14:51:08)
 ------------------------------------------------------
 Symbolic Z-matrix:
 Charge =  0 Multiplicity = 1

                         Standard orientation:
 ---------------------------------------------------------------------
 Center     Atomic      Atomic             Coordinates (Angstroms)
 Number     Number       Type             X           Y           Z
 ---------------------------------------------------------------------
      1          6           0        3.187954    0.191890   -0.143742
      2          6           0        4.698019    0.135358   -0.377180
      3          6           0        5.234234    1.381518   -1.082411
      4          1           0        2.678524    0.316404   -1.109103
      5          1           0        2.949308    1.083233    0.452873
      6          1           0        4.933898   -0.756360   -0.972005
      7          1           0        5.203903    0.010771    0.588830
      8          1           0        5.027768    2.278499   -0.489623
      9          1           0        4.756229    1.507009   -2.059326
     10          1           0        6.315658    1.320008   -1.239252
     11          6           0        2.637000   -1.046818    0.560376
     12          6           0        1.126936   -0.990286    0.793813
     13          6           0        0.590720   -2.236446    1.499044
     14          1           0        2.875646   -1.938161   -0.036240
     15          1           0        3.146431   -1.171332    1.525737
     16          1           0        0.621051   -0.865699   -0.172197
     17          1           0        0.891057   -0.098568    1.388639
     18          1           0        1.068725   -2.361937    2.475960
     19          1           0        0.797186   -3.133427    0.906256
     20          1           0       -0.490703   -2.174936    1.655886
     21          6           0       -2.799460   -0.317591   -0.083613
     22          6           0       -3.441039   -1.213922   -1.143307
     23          6           0       -3.206221   -2.701659   -0.880070
     24          1           0       -1.720099   -0.519012   -0.046805
     25          1           0       -3.200997   -0.584022    0.903898
     26          1           0       -3.039437   -0.944946   -2.128693
     27          1           0       -4.518968   -1.010207   -1.177730
     28          1           0       -3.622678   -2.991663    0.090013
     29          1           0       -2.134741   -2.926031   -0.866352
     30          1           0       -3.673365   -3.324142   -1.649584
     31          6           0       -3.025494    1.172519   -0.333021
     32          6           0       -2.383915    2.068850    0.726674
     33          6           0       -2.618733    3.556587    0.463437
     34          1           0       -2.623957    1.438950   -1.320533
     35          1           0       -4.104855    1.373941   -0.369829
     36          1           0       -1.305986    1.865136    0.761096
     37          1           0       -2.785517    1.799874    1.712059
     38          1           0       -3.690214    3.780960    0.449719
     39          1           0       -2.202276    3.846591   -0.506647
     40          1           0       -2.151589    4.179071    1.232949
 ---------------------------------------------------------------------

 SCF Done:  E(RHF) =  -470.732888207     A.U. after   11 cycles
 E2 =    -0.1584062582D+01 EUMP2 =    -0.47231695078929D+03

 The electronic state is 1-A.
 Alpha  occ. eigenvalues --  -11.21667 -11.21636 -11.21573 -11.21564 -11.21452
 Alpha  occ. eigenvalues --  -11.21393 -11.21351 -11.21268 -11.21099 -11.21064
 Alpha  occ. eigenvalues --  -11.21051 -11.21048  -1.08493  -1.08382  -1.03582
 Alpha  occ. eigenvalues --   -1.03494  -0.96020  -0.95944  -0.87027  -0.86966
 Alpha  occ. eigenvalues --   -0.79656  -0.79563  -0.78401  -0.78112  -0.65170
 Alpha  occ. eigenvalues --   -0.64988  -0.61056  -0.60825  -0.59456  -0.59256
 Alpha  occ. eigenvalues --   -0.57704  -0.57496  -0.55299  -0.55235  -0.52722
 Alpha  occ. eigenvalues --   -0.52633  -0.52472  -0.52342  -0.50017  -0.49837
 Alpha  occ. eigenvalues --   -0.48009  -0.47855  -0.46776  -0.46519  -0.46085
 Alpha  occ. eigenvalues --   -0.45753  -0.45712  -0.45314  -0.43817  -0.43748
 Alpha virt. eigenvalues --    0.20802   0.23176   0.23356   0.24387   0.25989
 Alpha virt. eigenvalues --    0.26256   0.26898   0.27335   0.28265   0.29595
 Alpha virt. eigenvalues --    0.30179   0.30908   0.31625   0.32077   0.32158

 Mulliken charges:
               1
     1  C   -0.298454
     2  C   -0.299667
     3  C   -0.475744
     4  H    0.149307
     5  H    0.149475
     6  H    0.152034
     7  H    0.152123
     8  H    0.155272
     9  H    0.155135
    10  H    0.160414
    11  C   -0.297410
    12  C   -0.304605
    13  C   -0.479624
    14  H    0.149697
    15  H    0.150009
    16  H    0.151725
    17  H    0.154350
    18  H    0.155430
    19  H    0.154849
    20  H    0.165315
    21  C   -0.310747
    22  C   -0.298921
    23  C   -0.477437
    24  H    0.164542
    25  H    0.148385
    26  H    0.151154
    27  H    0.151782
    28  H    0.155038
    29  H    0.156876
    30  H    0.160108
    31  C   -0.297248
    32  C   -0.302119
    33  C   -0.475599
    34  H    0.148954
    35  H    0.149398
    36  H    0.154432
    37  H    0.151522
    38  H    0.155124
    39  H    0.155177
    40  H    0.159951
 Sum of Mulliken charges =  -0.00000

 Dipole moment (field-independent basis, Debye):
    X=              0.0376    Y=             -0.0125    Z=              0.0160  Tot=              0.0428
 Quadrupole moment (field-independent basis, Debye-Ang):
   XX=            -84.4383   YY=            -86.5652   ZZ=            -83.8906
   XY=             -0.2276   XZ=             -0.0761   YZ=              0.8444

 Normal termination of Gaussian 16 at Wed May  5 15:04:15 2021.
