 Gaussian 16, Revision A.03,
 Gaussian 16:  EM64L-G16RevA.03 25-Dec-2016

 -------------
 #p 6-31g* mp2
 -------------

 ------------------------------------------------------
 Input file generated by CHIRIPA (05-May-2021 14:55:24)
 ------------------------------------------------------
 Symbolic Z-matrix:
 Charge =  0 Multiplicity = 1

                         Standard orientation:
 ---------------------------------------------------------------------
 Center     Atomic      Atomic             Coordinates (Angstroms)
 Number     Number       Type             X           Y           Z
 ---------------------------------------------------------------------
      1          6           0        4.705429    2.066615   -0.215540
      2          6           0        4.381943    1.285960   -1.330195
      3          6           0        3.569633    0.156263   -1.194242
      4          6           0        3.096017   -0.165108    0.076860
      5          6           0        3.400642    0.592684    1.206570
      6          6           0        4.214611    1.718100    1.047059
      7          1           0        5.337095    2.942528   -0.330302
      8          1           0        4.761695    1.554230   -2.311962
      9          1           0        3.303609   -0.465734   -2.040273
     10          1           0        3.007081    0.300055    2.172435
     11          1           0        4.464199    2.322517    1.914487
     12          7           0        2.235183   -1.358801    0.233257
     13          8           0        1.830596   -1.620650    1.363913
     14          8           0        1.981347   -2.009967   -0.777776
     15          6           0       -3.382975   -0.099695   -0.066727
     16          6           0       -2.887199   -1.543558   -0.153043
     17          6           0       -1.361628   -1.645654   -0.154724
     18          1           0       -2.976739    0.471936   -0.912396
     19          1           0       -2.982510    0.364235    0.845298
     20          1           0       -3.289605   -2.005056   -1.063925
     21          1           0       -3.294819   -2.111866    0.692823
     22          1           0       -0.945401   -1.210503    0.759606
     23          1           0       -0.940159   -1.103086   -1.007124
     24          1           0       -1.028988   -2.686485   -0.217019
     25          6           0       -4.906030    0.018730   -0.064046
     26          6           0       -5.401807    1.462593    0.022270
     27          6           0       -6.927378    1.564689    0.023950
     28          1           0       -5.306496   -0.445200   -0.976072
     29          1           0       -5.312267   -0.552901    0.781622
     30          1           0       -4.994187    2.030900   -0.823597
     31          1           0       -4.999400    1.924090    0.933151
     32          1           0       -7.348847    1.022121    0.876349
     33          1           0       -7.343605    1.129538   -0.890381
     34          1           0       -7.260018    2.605520    0.086246
 ---------------------------------------------------------------------

 SCF Done:  E(RHF) =  -669.535782705     A.U. after   15 cycles
 E2 =    -0.2092115539D+01 EUMP2 =    -0.67162789824461D+03

 The electronic state is 1-A.
 Alpha  occ. eigenvalues --  -20.60893 -20.60868 -15.85887 -11.31254 -11.27818
 Alpha  occ. eigenvalues --  -11.27814 -11.27560 -11.26831 -11.26821 -11.21159
 Alpha  occ. eigenvalues --  -11.20777 -11.20713 -11.20592 -11.20436 -11.19346
 Alpha  occ. eigenvalues --   -1.59921  -1.39482  -1.19421  -1.08819  -1.07689
 Alpha  occ. eigenvalues --   -1.04823  -1.02670  -0.95664  -0.95076  -0.86222
 Alpha  occ. eigenvalues --   -0.86094  -0.82493  -0.78780  -0.77542  -0.77474
 Alpha  occ. eigenvalues --   -0.72122  -0.71218  -0.70531  -0.65078  -0.64826
 Alpha  occ. eigenvalues --   -0.64334  -0.62171  -0.60079  -0.58529  -0.56686
 Alpha  occ. eigenvalues --   -0.55328  -0.54392  -0.53159  -0.52915  -0.51732
 Alpha  occ. eigenvalues --   -0.51523  -0.49140  -0.48859  -0.48801  -0.47058
 Alpha  occ. eigenvalues --   -0.45920  -0.45088  -0.44990  -0.44579  -0.42874
 Alpha  occ. eigenvalues --   -0.37397  -0.36425
 Alpha virt. eigenvalues --    0.04953   0.11230   0.16426   0.21358   0.23533
 Alpha virt. eigenvalues --    0.25229   0.27267   0.27341   0.28104   0.28228
 Alpha virt. eigenvalues --    0.29027   0.30933   0.32117   0.32448   0.32594

 Mulliken charges:
               1
     1  C   -0.170663
     2  C   -0.218552
     3  C   -0.170955
     4  C    0.160118
     5  C   -0.170943
     6  C   -0.218532
     7  H    0.225833
     8  H    0.223655
     9  H    0.275687
    10  H    0.275556
    11  H    0.223659
    12  N    0.488770
    13  O   -0.459136
    14  O   -0.457648
    15  C   -0.297064
    16  C   -0.302246
    17  C   -0.474150
    18  H    0.146107
    19  H    0.147353
    20  H    0.147814
    21  H    0.149530
    22  H    0.159899
    23  H    0.148035
    24  H    0.173040
    25  C   -0.297290
    26  C   -0.298810
    27  C   -0.475218
    28  H    0.148494
    29  H    0.149126
    30  H    0.150193
    31  H    0.150558
    32  H    0.154912
    33  H    0.154682
    34  H    0.158189
 Sum of Mulliken charges =  -0.00000

 Dipole moment (field-independent basis, Debye):
    X=              3.3576    Y=              4.0839    Z=             -0.5185  Tot=              5.3123
 Quadrupole moment (field-independent basis, Debye-Ang):
   XX=            -78.9480   YY=            -96.5419   ZZ=            -89.0139
   XY=             13.1581   XZ=             -2.0061   YZ=              1.3443

 Normal termination of Gaussian 16 at Thu May  6 04:44:08 2021.
