 Gaussian 16, Revision A.03,
 Gaussian 16:  EM64L-G16RevA.03 25-Dec-2016

 -------------
 #p 6-31g* mp2
 -------------

 ------------------------------------------------------
 Input file generated by CHIRIPA (05-May-2021 14:51:11)
 ------------------------------------------------------
 Symbolic Z-matrix:
 Charge =  0 Multiplicity = 1

                         Standard orientation:
 ---------------------------------------------------------------------
 Center     Atomic      Atomic             Coordinates (Angstroms)
 Number     Number       Type             X           Y           Z
 ---------------------------------------------------------------------
      1          6           0        2.430687   -0.796803    0.353159
      2          6           0        1.927041   -2.038004   -0.384232
      3          6           0        0.691270   -2.654597    0.271876
      4          1           0        2.661126   -1.064448    1.393452
      5          1           0        1.625020   -0.050700    0.393491
      6          1           0        2.733860   -2.781003   -0.424371
      7          1           0        1.697956   -1.767415   -1.422941
      8          1           0       -0.131516   -1.932842    0.298204
      9          1           0        0.910274   -2.952188    1.302448
     10          1           0        0.348136   -3.540556   -0.271444
     11          6           0        3.665613   -0.169054   -0.290749
     12          6           0        4.169259    1.072147    0.446643
     13          6           0        5.405030    1.688740   -0.209465
     14          1           0        4.471280   -0.915157   -0.331080
     15          1           0        3.435174    0.098592   -1.331041
     16          1           0        4.398344    0.801558    1.485352
     17          1           0        3.362439    1.815146    0.486782
     18          1           0        5.186026    1.986331   -1.240037
     19          1           0        6.227816    0.966985   -0.235793
     20          1           0        5.748163    2.574699    0.333855
     21          6           0       -2.751307   -0.212198   -0.141272
     22          6           0       -3.747397   -1.344099    0.112873
     23          6           0       -3.138743   -2.728660   -0.111456
     24          1           0       -2.376079   -0.286877   -1.171114
     25          1           0       -1.882245   -0.342957    0.518296
     26          1           0       -4.614949   -1.210470   -0.545999
     27          1           0       -4.120440   -1.266603    1.142168
     28          1           0       -2.285523   -2.887146    0.556000
     29          1           0       -2.782842   -2.830695   -1.141759
     30          1           0       -3.868067   -3.522948    0.075772
     31          6           0       -3.344994    1.178055    0.078862
     32          6           0       -2.348902    2.309955   -0.175284
     33          6           0       -2.957557    3.694517    0.049045
     34          1           0       -4.214054    1.308813   -0.580706
     35          1           0       -3.720220    1.252734    1.108703
     36          1           0       -1.975859    2.232460   -1.204579
     37          1           0       -1.481350    2.176328    0.483589
     38          1           0       -3.313458    3.796551    1.079348
     39          1           0       -3.810777    3.853003   -0.618412
     40          1           0       -2.228233    4.488805   -0.138183
 ---------------------------------------------------------------------

 SCF Done:  E(RHF) =  -470.732085078     A.U. after   11 cycles
 E2 =    -0.1583835365D+01 EUMP2 =    -0.47231592044384D+03

 The electronic state is 1-A.
 Alpha  occ. eigenvalues --  -11.21653 -11.21590 -11.21587 -11.21543 -11.21447
 Alpha  occ. eigenvalues --  -11.21387 -11.21381 -11.21321 -11.21107 -11.21060
 Alpha  occ. eigenvalues --  -11.20940 -11.20936  -1.08470  -1.08394  -1.03568
 Alpha  occ. eigenvalues --   -1.03466  -0.96018  -0.95914  -0.87058  -0.86918
 Alpha  occ. eigenvalues --   -0.79720  -0.79468  -0.78337  -0.78162  -0.65147
 Alpha  occ. eigenvalues --   -0.64989  -0.61037  -0.60818  -0.59368  -0.59320
 Alpha  occ. eigenvalues --   -0.57606  -0.57552  -0.55307  -0.55212  -0.52772
 Alpha  occ. eigenvalues --   -0.52675  -0.52384  -0.52280  -0.49984  -0.49896
 Alpha  occ. eigenvalues --   -0.48050  -0.47773  -0.46781  -0.46526  -0.45951
 Alpha  occ. eigenvalues --   -0.45777  -0.45721  -0.45256  -0.43799  -0.43732
 Alpha virt. eigenvalues --    0.21563   0.23228   0.23516   0.24624   0.25412
 Alpha virt. eigenvalues --    0.26734   0.27000   0.27318   0.28504   0.29475
 Alpha virt. eigenvalues --    0.30345   0.30857   0.31486   0.31943   0.32097

 Mulliken charges:
               1
     1  C   -0.298958
     2  C   -0.299410
     3  C   -0.484411
     4  H    0.149265
     5  H    0.149562
     6  H    0.151417
     7  H    0.151737
     8  H    0.165127
     9  H    0.153522
    10  H    0.161247
    11  C   -0.298185
    12  C   -0.299650
    13  C   -0.475682
    14  H    0.149532
    15  H    0.149697
    16  H    0.151786
    17  H    0.151921
    18  H    0.155183
    19  H    0.155157
    20  H    0.160170
    21  C   -0.303451
    22  C   -0.299612
    23  C   -0.480489
    24  H    0.149566
    25  H    0.152835
    26  H    0.151704
    27  H    0.151704
    28  H    0.163808
    29  H    0.154459
    30  H    0.159368
    31  C   -0.297473
    32  C   -0.299910
    33  C   -0.475703
    34  H    0.149881
    35  H    0.149914
    36  H    0.151747
    37  H    0.151543
    38  H    0.155413
    39  H    0.155372
    40  H    0.160295
 Sum of Mulliken charges =  -0.00000

 Dipole moment (field-independent basis, Debye):
    X=             -0.0283    Y=             -0.0002    Z=              0.0048  Tot=              0.0287
 Quadrupole moment (field-independent basis, Debye-Ang):
   XX=            -85.3570   YY=            -85.9139   ZZ=            -83.6164
   XY=             -0.5541   XZ=              0.9451   YZ=             -0.3227

 Normal termination of Gaussian 16 at Wed May  5 21:26:59 2021.
