 Gaussian 16, Revision A.03,
 Gaussian 16:  EM64L-G16RevA.03 25-Dec-2016

 -------------
 #p 6-31g* mp2
 -------------

 ------------------------------------------------------
 Input file generated by CHIRIPA (05-May-2021 14:55:18)
 ------------------------------------------------------
 Symbolic Z-matrix:
 Charge =  0 Multiplicity = 1

                         Standard orientation:
 ---------------------------------------------------------------------
 Center     Atomic      Atomic             Coordinates (Angstroms)
 Number     Number       Type             X           Y           Z
 ---------------------------------------------------------------------
      1          6           0       -3.984514    1.429977    0.130641
      2          6           0       -2.780557    1.479577    0.840957
      3          6           0       -1.914537    0.382075    0.847878
      4          6           0       -2.285622   -0.754068    0.130407
      5          6           0       -3.478217   -0.834103   -0.586950
      6          6           0       -4.328894    0.275331   -0.579792
      7          1           0       -4.651300    2.287177    0.130733
      8          1           0       -2.510520    2.374971    1.393581
      9          1           0       -0.976352    0.393458    1.389263
     10          1           0       -3.720144   -1.740573   -1.128431
     11          1           0       -5.263262    0.233979   -1.132325
     12          7           0       -1.376926   -1.922260    0.130282
     13          8           0       -1.726866   -2.911472   -0.509748
     14          8           0       -0.331956   -1.826557    0.770217
     15          6           0        3.421296    0.032491   -0.308514
     16          6           0        4.818393   -0.146277    0.286587
     17          6           0        5.413300   -1.524246   -0.005095
     18          1           0        2.757456   -0.746894    0.090010
     19          1           0        3.470334   -0.124234   -1.394989
     20          1           0        4.766986    0.012102    1.371432
     21          1           0        5.478937    0.633740   -0.113254
     22          1           0        5.493558   -1.688565   -1.084520
     23          1           0        4.777562   -2.313736    0.408600
     24          1           0        6.412183   -1.630443    0.429434
     25          6           0        2.813291    1.405042   -0.025382
     26          6           0        1.416194    1.583809   -0.620482
     27          6           0        0.821287    2.961779   -0.328800
     28          1           0        2.764253    1.561766    1.061093
     29          1           0        3.477132    2.184425   -0.423906
     30          1           0        0.755650    0.803792   -0.220642
     31          1           0        1.467601    1.425431   -1.705328
     32          1           0        1.457025    3.751268   -0.742497
     33          1           0        0.741029    3.126097    0.750625
     34          1           0       -0.177596    3.067976   -0.763330
 ---------------------------------------------------------------------

 SCF Done:  E(RHF) =  -669.535662511     A.U. after   15 cycles
 E2 =    -0.2093537690D+01 EUMP2 =    -0.67162920020185D+03

 The electronic state is 1-A.
 Alpha  occ. eigenvalues --  -20.60967 -20.60961 -15.85985 -11.31275 -11.27841
 Alpha  occ. eigenvalues --  -11.27832 -11.27571 -11.26839 -11.26823 -11.21411
 Alpha  occ. eigenvalues --  -11.21273 -11.21061 -11.21039 -11.20679 -11.20450
 Alpha  occ. eigenvalues --   -1.60015  -1.39575  -1.19451  -1.08855  -1.08022
 Alpha  occ. eigenvalues --   -1.04846  -1.03214  -0.95718  -0.95657  -0.86695
 Alpha  occ. eigenvalues --   -0.86244  -0.82535  -0.79297  -0.77813  -0.77557
 Alpha  occ. eigenvalues --   -0.72211  -0.71323  -0.70573  -0.65105  -0.64918
 Alpha  occ. eigenvalues --   -0.64602  -0.62236  -0.60583  -0.59076  -0.57266
 Alpha  occ. eigenvalues --   -0.55356  -0.54964  -0.53155  -0.52946  -0.52388
 Alpha  occ. eigenvalues --   -0.52078  -0.49620  -0.48981  -0.48958  -0.47595
 Alpha  occ. eigenvalues --   -0.46342  -0.45431  -0.45292  -0.44727  -0.43422
 Alpha  occ. eigenvalues --   -0.37415  -0.36398
 Alpha virt. eigenvalues --    0.04892   0.11121   0.16345   0.20505   0.23250
 Alpha virt. eigenvalues --    0.24457   0.26674   0.27129   0.27895   0.28396
 Alpha virt. eigenvalues --    0.28993   0.30878   0.31448   0.31751   0.32297

 Mulliken charges:
               1
     1  C   -0.171332
     2  C   -0.219049
     3  C   -0.169501
     4  C    0.159669
     5  C   -0.170804
     6  C   -0.218434
     7  H    0.226147
     8  H    0.225429
     9  H    0.276301
    10  H    0.275744
    11  H    0.223768
    12  N    0.489575
    13  O   -0.458235
    14  O   -0.462458
    15  C   -0.305148
    16  C   -0.299107
    17  C   -0.476274
    18  H    0.168975
    19  H    0.147842
    20  H    0.150652
    21  H    0.148369
    22  H    0.154315
    23  H    0.160848
    24  H    0.157558
    25  C   -0.296156
    26  C   -0.308462
    27  C   -0.478111
    28  H    0.146238
    29  H    0.147235
    30  H    0.159188
    31  H    0.153374
    32  H    0.157170
    33  H    0.146514
    34  H    0.158161
 Sum of Mulliken charges =  -0.00000

 Dipole moment (field-independent basis, Debye):
    X=             -3.3323    Y=              3.9101    Z=             -0.0140  Tot=              5.1374
 Quadrupole moment (field-independent basis, Debye-Ang):
   XX=            -78.8373   YY=           -101.2991   ZZ=            -92.9278
   XY=             -4.9991   XZ=              1.4964   YZ=              1.7796

 Normal termination of Gaussian 16 at Wed May  5 15:49:11 2021.
