 Gaussian 16, Revision A.03,
 Gaussian 16:  EM64L-G16RevA.03 25-Dec-2016

 -------------
 #p 6-31g* mp2
 -------------

 ------------------------------------------------------
 Input file generated by CHIRIPA (05-May-2021 14:57:24)
 ------------------------------------------------------
 Symbolic Z-matrix:
 Charge =  0 Multiplicity = 1

                         Standard orientation:
 ---------------------------------------------------------------------
 Center     Atomic      Atomic             Coordinates (Angstroms)
 Number     Number       Type             X           Y           Z
 ---------------------------------------------------------------------
      1          6           0        2.570905    2.155759    0.579648
      2          6           0        2.046047    1.236767   -0.334955
      3          6           0        2.731986    0.053784   -0.625793
      4          6           0        3.945670   -0.179229    0.019162
      5          6           0        4.494577    0.716856    0.935144
      6          6           0        3.791344    1.893333    1.210666
      7          1           0        2.031334    3.072201    0.799629
      8          1           0        1.098449    1.437939   -0.826516
      9          1           0        2.348581   -0.674901   -1.329666
     10          1           0        5.441403    0.488593    1.409313
     11          1           0        4.201358    2.605228    1.921397
     12          7           0        4.680998   -1.428156   -0.280628
     13          8           0        5.748387   -1.610033    0.300954
     14          8           0        4.176035   -2.201539   -1.091509
     15          6           0       -4.984181   -1.067023    1.916008
     16          6           0       -3.859897   -0.257208    2.107597
     17          6           0       -3.209371    0.324434    1.015325
     18          6           0       -3.712363    0.073973   -0.260432
     19          6           0       -4.830352   -0.728222   -0.483759
     20          6           0       -5.464972   -1.299535    0.623221
     21          1           0       -5.483348   -1.514845    2.770223
     22          1           0       -3.484292   -0.074897    3.110456
     23          1           0       -2.337078    0.955461    1.135021
     24          1           0       -5.181415   -0.891635   -1.495426
     25          1           0       -6.337907   -1.928019    0.471430
     26          7           0       -3.032100    0.684265   -1.424557
     27          8           0       -3.494957    0.448139   -2.538400
     28          8           0       -2.048931    1.387181   -1.201113
 ---------------------------------------------------------------------

 SCF Done:  E(RHF) =  -868.339782061     A.U. after   16 cycles
 E2 =    -0.2598360074D+01 EUMP2 =    -0.87093814213469D+03

 The electronic state is 1-A.
 Alpha  occ. eigenvalues --  -20.61619 -20.61543 -20.60379 -20.60370 -15.86622
 Alpha  occ. eigenvalues --  -15.85423 -11.31756 -11.30688 -11.28328 -11.28271
 Alpha  occ. eigenvalues --  -11.27982 -11.27266 -11.27264 -11.27235 -11.27148
 Alpha  occ. eigenvalues --  -11.26920 -11.26289 -11.26020  -1.60641  -1.59455
 Alpha  occ. eigenvalues --   -1.40206  -1.39011  -1.19903  -1.18830  -1.09336
 Alpha  occ. eigenvalues --   -1.08245  -1.05274  -1.04193  -0.96213  -0.95103
 Alpha  occ. eigenvalues --   -0.86683  -0.85592  -0.83059  -0.81919  -0.78136
 Alpha  occ. eigenvalues --   -0.76981  -0.72855  -0.71945  -0.71643  -0.71009
 Alpha  occ. eigenvalues --   -0.70777  -0.69942  -0.65563  -0.65273  -0.64468
 Alpha  occ. eigenvalues --   -0.64144  -0.62630  -0.61514  -0.55774  -0.54705
 Alpha  occ. eigenvalues --   -0.53610  -0.53365  -0.52566  -0.52241  -0.49616
 Alpha  occ. eigenvalues --   -0.49568  -0.48405  -0.48389  -0.45658  -0.44438
 Alpha  occ. eigenvalues --   -0.37862  -0.36865  -0.36827  -0.35804
 Alpha virt. eigenvalues --    0.04370   0.05509   0.10793   0.11838   0.15894
 Alpha virt. eigenvalues --    0.17037   0.20866   0.22113   0.26780   0.27383
 Alpha virt. eigenvalues --    0.28419   0.28856   0.30485   0.31506   0.32179

 Mulliken charges:
               1
     1  C   -0.174073
     2  C   -0.228985
     3  C   -0.173680
     4  C    0.158318
     5  C   -0.173032
     6  C   -0.218809
     7  H    0.225317
     8  H    0.247208
     9  H    0.276853
    10  H    0.273256
    11  H    0.220602
    12  N    0.487973
    13  O   -0.462573
    14  O   -0.460645
    15  C   -0.169784
    16  C   -0.217986
    17  C   -0.170070
    18  C    0.158175
    19  C   -0.170157
    20  C   -0.218252
    21  H    0.227894
    22  H    0.224682
    23  H    0.271402
    24  H    0.276964
    25  H    0.225737
    26  N    0.491601
    27  O   -0.454762
    28  O   -0.473174
 Sum of Mulliken charges =  -0.00000

 Dipole moment (field-independent basis, Debye):
    X=             -5.4291    Y=              2.1892    Z=              5.0941  Tot=              7.7600
 Quadrupole moment (field-independent basis, Debye-Ang):
   XX=           -103.2966   YY=           -106.8070   ZZ=           -103.6378
   XY=             29.0295   XZ=             -5.9714   YZ=              3.1297

 Normal termination of Gaussian 16 at Thu May  6 17:59:21 2021.
