 Gaussian 16, Revision A.03,
 Gaussian 16:  EM64L-G16RevA.03 25-Dec-2016

 -------------
 #p 6-31g* mp2
 -------------

 ------------------------------------------------------
 Input file generated by CHIRIPA (05-May-2021 14:53:17)
 ------------------------------------------------------
 Symbolic Z-matrix:
 Charge =  0 Multiplicity = 1

                         Standard orientation:
 ---------------------------------------------------------------------
 Center     Atomic      Atomic             Coordinates (Angstroms)
 Number     Number       Type             X           Y           Z
 ---------------------------------------------------------------------
      1          6           0        4.562827   -0.401412   -0.168969
      2          6           0        6.059124   -0.162901    0.036442
      3          6           0        6.924102   -0.954348   -0.944995
      4          1           0        4.351185   -1.474297   -0.063753
      5          1           0        4.293210   -0.129158   -1.198814
      6          1           0        6.325572   -0.434217    1.066009
      7          1           0        6.267198    0.909565   -0.069087
      8          1           0        6.686969   -0.677567   -1.977352
      9          1           0        6.745675   -2.028984   -0.835807
     10          1           0        7.990126   -0.768993   -0.780384
     11          6           0        3.685063    0.382932    0.804716
     12          6           0        2.188766    0.144422    0.599306
     13          6           0        1.323787    0.935869    1.580742
     14          1           0        3.954680    0.110679    1.834561
     15          1           0        3.896704    1.455817    0.699500
     16          1           0        1.980692   -0.928045    0.704834
     17          1           0        1.922318    0.415737   -0.430262
     18          1           0        1.502215    2.010505    1.471554
     19          1           0        1.560921    0.659088    2.613099
     20          1           0        0.257764    0.750514    1.416131
     21          6           0       -1.852442    2.051346   -0.807119
     22          6           0       -1.303214    0.775152   -0.968976
     23          6           0       -2.052766   -0.364495   -0.662505
     24          6           0       -3.354220   -0.190400   -0.194318
     25          6           0       -3.929480    1.067705   -0.022455
     26          6           0       -3.161514    2.193300   -0.335205
     27          1           0       -1.263020    2.931194   -1.047632
     28          1           0       -0.286831    0.661889   -1.335285
     29          1           0       -1.652323   -1.364305   -0.778456
     30          1           0       -4.945396    1.148779    0.344641
     31          1           0       -3.590646    3.183170   -0.208525
     32          7           0       -4.157483   -1.389455    0.133454
     33          8           0       -5.301756   -1.209202    0.544289
     34          8           0       -3.627598   -2.486823   -0.026680
 ---------------------------------------------------------------------

 SCF Done:  E(RHF) =  -669.534525541     A.U. after   15 cycles
 E2 =    -0.2092838850D+01 EUMP2 =    -0.67162736439087D+03

 The electronic state is 1-A.
 Alpha  occ. eigenvalues --  -20.60774 -20.60769 -15.85827 -11.31207 -11.27760
 Alpha  occ. eigenvalues --  -11.27751 -11.27494 -11.26789 -11.26738 -11.22392
 Alpha  occ. eigenvalues --  -11.22007 -11.21971 -11.21864 -11.21543 -11.21406
 Alpha  occ. eigenvalues --   -1.59849  -1.39402  -1.19380  -1.08990  -1.08766
 Alpha  occ. eigenvalues --   -1.04794  -1.04054  -0.96474  -0.95599  -0.87489
 Alpha  occ. eigenvalues --   -0.86174  -0.82434  -0.80154  -0.78802  -0.77476
 Alpha  occ. eigenvalues --   -0.72045  -0.71172  -0.70472  -0.65662  -0.65023
 Alpha  occ. eigenvalues --   -0.64784  -0.62191  -0.61417  -0.59857  -0.58113
 Alpha  occ. eigenvalues --   -0.55759  -0.55265  -0.53515  -0.53029  -0.52878
 Alpha  occ. eigenvalues --   -0.52565  -0.50416  -0.48811  -0.48799  -0.48441
 Alpha  occ. eigenvalues --   -0.47191  -0.46327  -0.46251  -0.44805  -0.44305
 Alpha  occ. eigenvalues --   -0.37332  -0.36329
 Alpha virt. eigenvalues --    0.05040   0.11225   0.16496   0.20282   0.22620
 Alpha virt. eigenvalues --    0.24063   0.25362   0.26350   0.27426   0.28227
 Alpha virt. eigenvalues --    0.28554   0.30020   0.31097   0.31573   0.32149

 Mulliken charges:
               1
     1  C   -0.298718
     2  C   -0.300026
     3  C   -0.476026
     4  H    0.151463
     5  H    0.147267
     6  H    0.153435
     7  H    0.151802
     8  H    0.154859
     9  H    0.156368
    10  H    0.161566
    11  C   -0.297339
    12  C   -0.303132
    13  C   -0.482718
    14  H    0.153124
    15  H    0.149275
    16  H    0.155359
    17  H    0.140044
    18  H    0.150766
    19  H    0.159205
    20  H    0.169406
    21  C   -0.171320
    22  C   -0.220307
    23  C   -0.174011
    24  C    0.159119
    25  C   -0.171247
    26  C   -0.218246
    27  H    0.225956
    28  H    0.231103
    29  H    0.276284
    30  H    0.275664
    31  H    0.223596
    32  N    0.488095
    33  O   -0.460364
    34  O   -0.460304
 Sum of Mulliken charges =  -0.00000

 Dipole moment (field-independent basis, Debye):
    X=              2.8879    Y=              4.2028    Z=             -1.0989  Tot=              5.2164
 Quadrupole moment (field-independent basis, Debye-Ang):
   XX=           -111.2192   YY=            -94.7169   ZZ=            -94.6534
   XY=            -17.2693   XZ=              2.8445   YZ=             -0.6335

 Normal termination of Gaussian 16 at Thu May  6 09:06:19 2021.
