 Gaussian 16, Revision A.03,
 Gaussian 16:  EM64L-G16RevA.03 25-Dec-2016

 -------------
 #p 6-31g* mp2
 -------------

 ------------------------------------------------------
 Input file generated by CHIRIPA (05-May-2021 14:51:08)
 ------------------------------------------------------
 Symbolic Z-matrix:
 Charge =  0 Multiplicity = 1

                         Standard orientation:
 ---------------------------------------------------------------------
 Center     Atomic      Atomic             Coordinates (Angstroms)
 Number     Number       Type             X           Y           Z
 ---------------------------------------------------------------------
      1          6           0        1.829683   -0.542838    0.586123
      2          6           0        2.468840   -1.373930    1.699114
      3          6           0        1.435122   -2.065308    2.588618
      4          1           0        1.166964    0.210247    1.034019
      5          1           0        1.192638   -1.193925   -0.028414
      6          1           0        3.105578   -0.721745    2.310536
      7          1           0        3.130262   -2.125000    1.248524
      8          1           0        0.806441   -2.738545    1.996915
      9          1           0        0.781616   -1.327318    3.064961
     10          1           0        1.913783   -2.653909    3.377472
     11          6           0        2.850292    0.154491   -0.311550
     12          6           0        2.211135    0.985583   -1.424541
     13          6           0        3.244853    1.676960   -2.314045
     14          1           0        3.487337    0.805578    0.302986
     15          1           0        3.513011   -0.598594   -0.759446
     16          1           0        1.549713    1.736652   -0.973952
     17          1           0        1.574397    0.333398   -2.035963
     18          1           0        3.898359    0.938971   -2.790388
     19          1           0        3.873534    2.350198   -1.722343
     20          1           0        2.766192    2.265562   -3.102900
     21          6           0       -2.666824    0.741006    0.284121
     22          6           0       -1.661304    1.714879    0.899331
     23          6           0       -2.330384    2.803085    1.739531
     24          1           0       -3.377249    1.302018   -0.338379
     25          1           0       -3.254741    0.275775    1.087433
     26          1           0       -1.074517    2.177104    0.095188
     27          1           0       -0.953074    1.151460    1.520286
     28          1           0       -2.901119    2.358858    2.561433
     29          1           0       -3.023252    3.390329    1.128238
     30          1           0       -1.593248    3.488192    2.169785
     31          6           0       -2.013151   -0.352659   -0.558694
     32          6           0       -3.018672   -1.326532   -1.173904
     33          6           0       -2.349591   -2.414737   -2.014103
     34          1           0       -1.425234    0.112571   -1.362006
     35          1           0       -1.302726   -0.913670    0.063807
     36          1           0       -3.726901   -0.763113   -1.794859
     37          1           0       -3.605458   -1.788757   -0.369760
     38          1           0       -1.656723   -3.001982   -1.402810
     39          1           0       -1.778856   -1.970510   -2.836007
     40          1           0       -3.086727   -3.099844   -2.444359
 ---------------------------------------------------------------------

 SCF Done:  E(RHF) =  -470.732410738     A.U. after   11 cycles
 E2 =    -0.1585193010D+01 EUMP2 =    -0.47231760374765D+03

 The electronic state is 1-A.
 Alpha  occ. eigenvalues --  -11.21601 -11.21593 -11.21576 -11.21569 -11.21363
 Alpha  occ. eigenvalues --  -11.21354 -11.21259 -11.21258 -11.21135 -11.21089
 Alpha  occ. eigenvalues --  -11.21087 -11.21063  -1.08468  -1.08345  -1.03531
 Alpha  occ. eigenvalues --   -1.03530  -0.95990  -0.95961  -0.86999  -0.86991
 Alpha  occ. eigenvalues --   -0.79605  -0.79594  -0.78613  -0.77837  -0.65069
 Alpha  occ. eigenvalues --   -0.65023  -0.61039  -0.60825  -0.59352  -0.59345
 Alpha  occ. eigenvalues --   -0.57637  -0.57544  -0.55308  -0.55224  -0.52723
 Alpha  occ. eigenvalues --   -0.52647  -0.52434  -0.52383  -0.50010  -0.49846
 Alpha  occ. eigenvalues --   -0.47997  -0.47975  -0.46863  -0.46533  -0.46402
 Alpha  occ. eigenvalues --   -0.45632  -0.45548  -0.44887  -0.43778  -0.43743
 Alpha virt. eigenvalues --    0.20877   0.22591   0.22910   0.23618   0.25136
 Alpha virt. eigenvalues --    0.26807   0.26907   0.27816   0.28118   0.28609
 Alpha virt. eigenvalues --    0.30968   0.31630   0.31696   0.31809   0.32251

 Mulliken charges:
               1
     1  C   -0.308301
     2  C   -0.299053
     3  C   -0.476795
     4  H    0.158375
     5  H    0.153035
     6  H    0.151646
     7  H    0.151793
     8  H    0.154557
     9  H    0.154453
    10  H    0.160930
    11  C   -0.297499
    12  C   -0.303367
    13  C   -0.475650
    14  H    0.149014
    15  H    0.149290
    16  H    0.154691
    17  H    0.152812
    18  H    0.155221
    19  H    0.155144
    20  H    0.159816
    21  C   -0.297772
    22  C   -0.306752
    23  C   -0.475080
    24  H    0.149301
    25  H    0.149247
    26  H    0.154098
    27  H    0.155835
    28  H    0.155228
    29  H    0.155319
    30  H    0.159677
    31  C   -0.304765
    32  C   -0.299403
    33  C   -0.475799
    34  H    0.151248
    35  H    0.156675
    36  H    0.151628
    37  H    0.151749
    38  H    0.154166
    39  H    0.154783
    40  H    0.160508
 Sum of Mulliken charges =  -0.00000

 Dipole moment (field-independent basis, Debye):
    X=              0.0017    Y=              0.0043    Z=              0.0064  Tot=              0.0079
 Quadrupole moment (field-independent basis, Debye-Ang):
   XX=            -85.4134   YY=            -84.8720   ZZ=            -84.7200
   XY=             -0.1277   XZ=              0.7246   YZ=             -0.1275

 Normal termination of Gaussian 16 at Thu May  6 05:18:30 2021.
