 Gaussian 16, Revision A.03,
 Gaussian 16:  EM64L-G16RevA.03 25-Dec-2016

 -------------
 #p 6-31g* mp2
 -------------

 ------------------------------------------------------
 Input file generated by CHIRIPA (05-May-2021 14:55:25)
 ------------------------------------------------------
 Symbolic Z-matrix:
 Charge =  0 Multiplicity = 1

                         Standard orientation:
 ---------------------------------------------------------------------
 Center     Atomic      Atomic             Coordinates (Angstroms)
 Number     Number       Type             X           Y           Z
 ---------------------------------------------------------------------
      1          6           0       -3.315498    2.553605   -0.470749
      2          6           0       -3.038630    1.614402   -1.469629
      3          6           0       -2.788998    0.279103   -1.139159
      4          6           0       -2.824405   -0.083958    0.206286
      5          6           0       -3.097284    0.828391    1.224347
      6          6           0       -3.343891    2.158299    0.870686
      7          1           0       -3.508243    3.588804   -0.736474
      8          1           0       -3.015921    1.918554   -2.512232
      9          1           0       -2.572034   -0.468647   -1.892295
     10          1           0       -3.112983    0.495188    2.254952
     11          1           0       -3.558635    2.885533    1.648543
     12          7           0       -2.561732   -1.494725    0.568416
     13          8           0       -2.598783   -1.789248    1.761110
     14          8           0       -2.323771   -2.279250   -0.347299
     15          6           0        3.139120   -0.727810   -0.078902
     16          6           0        2.071236   -0.754812   -1.172922
     17          6           0        1.014905   -1.835709   -0.941366
     18          1           0        3.624898   -1.711720   -0.025181
     19          1           0        2.653895   -0.565278    0.893484
     20          1           0        2.558467   -0.915864   -2.143119
     21          1           0        1.588075    0.229335   -1.224175
     22          1           0        0.502436   -1.675433    0.012725
     23          1           0        1.478341   -2.827138   -0.911442
     24          1           0        0.261389   -1.837258   -1.735136
     25          6           0        4.202184    0.347512   -0.296401
     26          6           0        5.270068    0.374514    0.797619
     27          6           0        6.326400    1.455411    0.566062
     28          1           0        4.687410    0.184980   -1.268787
     29          1           0        3.716406    1.331423   -0.350123
     30          1           0        5.753229   -0.609633    0.848872
     31          1           0        4.782837    0.535566    1.767817
     32          1           0        5.862963    2.446841    0.536138
     33          1           0        6.838868    1.295136   -0.388028
     34          1           0        7.079915    1.456961    1.359833
 ---------------------------------------------------------------------

 SCF Done:  E(RHF) =  -669.535299736     A.U. after   15 cycles
 E2 =    -0.2092016766D+01 EUMP2 =    -0.67162731650162D+03

 The electronic state is 1-A.
 Alpha  occ. eigenvalues --  -20.60847 -20.60821 -15.85857 -11.31237 -11.27808
 Alpha  occ. eigenvalues --  -11.27804 -11.27549 -11.26823 -11.26813 -11.21413
 Alpha  occ. eigenvalues --  -11.21158 -11.21145 -11.21000 -11.20953 -11.20238
 Alpha  occ. eigenvalues --   -1.59901  -1.39455  -1.19409  -1.08805  -1.08117
 Alpha  occ. eigenvalues --   -1.04812  -1.03167  -0.95662  -0.95565  -0.86591
 Alpha  occ. eigenvalues --   -0.86210  -0.82474  -0.79236  -0.77929  -0.77517
 Alpha  occ. eigenvalues --   -0.72093  -0.71235  -0.70518  -0.65065  -0.64817
 Alpha  occ. eigenvalues --   -0.64755  -0.62163  -0.60572  -0.58976  -0.57206
 Alpha  occ. eigenvalues --   -0.55316  -0.54880  -0.53142  -0.52908  -0.52255
 Alpha  occ. eigenvalues --   -0.52001  -0.49545  -0.48858  -0.48843  -0.47534
 Alpha  occ. eigenvalues --   -0.46317  -0.45471  -0.45423  -0.44779  -0.43345
 Alpha  occ. eigenvalues --   -0.37389  -0.36414
 Alpha virt. eigenvalues --    0.04988   0.11210   0.16474   0.21228   0.23108
 Alpha virt. eigenvalues --    0.24420   0.26879   0.26925   0.27715   0.27781
 Alpha virt. eigenvalues --    0.28743   0.30587   0.31426   0.31792   0.32105

 Mulliken charges:
               1
     1  C   -0.170742
     2  C   -0.218771
     3  C   -0.170375
     4  C    0.157879
     5  C   -0.171243
     6  C   -0.218589
     7  H    0.225789
     8  H    0.223736
     9  H    0.275879
    10  H    0.275655
    11  H    0.223586
    12  N    0.487429
    13  O   -0.460414
    14  O   -0.456190
    15  C   -0.297780
    16  C   -0.302000
    17  C   -0.470483
    18  H    0.150813
    19  H    0.150013
    20  H    0.148852
    21  H    0.145664
    22  H    0.156697
    23  H    0.156569
    24  H    0.161927
    25  C   -0.297522
    26  C   -0.299400
    27  C   -0.475395
    28  H    0.148599
    29  H    0.146994
    30  H    0.152650
    31  H    0.151809
    32  H    0.153682
    33  H    0.154804
    34  H    0.159875
 Sum of Mulliken charges =  -0.00000

 Dipole moment (field-independent basis, Debye):
    X=             -1.0720    Y=              4.8618    Z=             -1.2552  Tot=              5.1343
 Quadrupole moment (field-independent basis, Debye-Ang):
   XX=            -91.0821   YY=            -95.7745   ZZ=            -90.4499
   XY=            -15.5058   XZ=              2.6003   YZ=              2.8019

 Normal termination of Gaussian 16 at Wed May  5 22:28:08 2021.
