 Gaussian 16, Revision A.03,
 Gaussian 16:  EM64L-G16RevA.03 25-Dec-2016

 -------------
 #p 6-31g* mp2
 -------------

 ------------------------------------------------------
 Input file generated by CHIRIPA (05-May-2021 14:55:22)
 ------------------------------------------------------
 Symbolic Z-matrix:
 Charge =  0 Multiplicity = 1

                         Standard orientation:
 ---------------------------------------------------------------------
 Center     Atomic      Atomic             Coordinates (Angstroms)
 Number     Number       Type             X           Y           Z
 ---------------------------------------------------------------------
      1          6           0       -0.396275   -1.736921    0.811889
      2          6           0       -1.512635   -1.599621    1.643401
      3          6           0       -2.659388   -0.941252    1.189467
      4          6           0       -2.655307   -0.430049   -0.107432
      5          6           0       -1.558857   -0.550793   -0.959787
      6          6           0       -0.422903   -1.212993   -0.484764
      7          1           0        0.490356   -2.249846    1.172707
      8          1           0       -1.494787   -2.005511    2.650862
      9          1           0       -3.537584   -0.820794    1.812107
     10          1           0       -1.606481   -0.135655   -1.959192
     11          1           0        0.442615   -1.318138   -1.132737
     12          7           0       -3.863607    0.268964   -0.599154
     13          8           0       -3.834826    0.710448   -1.745845
     14          8           0       -4.816575    0.362132    0.171437
     15          6           0        3.699280    0.214196    0.236215
     16          6           0        4.259420   -0.591027   -0.936749
     17          6           0        5.369697   -1.554322   -0.515865
     18          1           0        4.515484    0.777319    0.709129
     19          1           0        3.315536   -0.478864    0.997663
     20          1           0        4.640738    0.103367   -1.696372
     21          1           0        3.441752   -1.152150   -1.407043
     22          1           0        4.998592   -2.269783    0.225078
     23          1           0        6.204390   -1.007132   -0.065894
     24          1           0        5.755707   -2.119731   -1.369779
     25          6           0        2.588501    1.181657   -0.168657
     26          6           0        2.028361    1.986881    1.004306
     27          6           0        0.918083    2.950175    0.583423
     28          1           0        2.972246    1.874717   -0.930105
     29          1           0        1.772297    0.618535   -0.641571
     30          1           0        2.846029    2.548003    1.474601
     31          1           0        1.647043    1.292486    1.763930
     32          1           0        0.083391    2.402985    0.133451
     33          1           0        1.289189    3.665636   -0.157521
     34          1           0        0.532075    3.515584    1.437337
 ---------------------------------------------------------------------

 SCF Done:  E(RHF) =  -669.535073548     A.U. after   15 cycles
 E2 =    -0.2093598449D+01 EUMP2 =    -0.67162867199621D+03

 The electronic state is 1-A.
 Alpha  occ. eigenvalues --  -20.60832 -20.60827 -15.85888 -11.31306 -11.27876
 Alpha  occ. eigenvalues --  -11.27856 -11.27619 -11.26897 -11.26885 -11.22462
 Alpha  occ. eigenvalues --  -11.22150 -11.22005 -11.21917 -11.21817 -11.21256
 Alpha  occ. eigenvalues --   -1.59907  -1.39459  -1.19480  -1.09095  -1.08854
 Alpha  occ. eigenvalues --   -1.04891  -1.04096  -0.96534  -0.95688  -0.87547
 Alpha  occ. eigenvalues --   -0.86284  -0.82524  -0.80186  -0.78903  -0.77556
 Alpha  occ. eigenvalues --   -0.72104  -0.71230  -0.70574  -0.65859  -0.65127
 Alpha  occ. eigenvalues --   -0.64805  -0.62229  -0.61506  -0.59916  -0.58144
 Alpha  occ. eigenvalues --   -0.55826  -0.55381  -0.53217  -0.53204  -0.53052
 Alpha  occ. eigenvalues --   -0.52876  -0.50480  -0.48871  -0.48856  -0.48487
 Alpha  occ. eigenvalues --   -0.47250  -0.46406  -0.46337  -0.44853  -0.44366
 Alpha  occ. eigenvalues --   -0.37435  -0.36433
 Alpha virt. eigenvalues --    0.04951   0.11056   0.16345   0.18928   0.23138
 Alpha virt. eigenvalues --    0.23595   0.24644   0.25707   0.27128   0.28558
 Alpha virt. eigenvalues --    0.29759   0.30082   0.31087   0.31382   0.31691

 Mulliken charges:
               1
     1  C   -0.172378
     2  C   -0.218415
     3  C   -0.170348
     4  C    0.158980
     5  C   -0.173124
     6  C   -0.218004
     7  H    0.226614
     8  H    0.224116
     9  H    0.276169
    10  H    0.276838
    11  H    0.227094
    12  N    0.488100
    13  O   -0.459878
    14  O   -0.459976
    15  C   -0.298585
    16  C   -0.299941
    17  C   -0.475363
    18  H    0.153870
    19  H    0.142607
    20  H    0.156421
    21  H    0.142910
    22  H    0.152425
    23  H    0.158515
    24  H    0.162445
    25  C   -0.301989
    26  C   -0.298531
    27  C   -0.477606
    28  H    0.151856
    29  H    0.146748
    30  H    0.152583
    31  H    0.149963
    32  H    0.157927
    33  H    0.155925
    34  H    0.162033
 Sum of Mulliken charges =  -0.00000

 Dipole moment (field-independent basis, Debye):
    X=              4.2493    Y=             -2.4114    Z=              1.7483  Tot=              5.1892
 Quadrupole moment (field-independent basis, Debye-Ang):
   XX=           -116.5851   YY=            -93.1648   ZZ=            -91.4149
   XY=              6.4192   XZ=             -7.6943   YZ=             -1.3707

 Normal termination of Gaussian 16 at Thu May  6 07:48:49 2021.
