 Gaussian 16, Revision A.03,
 Gaussian 16:  EM64L-G16RevA.03 25-Dec-2016

 -------------
 #p 6-31g* mp2
 -------------

 ------------------------------------------------------
 Input file generated by CHIRIPA (05-May-2021 14:57:22)
 ------------------------------------------------------
 Symbolic Z-matrix:
 Charge =  0 Multiplicity = 1

                         Standard orientation:
 ---------------------------------------------------------------------
 Center     Atomic      Atomic             Coordinates (Angstroms)
 Number     Number       Type             X           Y           Z
 ---------------------------------------------------------------------
      1          6           0        3.298694   -1.872290   -1.127556
      2          6           0        2.223460   -1.130259   -1.627340
      3          6           0        1.829280    0.057155   -1.003467
      4          6           0        2.535812    0.475000    0.123257
      5          6           0        3.611241   -0.242202    0.645143
      6          6           0        3.987937   -1.426678    0.005094
      7          1           0        3.598112   -2.793561   -1.618478
      8          1           0        1.686351   -1.473910   -2.506808
      9          1           0        1.000529    0.651113   -1.369261
     10          1           0        4.127340    0.125831    1.523558
     11          1           0        4.823361   -2.000905    0.395447
     12          7           0        2.127766    1.730507    0.792286
     13          8           0        2.766532    2.077130    1.783481
     14          8           0        1.176900    2.344177    0.312808
     15          6           0       -2.518446   -1.605602    2.124714
     16          6           0       -3.332776   -0.471462    2.040367
     17          6           0       -3.387498    0.277202    0.860937
     18          6           0       -2.611243   -0.138770   -0.219659
     19          6           0       -1.790117   -1.264038   -0.166619
     20          6           0       -1.751068   -1.997578    1.022894
     21          1           0       -2.482024   -2.181307    3.044840
     22          1           0       -3.929813   -0.164694    2.894467
     23          1           0       -4.009286    1.159366    0.768289
     24          1           0       -1.206360   -1.545050   -1.034765
     25          1           0       -1.117744   -2.877932    1.085532
     26          7           0       -2.660879    0.645802   -1.473606
     27          8           0       -1.967375    0.258401   -2.411481
     28          8           0       -3.392348    1.633293   -1.494831
 ---------------------------------------------------------------------

 SCF Done:  E(RHF) =  -868.339087149     A.U. after   16 cycles
 E2 =    -0.2600657775D+01 EUMP2 =    -0.87093974492404D+03

 The electronic state is 1-A.
 Alpha  occ. eigenvalues --  -20.60988 -20.60905 -20.60711 -20.60688 -15.85971
 Alpha  occ. eigenvalues --  -15.85755 -11.31197 -11.31152 -11.27824 -11.27794
 Alpha  occ. eigenvalues --  -11.27699 -11.27638 -11.27544 -11.27474 -11.26812
 Alpha  occ. eigenvalues --  -11.26788 -11.26728 -11.26704  -1.59990  -1.59779
 Alpha  occ. eigenvalues --   -1.39560  -1.39329  -1.19368  -1.19345  -1.08776
 Alpha  occ. eigenvalues --   -1.08752  -1.04786  -1.04717  -0.95643  -0.95564
 Alpha  occ. eigenvalues --   -0.86171  -0.86139  -0.82486  -0.82388  -0.77582
 Alpha  occ. eigenvalues --   -0.77391  -0.72206  -0.71971  -0.71286  -0.71104
 Alpha  occ. eigenvalues --   -0.70504  -0.70428  -0.65027  -0.65005  -0.64766
 Alpha  occ. eigenvalues --   -0.64735  -0.62199  -0.61980  -0.55284  -0.55254
 Alpha  occ. eigenvalues --   -0.53214  -0.52994  -0.52825  -0.52814  -0.48977
 Alpha  occ. eigenvalues --   -0.48928  -0.48741  -0.48718  -0.44984  -0.44727
 Alpha  occ. eigenvalues --   -0.37390  -0.37315  -0.36591  -0.36096
 Alpha virt. eigenvalues --    0.04885   0.05167   0.10993   0.11557   0.16425
 Alpha virt. eigenvalues --    0.16504   0.20812   0.21830   0.26106   0.27610
 Alpha virt. eigenvalues --    0.28216   0.28804   0.30714   0.31466   0.32573

 Mulliken charges:
               1
     1  C   -0.172142
     2  C   -0.228170
     3  C   -0.176458
     4  C    0.158440
     5  C   -0.171412
     6  C   -0.219928
     7  H    0.224881
     8  H    0.228826
     9  H    0.288521
    10  H    0.274898
    11  H    0.222428
    12  N    0.487796
    13  O   -0.462513
    14  O   -0.457139
    15  C   -0.169935
    16  C   -0.217358
    17  C   -0.166898
    18  C    0.162201
    19  C   -0.171754
    20  C   -0.218061
    21  H    0.225788
    22  H    0.225029
    23  H    0.277665
    24  H    0.267182
    25  H    0.221491
    26  N    0.490593
    27  O   -0.471484
    28  O   -0.452487
 Sum of Mulliken charges =  -0.00000

 Dipole moment (field-independent basis, Debye):
    X=              1.3895    Y=             -6.9808    Z=              2.1400  Tot=              7.4324
 Quadrupole moment (field-independent basis, Debye-Ang):
   XX=            -94.0791   YY=           -107.3740   ZZ=           -105.1227
   XY=             -6.5971   XZ=            -16.6975   YZ=             -0.8255

 Normal termination of Gaussian 16 at Fri May  7 01:44:47 2021.
