 Gaussian 16, Revision A.03,
 Gaussian 16:  EM64L-G16RevA.03 25-Dec-2016

 -------------
 #p 6-31g* mp2
 -------------

 ------------------------------------------------------
 Input file generated by CHIRIPA (05-May-2021 14:57:27)
 ------------------------------------------------------
 Symbolic Z-matrix:
 Charge =  0 Multiplicity = 1

                         Standard orientation:
 ---------------------------------------------------------------------
 Center     Atomic      Atomic             Coordinates (Angstroms)
 Number     Number       Type             X           Y           Z
 ---------------------------------------------------------------------
      1          6           0       -1.318576    0.999036   -0.222394
      2          6           0       -2.427384    1.727065   -0.666284
      3          6           0       -3.707705    1.167135   -0.623809
      4          6           0       -3.843440   -0.129085   -0.129157
      5          6           0       -2.758260   -0.879795    0.320410
      6          6           0       -1.487255   -0.299780    0.268671
      7          1           0       -0.327610    1.441804   -0.258988
      8          1           0       -2.299375    2.735944   -1.048150
      9          1           0       -4.583362    1.708376   -0.961006
     10          1           0       -2.917369   -1.883374    0.695818
     11          1           0       -0.627948   -0.867522    0.614078
     12          7           0       -5.193927   -0.732489   -0.079287
     13          8           0       -5.286912   -1.876251    0.360940
     14          8           0       -6.133883   -0.050250   -0.481369
     15          6           0        2.067827    1.747839    1.138268
     16          6           0        2.028136    0.423259    1.585967
     17          6           0        2.883988   -0.537173    1.038576
     18          6           0        3.771005   -0.136473    0.040613
     19          6           0        3.834440    1.175398   -0.426571
     20          6           0        2.969264    2.119026    0.135195
     21          1           0        1.399360    2.487399    1.569078
     22          1           0        1.329096    0.132135    2.364835
     23          1           0        2.874339   -1.569536    1.366524
     24          1           0        4.542101    1.435514   -1.204371
     25          1           0        3.002298    3.146986   -0.214447
     26          7           0        4.681992   -1.144344   -0.546494
     27          8           0        5.454319   -0.765922   -1.424530
     28          8           0        4.606449   -2.293652   -0.117518
 ---------------------------------------------------------------------

 SCF Done:  E(RHF) =  -868.336606616     A.U. after   16 cycles
 E2 =    -0.2602248450D+01 EUMP2 =    -0.87093885506612D+03

 The electronic state is 1-A.
 Alpha  occ. eigenvalues --  -20.61670 -20.61665 -20.61053 -20.61048 -15.86733
 Alpha  occ. eigenvalues --  -15.86110 -11.32379 -11.31543 -11.28992 -11.28950
 Alpha  occ. eigenvalues --  -11.28777 -11.28130 -11.28126 -11.28075 -11.28045
 Alpha  occ. eigenvalues --  -11.27789 -11.27156 -11.27126  -1.60740  -1.60128
 Alpha  occ. eigenvalues --   -1.40285  -1.39679  -1.20604  -1.19725  -1.09965
 Alpha  occ. eigenvalues --   -1.09099  -1.06031  -1.05143  -0.96739  -0.95921
 Alpha  occ. eigenvalues --   -0.87412  -0.86531  -0.83552  -0.82757  -0.78530
 Alpha  occ. eigenvalues --   -0.77801  -0.72944  -0.72325  -0.72068  -0.71756
 Alpha  occ. eigenvalues --   -0.71453  -0.70789  -0.66237  -0.66037  -0.65370
 Alpha  occ. eigenvalues --   -0.65151  -0.63338  -0.62484  -0.56577  -0.55749
 Alpha  occ. eigenvalues --   -0.54206  -0.54089  -0.53467  -0.53208  -0.49724
 Alpha  occ. eigenvalues --   -0.49683  -0.49091  -0.49077  -0.45628  -0.45070
 Alpha  occ. eigenvalues --   -0.38619  -0.37748  -0.37580  -0.36757
 Alpha virt. eigenvalues --    0.03919   0.04746   0.09878   0.10912   0.15196
 Alpha virt. eigenvalues --    0.16215   0.19657   0.21768   0.25259   0.26807
 Alpha virt. eigenvalues --    0.27661   0.28799   0.29568   0.31375   0.31690

 Mulliken charges:
               1
     1  C   -0.178511
     2  C   -0.220331
     3  C   -0.170108
     4  C    0.158583
     5  C   -0.170243
     6  C   -0.225052
     7  H    0.231236
     8  H    0.221968
     9  H    0.276318
    10  H    0.276494
    11  H    0.220963
    12  N    0.488005
    13  O   -0.459489
    14  O   -0.459721
    15  C   -0.185539
    16  C   -0.223121
    17  C   -0.172911
    18  C    0.160818
    19  C   -0.168489
    20  C   -0.219881
    21  H    0.230448
    22  H    0.228145
    23  H    0.279111
    24  H    0.280087
    25  H    0.227339
    26  N    0.487932
    27  O   -0.456743
    28  O   -0.457305
 Sum of Mulliken charges =  -0.00000

 Dipole moment (field-independent basis, Debye):
    X=              1.8913    Y=              5.6311    Z=              1.8551  Tot=              6.2231
 Quadrupole moment (field-independent basis, Debye-Ang):
   XX=           -163.7516   YY=           -100.7400   ZZ=           -103.1627
   XY=              4.8732   XZ=              7.2390   YZ=             -4.6931

 Normal termination of Gaussian 16 at Fri May  7 05:07:57 2021.
