 Gaussian 16, Revision A.03,
 Gaussian 16:  EM64L-G16RevA.03 25-Dec-2016

 -------------
 #p 6-31g* mp2
 -------------

 ------------------------------------------------------
 Input file generated by CHIRIPA (05-May-2021 14:53:12)
 ------------------------------------------------------
 Symbolic Z-matrix:
 Charge =  0 Multiplicity = 1

                         Standard orientation:
 ---------------------------------------------------------------------
 Center     Atomic      Atomic             Coordinates (Angstroms)
 Number     Number       Type             X           Y           Z
 ---------------------------------------------------------------------
      1          6           0       -4.875832   -0.070428    0.126167
      2          6           0       -5.933688    0.216208   -0.940025
      3          6           0       -7.237749    0.753365   -0.349533
      4          1           0       -5.278618   -0.794056    0.848019
      5          1           0       -4.672523    0.851615    0.688215
      6          1           0       -6.133933   -0.705771   -1.500805
      7          1           0       -5.528267    0.939092   -1.659530
      8          1           0       -7.058899    1.686883    0.193751
      9          1           0       -7.668006    0.032674    0.353378
     10          1           0       -7.979910    0.951408   -1.129171
     11          6           0       -3.566507   -0.608010   -0.448637
     12          6           0       -2.508651   -0.894646    0.617555
     13          6           0       -1.204590   -1.431803    0.027063
     14          1           0       -3.769816   -1.530053   -1.010686
     15          1           0       -3.163720    0.115618   -1.170489
     16          1           0       -2.914071   -1.617531    1.337060
     17          1           0       -2.308405    0.027333    1.178334
     18          1           0       -0.774333   -0.711112   -0.675849
     19          1           0       -1.383440   -2.365321   -0.516222
     20          1           0       -0.462428   -1.629847    0.806701
     21          6           0        1.305535    1.040339    1.466010
     22          6           0        1.899609    1.898453    0.534755
     23          6           0        3.003897    1.479493   -0.213288
     24          6           0        3.490392    0.190059   -0.003586
     25          6           0        2.920386   -0.688215    0.916749
     26          6           0        1.816918   -0.247985    1.653705
     27          1           0        0.448016    1.374060    2.042801
     28          1           0        1.504592    2.899524    0.386890
     29          1           0        3.483120    2.123243   -0.940852
     30          1           0        3.336583   -1.680437    1.042028
     31          1           0        1.357576   -0.916564    2.376237
     32          7           0        4.659019   -0.264734   -0.789636
     33          8           0        5.068690   -1.405535   -0.586212
     34          8           0        5.143188    0.528210   -1.594283
 ---------------------------------------------------------------------

 SCF Done:  E(RHF) =  -669.534190878     A.U. after   15 cycles
 E2 =    -0.2092630499D+01 EUMP2 =    -0.67162682137700D+03

 The electronic state is 1-A.
 Alpha  occ. eigenvalues --  -20.60764 -20.60758 -15.85818 -11.31196 -11.27761
 Alpha  occ. eigenvalues --  -11.27745 -11.27500 -11.26795 -11.26773 -11.22270
 Alpha  occ. eigenvalues --  -11.22001 -11.21915 -11.21843 -11.21519 -11.21429
 Alpha  occ. eigenvalues --   -1.59838  -1.39392  -1.19372  -1.08944  -1.08763
 Alpha  occ. eigenvalues --   -1.04788  -1.04020  -0.96454  -0.95593  -0.87475
 Alpha  occ. eigenvalues --   -0.86176  -0.82434  -0.80093  -0.78749  -0.77479
 Alpha  occ. eigenvalues --   -0.72037  -0.71161  -0.70476  -0.65572  -0.65027
 Alpha  occ. eigenvalues --   -0.64825  -0.62158  -0.61423  -0.59847  -0.58080
 Alpha  occ. eigenvalues --   -0.55751  -0.55281  -0.53527  -0.52956  -0.52882
 Alpha  occ. eigenvalues --   -0.52610  -0.50358  -0.48799  -0.48790  -0.48400
 Alpha  occ. eigenvalues --   -0.47131  -0.46285  -0.46215  -0.44795  -0.44290
 Alpha  occ. eigenvalues --   -0.37300  -0.36321
 Alpha virt. eigenvalues --    0.05039   0.11210   0.16435   0.20282   0.22589
 Alpha virt. eigenvalues --    0.24081   0.25726   0.26357   0.26686   0.27909
 Alpha virt. eigenvalues --    0.28645   0.29812   0.31103   0.31743   0.32058

 Mulliken charges:
               1
     1  C   -0.298176
     2  C   -0.299998
     3  C   -0.475871
     4  H    0.150234
     5  H    0.147256
     6  H    0.153351
     7  H    0.152234
     8  H    0.154593
     9  H    0.155652
    10  H    0.161635
    11  C   -0.298409
    12  C   -0.300108
    13  C   -0.474444
    14  H    0.152323
    15  H    0.150214
    16  H    0.152256
    17  H    0.142476
    18  H    0.159161
    19  H    0.157174
    20  H    0.154595
    21  C   -0.168195
    22  C   -0.219606
    23  C   -0.171065
    24  C    0.158784
    25  C   -0.171513
    26  C   -0.215813
    27  H    0.226201
    28  H    0.223304
    29  H    0.275570
    30  H    0.275689
    31  H    0.223167
    32  N    0.488074
    33  O   -0.460251
    34  O   -0.460492
 Sum of Mulliken charges =  -0.00000

 Dipole moment (field-independent basis, Debye):
    X=             -4.1576    Y=              1.5843    Z=              2.7081  Tot=              5.2087
 Quadrupole moment (field-independent basis, Debye-Ang):
   XX=           -124.9477   YY=            -89.6014   ZZ=            -94.4423
   XY=              5.7965   XZ=             10.0871   YZ=             -2.0077

 Normal termination of Gaussian 16 at Thu May  6 02:31:52 2021.
