 Gaussian 16, Revision A.03,
 Gaussian 16:  EM64L-G16RevA.03 25-Dec-2016

 -------------
 #p 6-31g* mp2
 -------------

 ------------------------------------------------------
 Input file generated by CHIRIPA (05-May-2021 14:57:26)
 ------------------------------------------------------
 Symbolic Z-matrix:
 Charge =  0 Multiplicity = 1

                         Standard orientation:
 ---------------------------------------------------------------------
 Center     Atomic      Atomic             Coordinates (Angstroms)
 Number     Number       Type             X           Y           Z
 ---------------------------------------------------------------------
      1          6           0        0.515300   -1.066759   -1.021966
      2          6           0        1.357017   -1.959360   -0.350180
      3          6           0        2.616678   -1.548441    0.095857
      4          6           0        3.004332   -0.231795   -0.147983
      5          6           0        2.188399    0.681099   -0.814443
      6          6           0        0.932941    0.248303   -1.251548
      7          1           0       -0.461602   -1.394468   -1.364989
      8          1           0        1.035303   -2.981248   -0.170487
      9          1           0        3.288329   -2.218663    0.618452
     10          1           0        2.536828    1.693514   -0.978853
     11          1           0        0.281351    0.943690   -1.773002
     12          7           0        4.335654    0.214806    0.319489
     13          8           0        4.653767    1.380052    0.092240
     14          8           0        5.035821   -0.608850    0.904290
     15          6           0       -1.956644    2.688508    0.251349
     16          6           0       -2.445227    2.130302   -0.934490
     17          6           0       -2.906723    0.810878   -0.960752
     18          6           0       -2.864988    0.075011    0.222484
     19          6           0       -2.384017    0.602916    1.419678
     20          6           0       -1.927650    1.924381    1.422583
     21          1           0       -1.600135    3.714260    0.262678
     22          1           0       -2.468932    2.721379   -1.845594
     23          1           0       -3.290100    0.353808   -1.864925
     24          1           0       -2.372908   -0.011104    2.312020
     25          1           0       -1.548749    2.355278    2.344975
     26          7           0       -3.350839   -1.322885    0.207045
     27          8           0       -3.303499   -1.950243    1.262893
     28          8           0       -3.769788   -1.764727   -0.860614
 ---------------------------------------------------------------------

 SCF Done:  E(RHF) =  -868.338160914     A.U. after   16 cycles
 E2 =    -0.2602746107D+01 EUMP2 =    -0.87094090702118D+03

 The electronic state is 1-A.
 Alpha  occ. eigenvalues --  -20.61874 -20.61855 -20.60834 -20.60819 -15.86893
 Alpha  occ. eigenvalues --  -15.85878 -11.32194 -11.31168 -11.28801 -11.28691
 Alpha  occ. eigenvalues --  -11.28442 -11.27787 -11.27740 -11.27674 -11.27653
 Alpha  occ. eigenvalues --  -11.27359 -11.26685 -11.26635  -1.60943  -1.59907
 Alpha  occ. eigenvalues --   -1.40492  -1.39463  -1.20371  -1.19313  -1.09767
 Alpha  occ. eigenvalues --   -1.08713  -1.05752  -1.04700  -0.96606  -0.95569
 Alpha  occ. eigenvalues --   -0.87144  -0.86094  -0.83430  -0.82404  -0.78497
 Alpha  occ. eigenvalues --   -0.77475  -0.73100  -0.72330  -0.72096  -0.71434
 Alpha  occ. eigenvalues --   -0.71232  -0.70372  -0.66005  -0.65721  -0.64957
 Alpha  occ. eigenvalues --   -0.64707  -0.63079  -0.62070  -0.56213  -0.55182
 Alpha  occ. eigenvalues --   -0.54234  -0.53812  -0.52945  -0.52696  -0.49878
 Alpha  occ. eigenvalues --   -0.49857  -0.48860  -0.48845  -0.45895  -0.44886
 Alpha  occ. eigenvalues --   -0.38383  -0.37344  -0.37199  -0.36288
 Alpha virt. eigenvalues --    0.03991   0.05044   0.10186   0.11339   0.15471
 Alpha virt. eigenvalues --    0.16561   0.20405   0.21617   0.26285   0.27195
 Alpha virt. eigenvalues --    0.27676   0.28147   0.29904   0.31078   0.32110

 Mulliken charges:
               1
     1  C   -0.177183
     2  C   -0.218947
     3  C   -0.172181
     4  C    0.158134
     5  C   -0.174650
     6  C   -0.214730
     7  H    0.229892
     8  H    0.229336
     9  H    0.275795
    10  H    0.271347
    11  H    0.219774
    12  N    0.488008
    13  O   -0.462903
    14  O   -0.459780
    15  C   -0.170074
    16  C   -0.225260
    17  C   -0.180864
    18  C    0.158083
    19  C   -0.167070
    20  C   -0.215436
    21  H    0.230271
    22  H    0.225727
    23  H    0.276008
    24  H    0.278991
    25  H    0.229462
    26  N    0.485950
    27  O   -0.455493
    28  O   -0.462209
 Sum of Mulliken charges =  -0.00000

 Dipole moment (field-independent basis, Debye):
    X=             -3.1976    Y=              3.3709    Z=             -1.3323  Tot=              4.8334
 Quadrupole moment (field-independent basis, Debye-Ang):
   XX=           -144.1905   YY=            -99.3218   ZZ=            -99.4578
   XY=            -19.1396   XZ=             -2.8573   YZ=             -0.5052

 Normal termination of Gaussian 16 at Thu May  6 18:08:04 2021.
