 Gaussian 16, Revision A.03,
 Gaussian 16:  EM64L-G16RevA.03 25-Dec-2016

 -------------
 #p 6-31g* mp2
 -------------

 ------------------------------------------------------
 Input file generated by CHIRIPA (05-May-2021 14:57:24)
 ------------------------------------------------------
 Symbolic Z-matrix:
 Charge =  0 Multiplicity = 1

                         Standard orientation:
 ---------------------------------------------------------------------
 Center     Atomic      Atomic             Coordinates (Angstroms)
 Number     Number       Type             X           Y           Z
 ---------------------------------------------------------------------
      1          6           0        3.200885   -2.305523    0.680751
      2          6           0        2.608765   -1.885865   -0.514992
      3          6           0        2.707061   -0.553393   -0.926579
      4          6           0        3.408079    0.336660   -0.114378
      5          6           0        4.008906   -0.050932    1.082313
      6          6           0        3.897836   -1.388334    1.474189
      7          1           0        3.119564   -3.342534    0.992826
      8          1           0        2.066891   -2.595968   -1.133192
      9          1           0        2.258267   -0.201573   -1.847570
     10          1           0        4.542615    0.680095    1.677437
     11          1           0        4.358691   -1.711423    2.403313
     12          7           0        3.518902    1.749898   -0.539672
     13          8           0        4.141952    2.514481    0.193716
     14          8           0        2.980617    2.066252   -1.598354
     15          6           0       -1.286094   -1.426585   -0.392029
     16          6           0       -1.245533   -0.300145    0.436226
     17          6           0       -2.404987    0.440349    0.684989
     18          6           0       -3.593194    0.024146    0.086465
     19          6           0       -3.665788   -1.093566   -0.743438
     20          6           0       -2.493963   -1.819010   -0.978184
     21          1           0       -0.380597   -1.995974   -0.579829
     22          1           0       -0.308894    0.006949    0.892785
     23          1           0       -2.401982    1.316450    1.322057
     24          1           0       -4.614312   -1.375113   -1.184405
     25          1           0       -2.528441   -2.693394   -1.621851
     26          7           0       -4.827204    0.800107    0.342400
     27          8           0       -5.861491    0.412681   -0.196850
     28          8           0       -4.736769    1.781040    1.077405
 ---------------------------------------------------------------------

 SCF Done:  E(RHF) =  -868.336963756     A.U. after   16 cycles
 E2 =    -0.2601090134D+01 EUMP2 =    -0.87093805389031D+03

 The electronic state is 1-A.
 Alpha  occ. eigenvalues --  -20.61585 -20.61580 -20.60808 -20.60799 -15.86651
 Alpha  occ. eigenvalues --  -15.85861 -11.32251 -11.31296 -11.28907 -11.28817
 Alpha  occ. eigenvalues --  -11.28631 -11.27987 -11.27881 -11.27833 -11.27816
 Alpha  occ. eigenvalues --  -11.27664 -11.26958 -11.26870  -1.60661  -1.59879
 Alpha  occ. eigenvalues --   -1.40206  -1.39431  -1.20468  -1.19477  -1.09802
 Alpha  occ. eigenvalues --   -1.08877  -1.05901  -1.04883  -0.96587  -0.95701
 Alpha  occ. eigenvalues --   -0.87272  -0.86286  -0.83424  -0.82521  -0.78433
 Alpha  occ. eigenvalues --   -0.77543  -0.72854  -0.72079  -0.72000  -0.71513
 Alpha  occ. eigenvalues --   -0.71202  -0.70662  -0.66096  -0.65885  -0.65134
 Alpha  occ. eigenvalues --   -0.64898  -0.63217  -0.62225  -0.56354  -0.55512
 Alpha  occ. eigenvalues --   -0.54190  -0.53929  -0.53216  -0.52966  -0.49636
 Alpha  occ. eigenvalues --   -0.49599  -0.48844  -0.48829  -0.45558  -0.44820
 Alpha  occ. eigenvalues --   -0.38449  -0.37627  -0.37379  -0.36473
 Alpha virt. eigenvalues --    0.04091   0.04985   0.09991   0.11191   0.15414
 Alpha virt. eigenvalues --    0.16441   0.19426   0.21756   0.25212   0.27022
 Alpha virt. eigenvalues --    0.27370   0.28720   0.29795   0.31330   0.32259

 Mulliken charges:
               1
     1  C   -0.171115
     2  C   -0.227502
     3  C   -0.172721
     4  C    0.156082
     5  C   -0.169855
     6  C   -0.219096
     7  H    0.229089
     8  H    0.220366
     9  H    0.279699
    10  H    0.279745
    11  H    0.228007
    12  N    0.487712
    13  O   -0.457101
    14  O   -0.457228
    15  C   -0.173435
    16  C   -0.220454
    17  C   -0.169768
    18  C    0.159036
    19  C   -0.170494
    20  C   -0.219105
    21  H    0.218403
    22  H    0.226264
    23  H    0.277726
    24  H    0.275850
    25  H    0.221177
    26  N    0.487979
    27  O   -0.460420
    28  O   -0.458839
 Sum of Mulliken charges =  -0.00000

 Dipole moment (field-independent basis, Debye):
    X=              4.2060    Y=             -7.5326    Z=              0.7076  Tot=              8.6563
 Quadrupole moment (field-independent basis, Debye-Ang):
   XX=           -135.8064   YY=           -107.2167   ZZ=           -100.8592
   XY=             -4.8630   XZ=             13.3128   YZ=              3.7223

 Normal termination of Gaussian 16 at Thu May  6 03:28:05 2021.
