 Gaussian 16, Revision A.03,
 Gaussian 16:  EM64L-G16RevA.03 25-Dec-2016

 -------------
 #p 6-31g* mp2
 -------------

 ------------------------------------------------------
 Input file generated by CHIRIPA (05-May-2021 14:55:21)
 ------------------------------------------------------
 Symbolic Z-matrix:
 Charge =  0 Multiplicity = 1

                         Standard orientation:
 ---------------------------------------------------------------------
 Center     Atomic      Atomic             Coordinates (Angstroms)
 Number     Number       Type             X           Y           Z
 ---------------------------------------------------------------------
      1          6           0        2.099448    2.244358    0.390952
      2          6           0        2.351735    1.424551    1.495845
      3          6           0        2.667630    0.073994    1.320479
      4          6           0        2.722830   -0.425911    0.020349
      5          6           0        2.476590    0.365410   -1.100574
      6          6           0        2.162569    1.713108   -0.901453
      7          1           0        1.854781    3.292393    0.536407
      8          1           0        2.303425    1.834409    2.500697
      9          1           0        2.867459   -0.583150    2.158123
     10          1           0        2.532241   -0.071803   -2.090102
     11          1           0        1.967114    2.347424   -1.761385
     12          7           0        3.056262   -1.854172   -0.177877
     13          8           0        3.098567   -2.270404   -1.333558
     14          8           0        3.268987   -2.530367    0.826187
     15          6           0       -3.610213   -0.490840   -0.141983
     16          6           0       -5.030042   -0.792270    0.338860
     17          6           0       -5.406148   -2.266178    0.184157
     18          1           0       -3.516484   -0.785964   -1.196052
     19          1           0       -2.900206   -1.112430    0.420965
     20          1           0       -5.737046   -0.169290   -0.223863
     21          1           0       -5.120457   -0.496216    1.391853
     22          1           0       -4.723907   -2.900292    0.759523
     23          1           0       -5.344000   -2.571508   -0.865373
     24          1           0       -6.425077   -2.459349    0.533913
     25          6           0       -3.219551    0.978561    0.006254
     26          6           0       -1.799722    1.279991   -0.474589
     27          6           0       -1.423616    2.753899   -0.319885
     28          1           0       -3.929558    1.600152   -0.556693
     29          1           0       -3.313279    1.273686    1.060323
     30          1           0       -1.709307    0.983937   -1.527582
     31          1           0       -1.092718    0.657010    0.088134
     32          1           0       -1.485765    3.059229    0.729644
     33          1           0       -2.105857    3.388013   -0.895251
     34          1           0       -0.404688    2.947071   -0.669642
 ---------------------------------------------------------------------

 SCF Done:  E(RHF) =  -669.534179495     A.U. after   15 cycles
 E2 =    -0.2093316671D+01 EUMP2 =    -0.67162749616558D+03

 The electronic state is 1-A.
 Alpha  occ. eigenvalues --  -20.60789 -20.60783 -15.85845 -11.31217 -11.27818
 Alpha  occ. eigenvalues --  -11.27803 -11.27537 -11.26811 -11.26799 -11.21933
 Alpha  occ. eigenvalues --  -11.21695 -11.21645 -11.21635 -11.21495 -11.21084
 Alpha  occ. eigenvalues --   -1.59865  -1.39418  -1.19412  -1.08821  -1.08634
 Alpha  occ. eigenvalues --   -1.04820  -1.03774  -0.96263  -0.95622  -0.87281
 Alpha  occ. eigenvalues --   -0.86215  -0.82463  -0.79842  -0.78433  -0.77506
 Alpha  occ. eigenvalues --   -0.72064  -0.71189  -0.70532  -0.65276  -0.65073
 Alpha  occ. eigenvalues --   -0.64841  -0.62177  -0.61177  -0.59686  -0.57883
 Alpha  occ. eigenvalues --   -0.55572  -0.55294  -0.53366  -0.52913  -0.52804
 Alpha  occ. eigenvalues --   -0.52511  -0.50178  -0.48823  -0.48816  -0.48162
 Alpha  occ. eigenvalues --   -0.46856  -0.45984  -0.45887  -0.44823  -0.44046
 Alpha  occ. eigenvalues --   -0.37296  -0.36402
 Alpha virt. eigenvalues --    0.05025   0.11125   0.16478   0.20772   0.22773
 Alpha virt. eigenvalues --    0.24287   0.26383   0.26600   0.27130   0.27728
 Alpha virt. eigenvalues --    0.28685   0.30680   0.31158   0.31470   0.31862

 Mulliken charges:
               1
     1  C   -0.166798
     2  C   -0.220601
     3  C   -0.171195
     4  C    0.157837
     5  C   -0.171078
     6  C   -0.217283
     7  H    0.227511
     8  H    0.223642
     9  H    0.275762
    10  H    0.275909
    11  H    0.223827
    12  N    0.488160
    13  O   -0.460251
    14  O   -0.460592
    15  C   -0.298840
    16  C   -0.299808
    17  C   -0.476004
    18  H    0.150743
    19  H    0.151559
    20  H    0.151468
    21  H    0.151399
    22  H    0.156802
    23  H    0.156007
    24  H    0.160313
    25  C   -0.298619
    26  C   -0.299498
    27  C   -0.475709
    28  H    0.149251
    29  H    0.148743
    30  H    0.151130
    31  H    0.156936
    32  H    0.152016
    33  H    0.155348
    34  H    0.151914
 Sum of Mulliken charges =  -0.00000

 Dipole moment (field-independent basis, Debye):
    X=             -1.1622    Y=              4.9537    Z=              0.7134  Tot=              5.1380
 Quadrupole moment (field-independent basis, Debye-Ang):
   XX=           -101.9847   YY=           -100.9352   ZZ=            -88.9403
   XY=             14.0671   XZ=              2.6753   YZ=             -1.0211

 Normal termination of Gaussian 16 at Wed May  5 22:14:54 2021.
