 Gaussian 16, Revision A.03,
 Gaussian 16:  EM64L-G16RevA.03 25-Dec-2016

 -------------
 #p 6-31g* mp2
 -------------

 ------------------------------------------------------
 Input file generated by CHIRIPA (05-May-2021 14:53:17)
 ------------------------------------------------------
 Symbolic Z-matrix:
 Charge =  0 Multiplicity = 1

                         Standard orientation:
 ---------------------------------------------------------------------
 Center     Atomic      Atomic             Coordinates (Angstroms)
 Number     Number       Type             X           Y           Z
 ---------------------------------------------------------------------
      1          6           0        4.063842    0.240231    0.138425
      2          6           0        5.494967    0.416705   -0.370226
      3          6           0        6.022138    1.838029   -0.170922
      4          1           0        3.406969    0.952456   -0.379453
      5          1           0        4.026759    0.499790    1.205499
      6          1           0        5.529620    0.155561   -1.435692
      7          1           0        6.148477   -0.296155    0.148785
      8          1           0        6.016454    2.105697    0.890644
      9          1           0        5.394081    2.559980   -0.702836
     10          1           0        7.046714    1.941850   -0.541497
     11          6           0        3.522807   -1.175411   -0.053844
     12          6           0        2.091682   -1.351885    0.454807
     13          6           0        1.564511   -2.773209    0.255503
     14          1           0        3.559890   -1.434970   -1.120919
     15          1           0        4.179680   -1.887636    0.464034
     16          1           0        1.438172   -0.639026   -0.064204
     17          1           0        2.057029   -1.090742    1.520273
     18          1           0        2.192568   -3.495160    0.787417
     19          1           0        1.570195   -3.040877   -0.806063
     20          1           0        0.539935   -2.877031    0.626078
     21          6           0       -2.247906    2.777099    0.159434
     22          6           0       -3.606818    2.453889    0.085862
     23          6           0       -4.014836    1.120978   -0.020985
     24          6           0       -3.032719    0.132141   -0.051647
     25          6           0       -1.671101    0.422292    0.019759
     26          6           0       -1.286080    1.762058    0.126206
     27          1           0       -1.939880    3.815200    0.242278
     28          1           0       -4.355988    3.240104    0.111440
     29          1           0       -5.060066    0.842635   -0.079613
     30          1           0       -0.947511   -0.383350   -0.008118
     31          1           0       -0.230018    2.010120    0.183168
     32          7           0       -3.452496   -1.282581   -0.164549
     33          8           0       -2.567647   -2.135255   -0.189552
     34          8           0       -4.658419   -1.511979   -0.225899
 ---------------------------------------------------------------------

 SCF Done:  E(RHF) =  -669.535733537     A.U. after   15 cycles
 E2 =    -0.2091814030D+01 EUMP2 =    -0.67162754756767D+03

 The electronic state is 1-A.
 Alpha  occ. eigenvalues --  -20.60782 -20.60777 -15.85828 -11.31149 -11.27728
 Alpha  occ. eigenvalues --  -11.27679 -11.27470 -11.26740 -11.26715 -11.22049
 Alpha  occ. eigenvalues --  -11.21955 -11.21831 -11.21705 -11.21431 -11.20944
 Alpha  occ. eigenvalues --   -1.59851  -1.39406  -1.19325  -1.08799  -1.08731
 Alpha  occ. eigenvalues --   -1.04726  -1.03829  -0.96226  -0.95569  -0.87227
 Alpha  occ. eigenvalues --   -0.86125  -0.82406  -0.79913  -0.78653  -0.77449
 Alpha  occ. eigenvalues --   -0.72049  -0.71171  -0.70446  -0.65443  -0.64979
 Alpha  occ. eigenvalues --   -0.64731  -0.62144  -0.61183  -0.59580  -0.57849
 Alpha  occ. eigenvalues --   -0.55515  -0.55221  -0.53058  -0.52886  -0.52809
 Alpha  occ. eigenvalues --   -0.52622  -0.50160  -0.48815  -0.48800  -0.48192
 Alpha  occ. eigenvalues --   -0.46958  -0.46179  -0.46088  -0.44820  -0.44062
 Alpha  occ. eigenvalues --   -0.37313  -0.36325
 Alpha virt. eigenvalues --    0.05069   0.11322   0.16565   0.19734   0.22761
 Alpha virt. eigenvalues --    0.23677   0.25002   0.26391   0.26689   0.28337
 Alpha virt. eigenvalues --    0.29384   0.30854   0.31377   0.31642   0.32214

 Mulliken charges:
               1
     1  C   -0.297903
     2  C   -0.299859
     3  C   -0.475822
     4  H    0.143469
     5  H    0.149234
     6  H    0.153309
     7  H    0.153905
     8  H    0.155098
     9  H    0.153388
    10  H    0.161919
    11  C   -0.297359
    12  C   -0.304182
    13  C   -0.482274
    14  H    0.151904
    15  H    0.152932
    16  H    0.138208
    17  H    0.152705
    18  H    0.156051
    19  H    0.158401
    20  H    0.177005
    21  C   -0.170519
    22  C   -0.219115
    23  C   -0.170199
    24  C    0.159514
    25  C   -0.180754
    26  C   -0.222412
    27  H    0.225516
    28  H    0.223321
    29  H    0.275378
    30  H    0.288577
    31  H    0.224429
    32  N    0.488533
    33  O   -0.462329
    34  O   -0.460072
 Sum of Mulliken charges =  -0.00000

 Dipole moment (field-independent basis, Debye):
    X=              1.5489    Y=              4.8257    Z=              0.4135  Tot=              5.0850
 Quadrupole moment (field-independent basis, Debye-Ang):
   XX=            -98.9309   YY=            -94.0093   ZZ=            -94.8576
   XY=            -17.4937   XZ=             -0.9179   YZ=             -0.5746

 Normal termination of Gaussian 16 at Wed May  5 18:48:28 2021.
