 Gaussian 16, Revision A.03,
 Gaussian 16:  EM64L-G16RevA.03 25-Dec-2016

 -------------
 #p 6-31g* mp2
 -------------

 ------------------------------------------------------
 Input file generated by CHIRIPA (05-May-2021 14:55:23)
 ------------------------------------------------------
 Symbolic Z-matrix:
 Charge =  0 Multiplicity = 1

                         Standard orientation:
 ---------------------------------------------------------------------
 Center     Atomic      Atomic             Coordinates (Angstroms)
 Number     Number       Type             X           Y           Z
 ---------------------------------------------------------------------
      1          6           0       -0.931893   -1.122235    0.342271
      2          6           0       -1.424809   -0.881635   -0.944456
      3          6           0       -2.665374   -0.262909   -1.125358
      4          6           0       -3.389817    0.103745    0.007796
      5          6           0       -2.925715   -0.122431    1.302687
      6          6           0       -1.682596   -0.742534    1.459766
      7          1           0        0.032800   -1.603410    0.473547
      8          1           0       -0.843977   -1.175437   -1.814145
      9          1           0       -3.070800   -0.064698   -2.110122
     10          1           0       -3.527620    0.181801    2.150373
     11          1           0       -1.302288   -0.928135    2.460248
     12          7           0       -4.704500    0.759491   -0.171107
     13          8           0       -5.323398    1.072928    0.843467
     14          8           0       -5.091156    0.947611   -1.322517
     15          6           0        4.294194    0.641569   -0.401007
     16          6           0        4.691076    1.760118    0.563005
     17          6           0        5.154104    3.025989   -0.158778
     18          1           0        5.149048    0.404063   -1.048897
     19          1           0        3.492918    1.002579   -1.060571
     20          1           0        5.490409    1.396655    1.221470
     21          1           0        3.835239    1.994858    1.208802
     22          1           0        4.358655    3.415223   -0.802485
     23          1           0        6.023230    2.813620   -0.789745
     24          1           0        5.432980    3.812607    0.549261
     25          6           0        3.829048   -0.630484    0.305567
     26          6           0        3.432166   -1.749033   -0.658444
     27          6           0        2.969137   -3.014904    0.063338
     28          1           0        4.630324   -0.991493    0.965132
     29          1           0        2.974194   -0.392977    0.953457
     30          1           0        4.288004   -1.983772   -1.304243
     31          1           0        2.632832   -1.385570   -1.316909
     32          1           0        2.100012   -2.802535    0.694306
     33          1           0        3.764587   -3.404137    0.707045
     34          1           0        2.690262   -3.801522   -0.644702
 ---------------------------------------------------------------------

 SCF Done:  E(RHF) =  -669.535483860     A.U. after   15 cycles
 E2 =    -0.2091286270D+01 EUMP2 =    -0.67162677013024D+03

 The electronic state is 1-A.
 Alpha  occ. eigenvalues --  -20.60756 -20.60751 -15.85810 -11.31176 -11.27748
 Alpha  occ. eigenvalues --  -11.27744 -11.27464 -11.26762 -11.26752 -11.22723
 Alpha  occ. eigenvalues --  -11.22348 -11.22332 -11.22188 -11.22092 -11.21527
 Alpha  occ. eigenvalues --   -1.59831  -1.39385  -1.19349  -1.09294  -1.08742
 Alpha  occ. eigenvalues --   -1.04754  -1.04391  -0.96838  -0.95577  -0.87851
 Alpha  occ. eigenvalues --   -0.86149  -0.82413  -0.80464  -0.79058  -0.77458
 Alpha  occ. eigenvalues --   -0.72027  -0.71155  -0.70488  -0.65934  -0.65000
 Alpha  occ. eigenvalues --   -0.64756  -0.62104  -0.61803  -0.60224  -0.58427
 Alpha  occ. eigenvalues --   -0.56235  -0.55163  -0.53523  -0.53241  -0.53082
 Alpha  occ. eigenvalues --   -0.52845  -0.50787  -0.48797  -0.48782  -0.48754
 Alpha  occ. eigenvalues --   -0.47514  -0.46604  -0.46506  -0.44790  -0.44621
 Alpha  occ. eigenvalues --   -0.37326  -0.36360
 Alpha virt. eigenvalues --    0.05071   0.11287   0.16528   0.18436   0.22743
 Alpha virt. eigenvalues --    0.23810   0.25271   0.25603   0.27031   0.27672
 Alpha virt. eigenvalues --    0.28960   0.30014   0.30851   0.31359   0.31988

 Mulliken charges:
               1
     1  C   -0.178414
     2  C   -0.222228
     3  C   -0.170650
     4  C    0.158280
     5  C   -0.170610
     6  C   -0.221543
     7  H    0.238477
     8  H    0.223961
     9  H    0.275545
    10  H    0.275576
    11  H    0.223681
    12  N    0.487975
    13  O   -0.460447
    14  O   -0.460465
    15  C   -0.298723
    16  C   -0.300271
    17  C   -0.476269
    18  H    0.151679
    19  H    0.150004
    20  H    0.152815
    21  H    0.152328
    22  H    0.156387
    23  H    0.155986
    24  H    0.162261
    25  C   -0.298208
    26  C   -0.301573
    27  C   -0.479417
    28  H    0.152789
    29  H    0.144966
    30  H    0.157921
    31  H    0.146409
    32  H    0.145519
    33  H    0.162289
    34  H    0.163969
 Sum of Mulliken charges =  -0.00000

 Dipole moment (field-independent basis, Debye):
    X=              4.8745    Y=             -2.2884    Z=              0.6097  Tot=              5.4193
 Quadrupole moment (field-independent basis, Debye-Ang):
   XX=           -125.0051   YY=            -96.6097   ZZ=            -89.9491
   XY=              7.5141   XZ=             -2.6471   YZ=              0.7887

 Normal termination of Gaussian 16 at Thu May  6 09:28:06 2021.
