 Gaussian 16, Revision A.03,
 Gaussian 16:  EM64L-G16RevA.03 25-Dec-2016

 -------------
 #p 6-31g* mp2
 -------------

 ------------------------------------------------------
 Input file generated by CHIRIPA (05-May-2021 14:57:24)
 ------------------------------------------------------
 Symbolic Z-matrix:
 Charge =  0 Multiplicity = 1

                         Standard orientation:
 ---------------------------------------------------------------------
 Center     Atomic      Atomic             Coordinates (Angstroms)
 Number     Number       Type             X           Y           Z
 ---------------------------------------------------------------------
      1          6           0       -4.509261   -2.281662   -0.026597
      2          6           0       -3.199072   -1.926213    0.310423
      3          6           0       -2.820466   -0.581602    0.367228
      4          6           0       -3.781989    0.385931    0.079753
      5          6           0       -5.095190    0.063533   -0.259148
      6          6           0       -5.451477   -1.287408   -0.309808
      7          1           0       -4.794702   -3.328647   -0.068338
      8          1           0       -2.465229   -2.696230    0.530859
      9          1           0       -1.813068   -0.278414    0.625385
     10          1           0       -5.804530    0.853605   -0.473719
     11          1           0       -6.469710   -1.560519   -0.571830
     12          7           0       -3.392990    1.812761    0.136638
     13          8           0       -4.258829    2.646179   -0.120993
     14          8           0       -2.229619    2.070675    0.437778
     15          6           0        1.440767   -0.895512   -0.230550
     16          6           0        1.760980    0.462641   -0.327527
     17          6           0        3.090300    0.886702   -0.240180
     18          6           0        4.078640   -0.078774   -0.054893
     19          6           0        3.791420   -1.439187    0.045454
     20          6           0        2.455222   -1.840425   -0.044696
     21          1           0        0.405447   -1.216067   -0.299492
     22          1           0        0.975212    1.198697   -0.471874
     23          1           0        3.366271    1.931739   -0.311970
     24          1           0        4.596529   -2.149501    0.189233
     25          1           0        2.209483   -2.895856    0.030963
     26          7           0        5.489573    0.358079    0.039061
     27          8           0        6.341884   -0.512280    0.202394
     28          8           0        5.716436    1.562572   -0.052411
 ---------------------------------------------------------------------

 SCF Done:  E(RHF) =  -868.337840782     A.U. after   16 cycles
 E2 =    -0.2599995784D+01 EUMP2 =    -0.87093783656630D+03

 The electronic state is 1-A.
 Alpha  occ. eigenvalues --  -20.61760 -20.61712 -20.60685 -20.60672 -15.86786
 Alpha  occ. eigenvalues --  -15.85731 -11.32150 -11.31141 -11.28809 -11.28650
 Alpha  occ. eigenvalues --  -11.28406 -11.27786 -11.27722 -11.27649 -11.27609
 Alpha  occ. eigenvalues --  -11.27555 -11.26840 -11.26608  -1.60799  -1.59754
 Alpha  occ. eigenvalues --   -1.40358  -1.39306  -1.20312  -1.19308  -1.09692
 Alpha  occ. eigenvalues --   -1.08728  -1.05730  -1.04691  -0.96537  -0.95558
 Alpha  occ. eigenvalues --   -0.87118  -0.86102  -0.83383  -0.82364  -0.78445
 Alpha  occ. eigenvalues --   -0.77376  -0.73005  -0.72115  -0.71951  -0.71444
 Alpha  occ. eigenvalues --   -0.71075  -0.70491  -0.65969  -0.65731  -0.64966
 Alpha  occ. eigenvalues --   -0.64679  -0.63088  -0.62010  -0.56203  -0.55311
 Alpha  occ. eigenvalues --   -0.54025  -0.53809  -0.53044  -0.52768  -0.49767
 Alpha  occ. eigenvalues --   -0.49742  -0.48712  -0.48702  -0.45762  -0.44701
 Alpha  occ. eigenvalues --   -0.38256  -0.37346  -0.37326  -0.36275
 Alpha virt. eigenvalues --    0.04075   0.05103   0.10316   0.11339   0.15543
 Alpha virt. eigenvalues --    0.16520   0.18606   0.22093   0.25139   0.26384
 Alpha virt. eigenvalues --    0.27610   0.29460   0.30323   0.31196   0.32106

 Mulliken charges:
               1
     1  C   -0.169799
     2  C   -0.219025
     3  C   -0.177156
     4  C    0.160347
     5  C   -0.169461
     6  C   -0.217808
     7  H    0.228669
     8  H    0.220747
     9  H    0.271641
    10  H    0.278517
    11  H    0.227187
    12  N    0.489403
    13  O   -0.454542
    14  O   -0.466976
    15  C   -0.175462
    16  C   -0.222545
    17  C   -0.171068
    18  C    0.159356
    19  C   -0.171674
    20  C   -0.217919
    21  H    0.215378
    22  H    0.240937
    23  H    0.278781
    24  H    0.274947
    25  H    0.219436
    26  N    0.487880
    27  O   -0.461199
    28  O   -0.458592
 Sum of Mulliken charges =  -0.00000

 Dipole moment (field-independent basis, Debye):
    X=             -6.6385    Y=             -6.3844    Z=             -0.5783  Tot=              9.2284
 Quadrupole moment (field-independent basis, Debye-Ang):
   XX=           -128.8895   YY=           -103.9902   ZZ=           -106.1502
   XY=             10.2198   XZ=              1.2434   YZ=             -1.4572

 Normal termination of Gaussian 16 at Wed May  5 16:21:21 2021.
