 Gaussian 16, Revision A.03,
 Gaussian 16:  EM64L-G16RevA.03 25-Dec-2016

 -------------
 #p 6-31g* mp2
 -------------

 ------------------------------------------------------
 Input file generated by CHIRIPA (05-May-2021 14:57:21)
 ------------------------------------------------------
 Symbolic Z-matrix:
 Charge =  0 Multiplicity = 1

                         Standard orientation:
 ---------------------------------------------------------------------
 Center     Atomic      Atomic             Coordinates (Angstroms)
 Number     Number       Type             X           Y           Z
 ---------------------------------------------------------------------
      1          6           0        2.591671    2.771373    0.063801
      2          6           0        2.274392    2.153723    1.278035
      3          6           0        2.182583    0.761320    1.363674
      4          6           0        2.415304    0.013883    0.210214
      5          6           0        2.733308    0.599848   -1.014045
      6          6           0        2.819714    1.993835   -1.076353
      7          1           0        2.660892    3.853640    0.006337
      8          1           0        2.096781    2.755049    2.165112
      9          1           0        1.938626    0.257201    2.290910
     10          1           0        2.904984   -0.026135   -1.881277
     11          1           0        3.066291    2.470789   -2.020683
     12          7           0        2.320969   -1.461029    0.288526
     13          8           0        2.530535   -2.097106   -0.742069
     14          8           0        2.039250   -1.953062    1.379019
     15          6           0       -4.205850    1.454803    0.336683
     16          6           0       -3.448404    1.573417   -0.833243
     17          6           0       -2.462278    0.630832   -1.139244
     18          6           0       -2.259250   -0.422454   -0.248931
     19          6           0       -2.997514   -0.567982    0.924559
     20          6           0       -3.978389    0.386366    1.210310
     21          1           0       -4.969857    2.191594    0.566526
     22          1           0       -3.622871    2.402141   -1.513554
     23          1           0       -1.861417    0.698527   -2.038023
     24          1           0       -2.800598   -1.405033    1.583335
     25          1           0       -4.565115    0.291719    2.119616
     26          7           0       -1.218062   -1.426553   -0.562161
     27          8           0       -1.058612   -2.345265    0.238577
     28          8           0       -0.581144   -1.275841   -1.602478
 ---------------------------------------------------------------------

 SCF Done:  E(RHF) =  -868.335175692     A.U. after   16 cycles
 E2 =    -0.2603503273D+01 EUMP2 =    -0.87093867896513D+03

 The electronic state is 1-A.
 Alpha  occ. eigenvalues --  -20.60435 -20.60327 -20.59402 -20.59343 -15.85422
 Alpha  occ. eigenvalues --  -15.84436 -11.31034 -11.30349 -11.27657 -11.27605
 Alpha  occ. eigenvalues --  -11.27430 -11.27041 -11.26941 -11.26883 -11.26719
 Alpha  occ. eigenvalues --  -11.26684 -11.26174 -11.26120  -1.59467  -1.58409
 Alpha  occ. eigenvalues --   -1.39004  -1.37959  -1.19234  -1.18592  -1.08585
 Alpha  occ. eigenvalues --   -1.07889  -1.04670  -1.04075  -0.95374  -0.94629
 Alpha  occ. eigenvalues --   -0.86056  -0.85445  -0.82201  -0.81471  -0.77216
 Alpha  occ. eigenvalues --   -0.76403  -0.71613  -0.71087  -0.70677  -0.70340
 Alpha  occ. eigenvalues --   -0.69703  -0.69486  -0.64878  -0.64672  -0.64232
 Alpha  occ. eigenvalues --   -0.64092  -0.62012  -0.61410  -0.55166  -0.54583
 Alpha  occ. eigenvalues --   -0.52992  -0.52764  -0.52387  -0.52176  -0.48394
 Alpha  occ. eigenvalues --   -0.48380  -0.47447  -0.47383  -0.44557  -0.42985
 Alpha  occ. eigenvalues --   -0.37237  -0.36609  -0.36286  -0.35699
 Alpha virt. eigenvalues --    0.05282   0.06164   0.11363   0.11948   0.16741
 Alpha virt. eigenvalues --    0.17549   0.21474   0.21978   0.27368   0.27852
 Alpha virt. eigenvalues --    0.28389   0.28939   0.30985   0.31486   0.32644

 Mulliken charges:
               1
     1  C   -0.173419
     2  C   -0.219092
     3  C   -0.174725
     4  C    0.157603
     5  C   -0.164302
     6  C   -0.221309
     7  H    0.220754
     8  H    0.218805
     9  H    0.273755
    10  H    0.279536
    11  H    0.219977
    12  N    0.490643
    13  O   -0.448876
    14  O   -0.460574
    15  C   -0.171857
    16  C   -0.218968
    17  C   -0.170778
    18  C    0.159046
    19  C   -0.171645
    20  C   -0.219117
    21  H    0.224141
    22  H    0.221242
    23  H    0.273783
    24  H    0.278620
    25  H    0.222993
    26  N    0.481205
    27  O   -0.445291
    28  O   -0.462149
 Sum of Mulliken charges =  -0.00000

 Dipole moment (field-independent basis, Debye):
    X=             -3.3648    Y=              8.2297    Z=              0.7384  Tot=              8.9216
 Quadrupole moment (field-independent basis, Debye-Ang):
   XX=            -88.1685   YY=           -107.7037   ZZ=            -97.6004
   XY=              6.1641   XZ=             -5.0633   YZ=             -2.3207

 Normal termination of Gaussian 16 at Wed May  5 16:13:40 2021.
