 Gaussian 16, Revision A.03,
 Gaussian 16:  EM64L-G16RevA.03 25-Dec-2016

 -------------
 #p 6-31g* mp2
 -------------

 ------------------------------------------------------
 Input file generated by CHIRIPA (05-May-2021 14:55:21)
 ------------------------------------------------------
 Symbolic Z-matrix:
 Charge =  0 Multiplicity = 1

                         Standard orientation:
 ---------------------------------------------------------------------
 Center     Atomic      Atomic             Coordinates (Angstroms)
 Number     Number       Type             X           Y           Z
 ---------------------------------------------------------------------
      1          6           0       -0.319387   -1.089700    0.533685
      2          6           0       -0.926792   -0.121543    1.340067
      3          6           0       -2.256597    0.251103    1.122580
      4          6           0       -2.952564   -0.367544    0.085182
      5          6           0       -2.375242   -1.335393   -0.735341
      6          6           0       -1.044273   -1.692472   -0.499624
      7          1           0        0.714090   -1.373133    0.709715
      8          1           0       -0.366264    0.348251    2.143278
      9          1           0       -2.751404    0.997749    1.731763
     10          1           0       -2.959591   -1.786078   -1.528334
     11          1           0       -0.575130   -2.444656   -1.127453
     12          7           0       -4.360986    0.018719   -0.154712
     13          8           0       -4.952532   -0.541193   -1.075151
     14          8           0       -4.846693    0.874071    0.582242
     15          6           0        4.205465    0.323716   -0.250077
     16          6           0        4.458672   -1.100044    0.246690
     17          6           0        5.910227   -1.542253    0.058982
     18          1           0        4.475232    0.387759   -1.313125
     19          1           0        4.872269    1.014905    0.283801
     20          1           0        3.790616   -1.788168   -0.286979
     21          1           0        4.188090   -1.160754    1.308629
     22          1           0        6.588686   -0.879148    0.605412
     23          1           0        6.188954   -1.510128   -0.999262
     24          1           0        6.068951   -2.562923    0.420784
     25          6           0        2.758860    0.780168   -0.069203
     26          6           0        2.505653    2.203928   -0.565970
     27          6           0        1.054098    2.646138   -0.378263
     28          1           0        2.092056    0.088980   -0.603082
     29          1           0        2.489093    0.716125    0.993844
     30          1           0        2.776235    2.264638   -1.627909
     31          1           0        3.173709    2.892052   -0.032301
     32          1           0        0.775371    2.614012    0.679981
     33          1           0        0.375639    1.983033   -0.924693
     34          1           0        0.895374    3.666807   -0.740065
 ---------------------------------------------------------------------

 SCF Done:  E(RHF) =  -669.534132711     A.U. after   15 cycles
 E2 =    -0.2093903498D+01 EUMP2 =    -0.67162803620953D+03

 The electronic state is 1-A.
 Alpha  occ. eigenvalues --  -20.60717 -20.60711 -15.85772 -11.31124 -11.27714
 Alpha  occ. eigenvalues --  -11.27696 -11.27363 -11.26710 -11.26681 -11.22607
 Alpha  occ. eigenvalues --  -11.22381 -11.22280 -11.22236 -11.21851 -11.21564
 Alpha  occ. eigenvalues --   -1.59794  -1.39347  -1.19307  -1.09332  -1.08688
 Alpha  occ. eigenvalues --   -1.04713  -1.04308  -0.96747  -0.95532  -0.87760
 Alpha  occ. eigenvalues --   -0.86106  -0.82375  -0.80396  -0.79213  -0.77416
 Alpha  occ. eigenvalues --   -0.71990  -0.71118  -0.70397  -0.65950  -0.64951
 Alpha  occ. eigenvalues --   -0.64719  -0.62075  -0.61692  -0.60123  -0.58399
 Alpha  occ. eigenvalues --   -0.56032  -0.55219  -0.53416  -0.53222  -0.52988
 Alpha  occ. eigenvalues --   -0.52793  -0.50684  -0.48752  -0.48746  -0.48677
 Alpha  occ. eigenvalues --   -0.47430  -0.46673  -0.46597  -0.44756  -0.44592
 Alpha  occ. eigenvalues --   -0.37190  -0.36293
 Alpha virt. eigenvalues --    0.05095   0.11252   0.16490   0.19838   0.22657
 Alpha virt. eigenvalues --    0.22910   0.24875   0.25540   0.26852   0.28142
 Alpha virt. eigenvalues --    0.29621   0.30400   0.31110   0.31450   0.31928

 Mulliken charges:
               1
     1  C   -0.170060
     2  C   -0.216187
     3  C   -0.171295
     4  C    0.157861
     5  C   -0.170686
     6  C   -0.222252
     7  H    0.231719
     8  H    0.222590
     9  H    0.275396
    10  H    0.275285
    11  H    0.222805
    12  N    0.488157
    13  O   -0.460819
    14  O   -0.460525
    15  C   -0.297506
    16  C   -0.301576
    17  C   -0.475791
    18  H    0.152925
    19  H    0.152668
    20  H    0.146437
    21  H    0.149692
    22  H    0.157940
    23  H    0.157548
    24  H    0.161739
    25  C   -0.302081
    26  C   -0.300092
    27  C   -0.475945
    28  H    0.149138
    29  H    0.141005
    30  H    0.154739
    31  H    0.153465
    32  H    0.148507
    33  H    0.161916
    34  H    0.163282
 Sum of Mulliken charges =  -0.00000

 Dipole moment (field-independent basis, Debye):
    X=              5.1144    Y=             -1.2844    Z=              0.7753  Tot=              5.3299
 Quadrupole moment (field-independent basis, Debye-Ang):
   XX=           -125.1406   YY=            -92.1071   ZZ=            -91.2202
   XY=              2.9611   XZ=             -1.7991   YZ=              2.6106

 Normal termination of Gaussian 16 at Thu May  6 19:09:04 2021.
