 Gaussian 16, Revision A.03,
 Gaussian 16:  EM64L-G16RevA.03 25-Dec-2016

 -------------
 #p 6-31g* mp2
 -------------

 ------------------------------------------------------
 Input file generated by CHIRIPA (05-May-2021 14:55:20)
 ------------------------------------------------------
 Symbolic Z-matrix:
 Charge =  0 Multiplicity = 1

                         Standard orientation:
 ---------------------------------------------------------------------
 Center     Atomic      Atomic             Coordinates (Angstroms)
 Number     Number       Type             X           Y           Z
 ---------------------------------------------------------------------
      1          6           0        2.792491    2.207760    1.362420
      2          6           0        3.503653    2.139400    0.159883
      3          6           0        3.395039    1.016901   -0.666402
      4          6           0        2.562428   -0.023684   -0.257462
      5          6           0        1.841064    0.014761    0.934783
      6          6           0        1.964925    1.147093    1.745357
      7          1           0        2.882786    3.083564    1.998196
      8          1           0        4.147099    2.961631   -0.140046
      9          1           0        3.934290    0.937802   -1.602549
     10          1           0        1.207527   -0.820654    1.207053
     11          1           0        1.411442    1.197439    2.678720
     12          7           0        2.439373   -1.217228   -1.123897
     13          8           0        1.699187   -2.120667   -0.741066
     14          8           0        3.085439   -1.226689   -2.169433
     15          6           0       -3.203067   -0.823550    0.605428
     16          6           0       -1.739337   -1.247626    0.730490
     17          6           0       -1.549824   -2.453390    1.651365
     18          1           0       -3.597020   -0.589637    1.603942
     19          1           0       -3.792024   -1.670778    0.227633
     20          1           0       -1.153083   -0.399426    1.106625
     21          1           0       -1.348770   -1.480373   -0.268460
     22          1           0       -2.109951   -3.316170    1.276573
     23          1           0       -1.913153   -2.229081    2.659471
     24          1           0       -0.496100   -2.739569    1.726375
     25          6           0       -3.408667    0.380602   -0.311892
     26          6           0       -4.872397    0.804677   -0.436953
     27          6           0       -5.061911    2.010441   -1.357828
     28          1           0       -2.819710    1.227830    0.065904
     29          1           0       -3.014715    0.146688   -1.310406
     30          1           0       -5.262965    1.037425    0.561996
     31          1           0       -5.458652   -0.043523   -0.813089
     32          1           0       -4.698582    1.786132   -2.365935
     33          1           0       -4.501783    2.873220   -0.983037
     34          1           0       -6.115636    2.296620   -1.432839
 ---------------------------------------------------------------------

 SCF Done:  E(RHF) =  -669.535316685     A.U. after   15 cycles
 E2 =    -0.2092817842D+01 EUMP2 =    -0.67162813452669D+03

 The electronic state is 1-A.
 Alpha  occ. eigenvalues --  -20.60838 -20.60832 -15.85871 -11.31177 -11.27771
 Alpha  occ. eigenvalues --  -11.27709 -11.27512 -11.26770 -11.26757 -11.21571
 Alpha  occ. eigenvalues --  -11.21470 -11.21345 -11.21282 -11.21058 -11.20971
 Alpha  occ. eigenvalues --   -1.59899  -1.39455  -1.19365  -1.08770  -1.08373
 Alpha  occ. eigenvalues --   -1.04767  -1.03476  -0.95937  -0.95603  -0.86937
 Alpha  occ. eigenvalues --   -0.86165  -0.82447  -0.79555  -0.78227  -0.77462
 Alpha  occ. eigenvalues --   -0.72096  -0.71212  -0.70489  -0.65077  -0.64971
 Alpha  occ. eigenvalues --   -0.64766  -0.62187  -0.60847  -0.59260  -0.57527
 Alpha  occ. eigenvalues --   -0.55291  -0.55179  -0.53100  -0.52878  -0.52581
 Alpha  occ. eigenvalues --   -0.52329  -0.49862  -0.48854  -0.48847  -0.47862
 Alpha  occ. eigenvalues --   -0.46563  -0.45745  -0.45653  -0.44815  -0.43722
 Alpha  occ. eigenvalues --   -0.37348  -0.36334
 Alpha virt. eigenvalues --    0.04995   0.11272   0.16430   0.20659   0.23021
 Alpha virt. eigenvalues --    0.23983   0.26459   0.26581   0.27462   0.27878
 Alpha virt. eigenvalues --    0.29355   0.30265   0.31581   0.31660   0.32062

 Mulliken charges:
               1
     1  C   -0.169952
     2  C   -0.219127
     3  C   -0.170047
     4  C    0.154142
     5  C   -0.171342
     6  C   -0.223467
     7  H    0.225597
     8  H    0.223397
     9  H    0.275504
    10  H    0.288731
    11  H    0.223856
    12  N    0.488128
    13  O   -0.462429
    14  O   -0.459691
    15  C   -0.297754
    16  C   -0.306918
    17  C   -0.481457
    18  H    0.146510
    19  H    0.151933
    20  H    0.138380
    21  H    0.170041
    22  H    0.161100
    23  H    0.149740
    24  H    0.165671
    25  C   -0.298340
    26  C   -0.299575
    27  C   -0.475614
    28  H    0.146379
    29  H    0.152860
    30  H    0.150554
    31  H    0.153136
    32  H    0.156480
    33  H    0.153504
    34  H    0.160072
 Sum of Mulliken charges =  -0.00000

 Dipole moment (field-independent basis, Debye):
    X=              0.4608    Y=              4.0944    Z=              2.9174  Tot=              5.0485
 Quadrupole moment (field-independent basis, Debye-Ang):
   XX=            -91.1677   YY=            -94.7589   ZZ=            -94.5864
   XY=             13.0366   XZ=              5.5344   YZ=             -1.4613

 Normal termination of Gaussian 16 at Thu May  6 06:08:44 2021.
