 Gaussian 16, Revision A.03,
 Gaussian 16:  EM64L-G16RevA.03 25-Dec-2016

 -------------
 #p 6-31g* mp2
 -------------

 ------------------------------------------------------
 Input file generated by CHIRIPA (05-May-2021 14:53:16)
 ------------------------------------------------------
 Symbolic Z-matrix:
 Charge =  0 Multiplicity = 1

                         Standard orientation:
 ---------------------------------------------------------------------
 Center     Atomic      Atomic             Coordinates (Angstroms)
 Number     Number       Type             X           Y           Z
 ---------------------------------------------------------------------
      1          6           0        2.909256   -0.258863    0.101903
      2          6           0        3.418032   -1.063591   -1.094569
      3          6           0        3.498646   -2.563158   -0.807175
      4          1           0        3.570753   -0.433889    0.961399
      5          1           0        1.916705   -0.631743    0.390346
      6          1           0        4.408731   -0.688387   -1.381538
      7          1           0        2.755356   -0.886479   -1.951370
      8          1           0        2.512572   -2.958175   -0.542183
      9          1           0        4.175342   -2.758957    0.030886
     10          1           0        3.864664   -3.119304   -1.675847
     11          6           0        2.823130    1.241942   -0.169932
     12          6           0        2.314354    2.046670    1.026540
     13          6           0        2.233739    3.546236    0.739146
     14          1           0        3.815681    1.614821   -0.458374
     15          1           0        2.161633    1.416968   -1.029427
     16          1           0        2.977030    1.869558    1.883341
     17          1           0        1.323654    1.671466    1.313510
     18          1           0        1.557043    3.742036   -0.098915
     19          1           0        3.219813    3.941254    0.474155
     20          1           0        1.867721    4.102383    1.607819
     21          6           0       -1.022094   -1.994843    1.539774
     22          6           0       -0.631981   -1.859031    0.203404
     23          6           0       -1.299157   -0.969578   -0.644121
     24          6           0       -2.356879   -0.228287   -0.119717
     25          6           0       -2.769159   -0.341224    1.207144
     26          6           0       -2.087559   -1.236843    2.036504
     27          1           0       -0.498213   -2.688187    2.191097
     28          1           0        0.195119   -2.446416   -0.185092
     29          1           0       -1.017968   -0.844694   -1.682753
     30          1           0       -3.597383    0.257880    1.565666
     31          1           0       -2.392708   -1.340247    3.073922
     32          7           0       -3.070824    0.716602   -1.007338
     33          8           0       -3.999530    1.358224   -0.521066
     34          8           0       -2.688187    0.797690   -2.172521
 ---------------------------------------------------------------------

 SCF Done:  E(RHF) =  -669.534742075     A.U. after   15 cycles
 E2 =    -0.2093534658D+01 EUMP2 =    -0.67162827673280D+03

 The electronic state is 1-A.
 Alpha  occ. eigenvalues --  -20.60841 -20.60836 -15.85895 -11.31287 -11.27857
 Alpha  occ. eigenvalues --  -11.27845 -11.27588 -11.26863 -11.26846 -11.22224
 Alpha  occ. eigenvalues --  -11.21977 -11.21770 -11.21750 -11.21610 -11.21089
 Alpha  occ. eigenvalues --   -1.59916  -1.39469  -1.19464  -1.08876  -1.08794
 Alpha  occ. eigenvalues --   -1.04873  -1.03943  -0.96393  -0.95677  -0.87412
 Alpha  occ. eigenvalues --   -0.86270  -0.82515  -0.80016  -0.78600  -0.77554
 Alpha  occ. eigenvalues --   -0.72112  -0.71240  -0.70552  -0.65599  -0.65109
 Alpha  occ. eigenvalues --   -0.64800  -0.62264  -0.61282  -0.59777  -0.57991
 Alpha  occ. eigenvalues --   -0.55739  -0.55346  -0.53240  -0.53075  -0.52992
 Alpha  occ. eigenvalues --   -0.52773  -0.50359  -0.48879  -0.48866  -0.48312
 Alpha  occ. eigenvalues --   -0.47041  -0.46131  -0.46025  -0.44868  -0.44159
 Alpha  occ. eigenvalues --   -0.37413  -0.36409
 Alpha virt. eigenvalues --    0.04972   0.11082   0.16396   0.19435   0.22962
 Alpha virt. eigenvalues --    0.23789   0.25774   0.26231   0.27536   0.28476
 Alpha virt. eigenvalues --    0.28706   0.30199   0.31208   0.31613   0.32183

 Mulliken charges:
               1
     1  C   -0.306686
     2  C   -0.301293
     3  C   -0.477431
     4  H    0.148707
     5  H    0.152628
     6  H    0.156516
     7  H    0.150852
     8  H    0.142771
     9  H    0.158628
    10  H    0.164774
    11  C   -0.298142
    12  C   -0.300591
    13  C   -0.476527
    14  H    0.150368
    15  H    0.152133
    16  H    0.150152
    17  H    0.153307
    18  H    0.159395
    19  H    0.154969
    20  H    0.160625
    21  C   -0.173388
    22  C   -0.223764
    23  C   -0.173980
    24  C    0.158885
    25  C   -0.170876
    26  C   -0.218326
    27  H    0.227052
    28  H    0.235098
    29  H    0.276326
    30  H    0.276035
    31  H    0.224077
    32  N    0.488042
    33  O   -0.460031
    34  O   -0.460310
 Sum of Mulliken charges =  -0.00000

 Dipole moment (field-independent basis, Debye):
    X=              2.5108    Y=             -3.2572    Z=              3.1306  Tot=              5.1686
 Quadrupole moment (field-independent basis, Debye-Ang):
   XX=           -104.1317   YY=            -94.7506   ZZ=            -92.7637
   XY=              6.7113   XZ=            -10.2561   YZ=              0.7595

 Normal termination of Gaussian 16 at Wed May  5 15:40:11 2021.
