 Gaussian 16, Revision A.03,
 Gaussian 16:  EM64L-G16RevA.03 25-Dec-2016

 -------------
 #p 6-31g* mp2
 -------------

 ------------------------------------------------------
 Input file generated by CHIRIPA (05-May-2021 14:51:09)
 ------------------------------------------------------
 Symbolic Z-matrix:
 Charge =  0 Multiplicity = 1

                         Standard orientation:
 ---------------------------------------------------------------------
 Center     Atomic      Atomic             Coordinates (Angstroms)
 Number     Number       Type             X           Y           Z
 ---------------------------------------------------------------------
      1          6           0        3.131997    1.262001   -0.178795
      2          6           0        1.720899    1.657755    0.257284
      3          6           0        1.491921    3.168977    0.217651
      4          1           0        3.863428    1.762272    0.470577
      5          1           0        3.311626    1.634430   -1.196844
      6          1           0        1.543488    1.283493    1.273684
      7          1           0        0.992737    1.156332   -0.393080
      8          1           0        1.641891    3.554884   -0.795851
      9          1           0        2.195771    3.682767    0.880384
     10          1           0        0.476853    3.429634    0.533175
     11          6           0        3.376230   -0.245613   -0.144478
     12          6           0        4.787329   -0.641367   -0.580556
     13          6           0        5.016307   -2.152589   -0.540924
     14          1           0        3.196602   -0.618042    0.873572
     15          1           0        2.644800   -0.745884   -0.793849
     16          1           0        5.515490   -0.139945    0.069807
     17          1           0        4.964739   -0.267106   -1.596957
     18          1           0        4.312456   -2.666380   -1.203657
     19          1           0        4.866337   -2.538497    0.472578
     20          1           0        6.031374   -2.413247   -0.856448
     21          6           0       -3.742767   -0.400972   -0.415559
     22          6           0       -5.158218   -0.051494    0.045252
     23          6           0       -6.124234    0.160015   -1.120883
     24          1           0       -3.366492    0.401858   -1.064270
     25          1           0       -3.779284   -1.309776   -1.032111
     26          1           0       -5.118861    0.855599    0.661896
     27          1           0       -5.531094   -0.855158    0.693096
     28          1           0       -6.193135   -0.745021   -1.733062
     29          1           0       -5.778560    0.975457   -1.764440
     30          1           0       -7.130207    0.408841   -0.768797
     31          6           0       -2.765461   -0.615415    0.738831
     32          6           0       -1.350009   -0.964894    0.278021
     33          6           0       -0.383994   -1.176403    1.444156
     34          1           0       -2.728944    0.293389    1.355384
     35          1           0       -3.141736   -1.418245    1.387543
     36          1           0       -0.977134   -0.161229   -0.369823
     37          1           0       -1.389367   -1.871987   -0.338624
     38          1           0       -0.729668   -1.991844    2.087712
     39          1           0       -0.315093   -0.271366    2.056335
     40          1           0        0.621979   -1.425228    1.092070
 ---------------------------------------------------------------------

 SCF Done:  E(RHF) =  -470.732032881     A.U. after   11 cycles
 E2 =    -0.1584459100D+01 EUMP2 =    -0.47231649198023D+03

 The electronic state is 1-A.
 Alpha  occ. eigenvalues --  -11.21617 -11.21589 -11.21533 -11.21528 -11.21419
 Alpha  occ. eigenvalues --  -11.21379 -11.21355 -11.21317 -11.21085 -11.21075
 Alpha  occ. eigenvalues --  -11.21063 -11.20920  -1.08467  -1.08374  -1.03578
 Alpha  occ. eigenvalues --   -1.03445  -0.95991  -0.95936  -0.87013  -0.86949
 Alpha  occ. eigenvalues --   -0.79613  -0.79560  -0.78289  -0.78201  -0.65104
 Alpha  occ. eigenvalues --   -0.65009  -0.60993  -0.60887  -0.59410  -0.59239
 Alpha  occ. eigenvalues --   -0.57664  -0.57492  -0.55281  -0.55231  -0.52771
 Alpha  occ. eigenvalues --   -0.52558  -0.52436  -0.52316  -0.50041  -0.49817
 Alpha  occ. eigenvalues --   -0.48058  -0.47708  -0.46973  -0.46367  -0.45911
 Alpha  occ. eigenvalues --   -0.45766  -0.45655  -0.45382  -0.43798  -0.43692
 Alpha virt. eigenvalues --    0.21420   0.23065   0.23777   0.24416   0.25479
 Alpha virt. eigenvalues --    0.26330   0.26591   0.27807   0.27950   0.29406
 Alpha virt. eigenvalues --    0.30414   0.30683   0.31659   0.32085   0.32285

 Mulliken charges:
               1
     1  C   -0.297371
     2  C   -0.307555
     3  C   -0.475391
     4  H    0.149429
     5  H    0.149107
     6  H    0.156375
     7  H    0.157474
     8  H    0.154817
     9  H    0.155138
    10  H    0.159237
    11  C   -0.301485
    12  C   -0.299250
    13  C   -0.475903
    14  H    0.151456
    15  H    0.150239
    16  H    0.152071
    17  H    0.151999
    18  H    0.155134
    19  H    0.155242
    20  H    0.160409
    21  C   -0.298310
    22  C   -0.299596
    23  C   -0.475694
    24  H    0.149349
    25  H    0.149414
    26  H    0.151868
    27  H    0.151955
    28  H    0.155134
    29  H    0.155116
    30  H    0.160217
    31  C   -0.297815
    32  C   -0.304271
    33  C   -0.480253
    34  H    0.149308
    35  H    0.149617
    36  H    0.155507
    37  H    0.151295
    38  H    0.153617
    39  H    0.155683
    40  H    0.166687
 Sum of Mulliken charges =  -0.00000

 Dipole moment (field-independent basis, Debye):
    X=              0.0382    Y=             -0.0020    Z=              0.0044  Tot=              0.0385
 Quadrupole moment (field-independent basis, Debye-Ang):
   XX=            -85.4509   YY=            -85.0762   ZZ=            -84.3977
   XY=              0.7043   XZ=             -0.2338   YZ=              0.1973

 Normal termination of Gaussian 16 at Wed May  5 22:59:05 2021.
