 Gaussian 16, Revision A.03,
 Gaussian 16:  EM64L-G16RevA.03 25-Dec-2016

 -------------
 #p 6-31g* mp2
 -------------

 ------------------------------------------------------
 Input file generated by CHIRIPA (05-May-2021 14:53:16)
 ------------------------------------------------------
 Symbolic Z-matrix:
 Charge =  0 Multiplicity = 1

                         Standard orientation:
 ---------------------------------------------------------------------
 Center     Atomic      Atomic             Coordinates (Angstroms)
 Number     Number       Type             X           Y           Z
 ---------------------------------------------------------------------
      1          6           0       -2.317893   -0.645032   -0.185003
      2          6           0       -3.401938   -1.600597    0.314727
      3          6           0       -2.909612   -3.043331    0.432743
      4          1           0       -1.955044   -0.991262   -1.162454
      5          1           0       -1.459232   -0.685597    0.499431
      6          1           0       -4.258858   -1.557209   -0.369687
      7          1           0       -3.762383   -1.251944    1.291014
      8          1           0       -2.068967   -3.107600    1.131159
      9          1           0       -2.568262   -3.414600   -0.538977
     10          1           0       -3.700510   -3.709331    0.791608
     11          6           0       -2.794857    0.801014   -0.308220
     12          6           0       -1.710813    1.756579   -0.807950
     13          6           0       -2.203138    3.199313   -0.925966
     14          1           0       -3.653519    0.841580   -0.992654
     15          1           0       -3.157706    1.147245    0.669230
     16          1           0       -1.350367    1.407926   -1.784237
     17          1           0       -0.853893    1.713191   -0.123536
     18          1           0       -2.544489    3.570583    0.045754
     19          1           0       -3.043784    3.263583   -1.624382
     20          1           0       -1.412240    3.865313   -1.284831
     21          6           0        1.465037    2.101671    1.378378
     22          6           0        1.096538    0.880087    1.951496
     23          6           0        1.386269   -0.324338    1.303448
     24          6           0        2.048613   -0.270003    0.078035
     25          6           0        2.428765    0.931169   -0.518590
     26          6           0        2.128804    2.123275    0.147336
     27          1           0        1.235993    3.032511    1.888741
     28          1           0        0.580952    0.860275    2.907438
     29          1           0        1.112465   -1.284095    1.724536
     30          1           0        2.941736    0.918943   -1.472597
     31          1           0        2.416190    3.070499   -0.300124
     32          7           0        2.360753   -1.538552   -0.617487
     33          8           0        2.945115   -1.463688   -1.696168
     34          8           0        2.015136   -2.583686   -0.070786
 ---------------------------------------------------------------------

 SCF Done:  E(RHF) =  -669.534088129     A.U. after   15 cycles
 E2 =    -0.2095591426D+01 EUMP2 =    -0.67162967955568D+03

 The electronic state is 1-A.
 Alpha  occ. eigenvalues --  -20.60845 -20.60838 -15.85899 -11.31322 -11.27908
 Alpha  occ. eigenvalues --  -11.27892 -11.27614 -11.26910 -11.26892 -11.21539
 Alpha  occ. eigenvalues --  -11.21532 -11.21432 -11.21354 -11.21303 -11.20864
 Alpha  occ. eigenvalues --   -1.59917  -1.39469  -1.19516  -1.08897  -1.08432
 Alpha  occ. eigenvalues --   -1.04918  -1.03539  -0.96008  -0.95710  -0.87015
 Alpha  occ. eigenvalues --   -0.86304  -0.82540  -0.79602  -0.78260  -0.77576
 Alpha  occ. eigenvalues --   -0.72117  -0.71237  -0.70606  -0.65163  -0.65112
 Alpha  occ. eigenvalues --   -0.64900  -0.62257  -0.60976  -0.59401  -0.57613
 Alpha  occ. eigenvalues --   -0.55409  -0.55302  -0.53427  -0.52998  -0.52654
 Alpha  occ. eigenvalues --   -0.52415  -0.49948  -0.48881  -0.48869  -0.47893
 Alpha  occ. eigenvalues --   -0.46635  -0.45763  -0.45616  -0.44853  -0.43790
 Alpha  occ. eigenvalues --   -0.37397  -0.36468
 Alpha virt. eigenvalues --    0.04918   0.11065   0.16361   0.20925   0.23052
 Alpha virt. eigenvalues --    0.23893   0.26319   0.27118   0.27559   0.27909
 Alpha virt. eigenvalues --    0.28568   0.30598   0.31228   0.31881   0.31924

 Mulliken charges:
               1
     1  C   -0.301727
     2  C   -0.299952
     3  C   -0.474752
     4  H    0.153193
     5  H    0.147916
     6  H    0.152238
     7  H    0.147945
     8  H    0.153987
     9  H    0.160833
    10  H    0.159274
    11  C   -0.296532
    12  C   -0.310218
    13  C   -0.474801
    14  H    0.149762
    15  H    0.144588
    16  H    0.151884
    17  H    0.163902
    18  H    0.150920
    19  H    0.157149
    20  H    0.154719
    21  C   -0.175402
    22  C   -0.217938
    23  C   -0.170660
    24  C    0.161893
    25  C   -0.169952
    26  C   -0.214810
    27  H    0.226948
    28  H    0.224387
    29  H    0.276326
    30  H    0.276317
    31  H    0.224451
    32  N    0.488197
    33  O   -0.460220
    34  O   -0.459865
 Sum of Mulliken charges =  -0.00000

 Dipole moment (field-independent basis, Debye):
    X=             -0.9047    Y=              4.3743    Z=              2.4275  Tot=              5.0839
 Quadrupole moment (field-independent basis, Debye-Ang):
   XX=            -99.3028   YY=            -97.5954   ZZ=            -90.9849
   XY=             11.4336   XZ=              3.5308   YZ=             -1.9539

 Normal termination of Gaussian 16 at Wed May  5 21:56:10 2021.
