 Gaussian 16, Revision A.03,
 Gaussian 16:  EM64L-G16RevA.03 25-Dec-2016

 -------------
 #p 6-31g* mp2
 -------------

 ------------------------------------------------------
 Input file generated by CHIRIPA (05-May-2021 14:53:17)
 ------------------------------------------------------
 Symbolic Z-matrix:
 Charge =  0 Multiplicity = 1

                         Standard orientation:
 ---------------------------------------------------------------------
 Center     Atomic      Atomic             Coordinates (Angstroms)
 Number     Number       Type             X           Y           Z
 ---------------------------------------------------------------------
      1          6           0       -4.104380   -0.226040    0.606239
      2          6           0       -2.936932   -1.080595    0.111480
      3          6           0       -1.823510   -1.218648    1.150243
      4          1           0       -3.730986    0.770184    0.880209
      5          1           0       -4.511704   -0.670679    1.524813
      6          1           0       -2.532816   -0.635241   -0.806652
      7          1           0       -3.313181   -2.074839   -0.161525
      8          1           0       -2.205402   -1.683760    2.064808
      9          1           0       -1.420604   -0.235982    1.416016
     10          1           0       -0.999054   -1.833379    0.775759
     11          6           0       -5.225387   -0.078745   -0.421076
     12          6           0       -6.392835    0.775811    0.073683
     13          6           0       -7.506256    0.913864   -0.965079
     14          1           0       -4.818063    0.365895   -1.339650
     15          1           0       -5.598781   -1.074969   -0.695046
     16          1           0       -6.016586    1.770055    0.346688
     17          1           0       -6.796950    0.330457    0.991815
     18          1           0       -7.909163   -0.068802   -1.230853
     19          1           0       -7.124365    1.378976   -1.879645
     20          1           0       -8.330713    1.528595   -0.590596
     21          6           0        3.354664   -2.375109   -0.319503
     22          6           0        2.308815   -1.595526    0.185445
     23          6           0        2.458216   -0.212678    0.326725
     24          6           0        3.672455    0.360183   -0.048434
     25          6           0        4.733024   -0.389622   -0.554669
     26          6           0        4.561303   -1.770735   -0.687301
     27          1           0        3.229937   -3.448663   -0.425894
     28          1           0        1.370610   -2.062183    0.471888
     29          1           0        1.664936    0.414594    0.714865
     30          1           0        5.656544    0.104110   -0.831718
     31          1           0        5.375240   -2.373679   -1.079741
     32          7           0        3.842433    1.823223    0.096555
     33          8           0        4.922081    2.303814   -0.241129
     34          8           0        2.892796    2.461660    0.545136
 ---------------------------------------------------------------------

 SCF Done:  E(RHF) =  -669.535558233     A.U. after   15 cycles
 E2 =    -0.2090874774D+01 EUMP2 =    -0.67162643300691D+03

 The electronic state is 1-A.
 Alpha  occ. eigenvalues --  -20.60731 -20.60725 -15.85783 -11.31133 -11.27706
 Alpha  occ. eigenvalues --  -11.27686 -11.27444 -11.26721 -11.26680 -11.22201
 Alpha  occ. eigenvalues --  -11.21999 -11.21792 -11.21773 -11.21644 -11.21212
 Alpha  occ. eigenvalues --   -1.59806  -1.39360  -1.19304  -1.08809  -1.08704
 Alpha  occ. eigenvalues --   -1.04704  -1.03963  -0.96436  -0.95541  -0.87463
 Alpha  occ. eigenvalues --   -0.86105  -0.82373  -0.80031  -0.78581  -0.77421
 Alpha  occ. eigenvalues --   -0.72002  -0.71129  -0.70416  -0.65430  -0.64956
 Alpha  occ. eigenvalues --   -0.64736  -0.62101  -0.61342  -0.59828  -0.58025
 Alpha  occ. eigenvalues --   -0.55707  -0.55213  -0.53288  -0.53036  -0.52919
 Alpha  occ. eigenvalues --   -0.52602  -0.50358  -0.48760  -0.48757  -0.48340
 Alpha  occ. eigenvalues --   -0.47036  -0.46135  -0.46028  -0.44769  -0.44210
 Alpha  occ. eigenvalues --   -0.37290  -0.36305
 Alpha virt. eigenvalues --    0.05110   0.11340   0.16594   0.19821   0.22700
 Alpha virt. eigenvalues --    0.23835   0.25840   0.25959   0.26707   0.27699
 Alpha virt. eigenvalues --    0.29020   0.29436   0.31230   0.31636   0.32334

 Mulliken charges:
               1
     1  C   -0.299708
     2  C   -0.298979
     3  C   -0.482139
     4  H    0.152803
     5  H    0.150235
     6  H    0.154254
     7  H    0.152652
     8  H    0.160002
     9  H    0.158220
    10  H    0.150917
    11  C   -0.298787
    12  C   -0.300184
    13  C   -0.475994
    14  H    0.150900
    15  H    0.149417
    16  H    0.153679
    17  H    0.152061
    18  H    0.154909
    19  H    0.155974
    20  H    0.161299
    21  C   -0.171941
    22  C   -0.224123
    23  C   -0.174127
    24  C    0.158685
    25  C   -0.171038
    26  C   -0.218578
    27  H    0.225811
    28  H    0.231796
    29  H    0.276713
    30  H    0.275358
    31  H    0.223135
    32  N    0.488136
    33  O   -0.460664
    34  O   -0.460695
 Sum of Mulliken charges =  -0.00000

 Dipole moment (field-independent basis, Debye):
    X=             -0.7968    Y=             -5.1171    Z=             -0.5068  Tot=              5.2035
 Quadrupole moment (field-independent basis, Debye-Ang):
   XX=            -94.8551   YY=            -98.5202   ZZ=            -95.0902
   XY=            -19.2716   XZ=             -4.6206   YZ=              0.0553

 Normal termination of Gaussian 16 at Thu May  6 05:58:20 2021.
