 Gaussian 16, Revision A.03,
 Gaussian 16:  EM64L-G16RevA.03 25-Dec-2016

 -------------
 #p 6-31g* mp2
 -------------

 ------------------------------------------------------
 Input file generated by CHIRIPA (05-May-2021 14:51:09)
 ------------------------------------------------------
 Symbolic Z-matrix:
 Charge =  0 Multiplicity = 1

                         Standard orientation:
 ---------------------------------------------------------------------
 Center     Atomic      Atomic             Coordinates (Angstroms)
 Number     Number       Type             X           Y           Z
 ---------------------------------------------------------------------
      1          6           0       -2.185601    0.394199    0.012191
      2          6           0       -3.511305    0.011423   -0.646578
      3          6           0       -3.788902   -1.490973   -0.587084
      4          1           0       -1.368270   -0.150895   -0.479529
      5          1           0       -2.195901    0.063499    1.060011
      6          1           0       -3.499051    0.343976   -1.692463
      7          1           0       -4.325554    0.557637   -0.153359
      8          1           0       -3.828019   -1.834666    0.451639
      9          1           0       -2.996820   -2.049541   -1.096210
     10          1           0       -4.741504   -1.742406   -1.063730
     11          6           0       -1.894012    1.892883   -0.039274
     12          6           0       -0.568308    2.275659    0.619495
     13          6           0       -0.290711    3.778055    0.560001
     14          1           0       -1.883712    2.223582   -1.087094
     15          1           0       -2.711343    2.437977    0.452446
     16          1           0        0.245941    1.729445    0.126275
     17          1           0       -0.580563    1.943106    1.665380
     18          1           0       -1.082793    4.336622    1.069127
     19          1           0       -0.251594    4.121748   -0.478722
     20          1           0        0.661891    4.029488    1.036647
     21          6           0        1.567852   -1.703547   -0.203445
     22          6           0        0.810903   -2.343736    0.960675
     23          6           0       -0.129278   -3.462359    0.510636
     24          1           0        0.844490   -1.306830   -0.928915
     25          1           0        2.143464   -2.478756   -0.727963
     26          1           0        0.237980   -1.567309    1.483682
     27          1           0        1.536151   -2.738806    1.683552
     28          1           0        0.430769   -4.257184    0.007444
     29          1           0       -0.874777   -3.079031   -0.193560
     30          1           0       -0.660215   -3.906026    1.358648
     31          6           0        2.511762   -0.583534    0.230527
     32          6           0        3.268710    0.056654   -0.933592
     33          6           0        4.208892    1.175277   -0.483552
     34          1           0        1.936149    0.191674    0.755046
     35          1           0        3.235123   -0.980252    0.955998
     36          1           0        2.543462    0.451724   -1.656468
     37          1           0        3.841634   -0.719773   -1.456599
     38          1           0        4.954391    0.791950    0.220643
     39          1           0        3.648843    1.970103    0.019638
     40          1           0        4.739828    1.618944   -1.331565
 ---------------------------------------------------------------------

 SCF Done:  E(RHF) =  -470.732346101     A.U. after   11 cycles
 E2 =    -0.1585921041D+01 EUMP2 =    -0.47231826714173D+03

 The electronic state is 1-A.
 Alpha  occ. eigenvalues --  -11.21693 -11.21669 -11.21604 -11.21507 -11.21491
 Alpha  occ. eigenvalues --  -11.21431 -11.21360 -11.21286 -11.21154 -11.21117
 Alpha  occ. eigenvalues --  -11.21071 -11.20971  -1.08555  -1.08366  -1.03630
 Alpha  occ. eigenvalues --   -1.03474  -0.96064  -0.95935  -0.87107  -0.86926
 Alpha  occ. eigenvalues --   -0.79696  -0.79553  -0.78377  -0.78190  -0.65420
 Alpha  occ. eigenvalues --   -0.64790  -0.61180  -0.60768  -0.59412  -0.59307
 Alpha  occ. eigenvalues --   -0.57733  -0.57510  -0.55432  -0.55160  -0.52748
 Alpha  occ. eigenvalues --   -0.52641  -0.52529  -0.52347  -0.50158  -0.49688
 Alpha  occ. eigenvalues --   -0.48160  -0.47751  -0.46774  -0.46665  -0.46220
 Alpha  occ. eigenvalues --   -0.45884  -0.45446  -0.45248  -0.43862  -0.43739
 Alpha virt. eigenvalues --    0.19499   0.21609   0.23740   0.24508   0.25604
 Alpha virt. eigenvalues --    0.25648   0.26280   0.28126   0.29105   0.29533
 Alpha virt. eigenvalues --    0.30924   0.31240   0.31590   0.32263   0.32276

 Mulliken charges:
               1
     1  C   -0.306168
     2  C   -0.299651
     3  C   -0.478652
     4  H    0.156433
     5  H    0.150534
     6  H    0.151886
     7  H    0.152299
     8  H    0.156211
     9  H    0.157803
    10  H    0.160699
    11  C   -0.297588
    12  C   -0.307279
    13  C   -0.475498
    14  H    0.149498
    15  H    0.150182
    16  H    0.158829
    17  H    0.151887
    18  H    0.155708
    19  H    0.155501
    20  H    0.160309
    21  C   -0.301107
    22  C   -0.301640
    23  C   -0.480404
    24  H    0.150054
    25  H    0.149721
    26  H    0.155362
    27  H    0.151555
    28  H    0.154389
    29  H    0.160145
    30  H    0.159825
    31  C   -0.304594
    32  C   -0.300198
    33  C   -0.475911
    34  H    0.155915
    35  H    0.150018
    36  H    0.150952
    37  H    0.152163
    38  H    0.155363
    39  H    0.155242
    40  H    0.160203
 Sum of Mulliken charges =  -0.00000

 Dipole moment (field-independent basis, Debye):
    X=             -0.0506    Y=              0.0328    Z=              0.0123  Tot=              0.0616
 Quadrupole moment (field-independent basis, Debye-Ang):
   XX=            -84.5721   YY=            -86.1744   ZZ=            -83.9975
   XY=             -1.4897   XZ=             -0.4634   YZ=             -0.1263

 Normal termination of Gaussian 16 at Wed May  5 21:22:02 2021.
