 Gaussian 16, Revision A.03,
 Gaussian 16:  EM64L-G16RevA.03 25-Dec-2016

 -------------
 #p 6-31g* mp2
 -------------

 ------------------------------------------------------
 Input file generated by CHIRIPA (05-May-2021 14:57:21)
 ------------------------------------------------------
 Symbolic Z-matrix:
 Charge =  0 Multiplicity = 1

                         Standard orientation:
 ---------------------------------------------------------------------
 Center     Atomic      Atomic             Coordinates (Angstroms)
 Number     Number       Type             X           Y           Z
 ---------------------------------------------------------------------
      1          6           0       -2.763615    2.415419    1.232089
      2          6           0       -2.032359    1.315454    1.692376
      3          6           0       -2.136837    0.076019    1.054073
      4          6           0       -2.985849   -0.028294   -0.046649
      5          6           0       -3.727398    1.049066   -0.529029
      6          6           0       -3.607314    2.278954    0.124808
      7          1           0       -2.676392    3.374534    1.733972
      8          1           0       -1.376353    1.418507    2.552075
      9          1           0       -1.582176   -0.791915    1.389425
     10          1           0       -4.373137    0.915492   -1.388446
     11          1           0       -4.176418    3.131484   -0.234857
     12          7           0       -3.104716   -1.335376   -0.730614
     13          8           0       -3.859620   -1.401233   -1.698302
     14          8           0       -2.440730   -2.269258   -0.286067
     15          6           0        1.896610   -2.049922    1.257471
     16          6           0        1.492346   -1.805050   -0.059013
     17          6           0        2.078076   -0.775598   -0.801777
     18          6           0        3.069668   -0.007041   -0.194033
     19          6           0        3.494020   -0.226331    1.115596
     20          6           0        2.894398   -1.261171    1.839547
     21          1           0        1.436205   -2.851717    1.827161
     22          1           0        0.717684   -2.416004   -0.513633
     23          1           0        1.784144   -0.564249   -1.822735
     24          1           0        4.268706    0.399553    1.541683
     25          1           0        3.210350   -1.449059    2.861760
     26          7           0        3.697107    1.085646   -0.970406
     27          8           0        4.568620    1.748517   -0.412102
     28          8           0        3.305501    1.258532   -2.122531
 ---------------------------------------------------------------------

 SCF Done:  E(RHF) =  -868.339854521     A.U. after   16 cycles
 E2 =    -0.2599493473D+01 EUMP2 =    -0.87093934799333D+03

 The electronic state is 1-A.
 Alpha  occ. eigenvalues --  -20.61485 -20.61413 -20.60800 -20.60788 -15.86482
 Alpha  occ. eigenvalues --  -15.85844 -11.31590 -11.31176 -11.28155 -11.28112
 Alpha  occ. eigenvalues --  -11.27811 -11.27748 -11.27639 -11.27408 -11.27091
 Alpha  occ. eigenvalues --  -11.27062 -11.26782 -11.26538  -1.60514  -1.59874
 Alpha  occ. eigenvalues --   -1.40078  -1.39427  -1.19739  -1.19323  -1.09177
 Alpha  occ. eigenvalues --   -1.08722  -1.05104  -1.04692  -0.96056  -0.95567
 Alpha  occ. eigenvalues --   -0.86516  -0.86080  -0.82903  -0.82379  -0.77988
 Alpha  occ. eigenvalues --   -0.77434  -0.72712  -0.72060  -0.71824  -0.71198
 Alpha  occ. eigenvalues --   -0.70844  -0.70410  -0.65398  -0.65108  -0.64954
 Alpha  occ. eigenvalues --   -0.64629  -0.62466  -0.62003  -0.55606  -0.55179
 Alpha  occ. eigenvalues --   -0.53455  -0.53237  -0.53009  -0.52734  -0.49478
 Alpha  occ. eigenvalues --   -0.49431  -0.48821  -0.48813  -0.45532  -0.44840
 Alpha  occ. eigenvalues --   -0.37701  -0.37331  -0.36726  -0.36258
 Alpha virt. eigenvalues --    0.04507   0.05044   0.10880   0.11370   0.16036
 Alpha virt. eigenvalues --    0.16548   0.20935   0.21751   0.26769   0.27399
 Alpha virt. eigenvalues --    0.28015   0.28684   0.30770   0.31280   0.31992

 Mulliken charges:
               1
     1  C   -0.169222
     2  C   -0.217892
     3  C   -0.169052
     4  C    0.156858
     5  C   -0.170119
     6  C   -0.218069
     7  H    0.228121
     8  H    0.224158
     9  H    0.270338
    10  H    0.276497
    11  H    0.225722
    12  N    0.488945
    13  O   -0.455510
    14  O   -0.470643
    15  C   -0.178983
    16  C   -0.225822
    17  C   -0.173233
    18  C    0.158434
    19  C   -0.173586
    20  C   -0.220029
    21  H    0.228473
    22  H    0.244707
    23  H    0.277474
    24  H    0.274133
    25  H    0.221898
    26  N    0.487848
    27  O   -0.461926
    28  O   -0.459520
 Sum of Mulliken charges =  -0.00000

 Dipole moment (field-independent basis, Debye):
    X=             -1.9890    Y=              0.8264    Z=              5.0378  Tot=              5.4789
 Quadrupole moment (field-independent basis, Debye-Ang):
   XX=           -118.1500   YY=           -104.7840   ZZ=           -101.6160
   XY=            -27.0337   XZ=              6.6172   YZ=              0.2250

 Normal termination of Gaussian 16 at Thu May  6 09:36:47 2021.
