 Gaussian 16, Revision A.03,
 Gaussian 16:  EM64L-G16RevA.03 25-Dec-2016

 -------------
 #p 6-31g* mp2
 -------------

 ------------------------------------------------------
 Input file generated by CHIRIPA (05-May-2021 14:55:23)
 ------------------------------------------------------
 Symbolic Z-matrix:
 Charge =  0 Multiplicity = 1

                         Standard orientation:
 ---------------------------------------------------------------------
 Center     Atomic      Atomic             Coordinates (Angstroms)
 Number     Number       Type             X           Y           Z
 ---------------------------------------------------------------------
      1          6           0       -0.635160   -0.830848    0.017836
      2          6           0       -1.588276   -1.677959    0.592721
      3          6           0       -2.944731   -1.340309    0.568889
      4          6           0       -3.314534   -0.142523   -0.040902
      5          6           0       -2.388709    0.722419   -0.622290
      6          6           0       -1.037708    0.364530   -0.586769
      7          1           0        0.416449   -1.101003    0.040889
      8          1           0       -1.278543   -2.606934    1.062951
      9          1           0       -3.703591   -1.977633    1.006345
     10          1           0       -2.727937    1.641839   -1.083818
     11          1           0       -0.299706    1.024345   -1.034030
     12          7           0       -4.747665    0.225644   -0.072319
     13          8           0       -5.047736    1.286491   -0.615641
     14          8           0       -5.543747   -0.553604    0.446972
     15          6           0        3.831515   -0.478570    0.206889
     16          6           0        4.765174   -1.411481   -0.565086
     17          6           0        4.535491   -2.885942   -0.231919
     18          1           0        3.972464   -0.638711    1.284587
     19          1           0        2.789632   -0.747699   -0.015473
     20          1           0        5.804987   -1.139779   -0.342411
     21          1           0        4.622124   -1.248963   -1.641069
     22          1           0        3.508188   -3.179405   -0.470934
     23          1           0        4.697771   -3.069600    0.835104
     24          1           0        5.213444   -3.535059   -0.794847
     25          6           0        4.049027    0.998767   -0.115435
     26          6           0        3.115368    1.931678    0.656539
     27          6           0        3.345050    3.406139    0.323372
     28          1           0        5.090910    1.267896    0.106926
     29          1           0        3.908079    1.158908   -1.193133
     30          1           0        3.258418    1.769160    1.732523
     31          1           0        2.075555    1.659976    0.433864
     32          1           0        3.182771    3.589797   -0.743650
     33          1           0        4.372354    3.699601    0.562387
     34          1           0        2.667098    4.055255    0.886300
 ---------------------------------------------------------------------

 SCF Done:  E(RHF) =  -669.535470759     A.U. after   15 cycles
 E2 =    -0.2091795857D+01 EUMP2 =    -0.67162726661606D+03

 The electronic state is 1-A.
 Alpha  occ. eigenvalues --  -20.60744 -20.60739 -15.85798 -11.31163 -11.27738
 Alpha  occ. eigenvalues --  -11.27733 -11.27454 -11.26749 -11.26734 -11.22595
 Alpha  occ. eigenvalues --  -11.22583 -11.22525 -11.22363 -11.21978 -11.21857
 Alpha  occ. eigenvalues --   -1.59820  -1.39373  -1.19337  -1.09458  -1.08729
 Alpha  occ. eigenvalues --   -1.04741  -1.04467  -0.96915  -0.95566  -0.87924
 Alpha  occ. eigenvalues --   -0.86138  -0.82401  -0.80530  -0.79295  -0.77446
 Alpha  occ. eigenvalues --   -0.72016  -0.71143  -0.70464  -0.66109  -0.64987
 Alpha  occ. eigenvalues --   -0.64735  -0.62112  -0.61846  -0.60274  -0.58529
 Alpha  occ. eigenvalues --   -0.56245  -0.55238  -0.53564  -0.53324  -0.53067
 Alpha  occ. eigenvalues --   -0.52835  -0.50855  -0.48854  -0.48771  -0.48760
 Alpha  occ. eigenvalues --   -0.47573  -0.46809  -0.46741  -0.44779  -0.44746
 Alpha  occ. eigenvalues --   -0.37308  -0.36345
 Alpha virt. eigenvalues --    0.05090   0.11231   0.16581   0.18354   0.22657
 Alpha virt. eigenvalues --    0.22903   0.24813   0.26188   0.26856   0.27107
 Alpha virt. eigenvalues --    0.29417   0.30645   0.30907   0.31361   0.31607

 Mulliken charges:
               1
     1  C   -0.177272
     2  C   -0.221055
     3  C   -0.170516
     4  C    0.158266
     5  C   -0.170825
     6  C   -0.223877
     7  H    0.237548
     8  H    0.224264
     9  H    0.275536
    10  H    0.275673
    11  H    0.224627
    12  N    0.487980
    13  O   -0.460506
    14  O   -0.460453
    15  C   -0.303817
    16  C   -0.299827
    17  C   -0.475823
    18  H    0.153420
    19  H    0.140939
    20  H    0.156174
    21  H    0.153520
    22  H    0.150364
    23  H    0.156828
    24  H    0.164567
    25  C   -0.298945
    26  C   -0.301866
    27  C   -0.476559
    28  H    0.154426
    29  H    0.149766
    30  H    0.155779
    31  H    0.144794
    32  H    0.154746
    33  H    0.158560
    34  H    0.163562
 Sum of Mulliken charges =  -0.00000

 Dipole moment (field-independent basis, Debye):
    X=              5.3117    Y=             -1.2545    Z=              0.1509  Tot=              5.4600
 Quadrupole moment (field-independent basis, Debye-Ang):
   XX=           -126.8449   YY=            -91.8828   ZZ=            -93.6463
   XY=              4.7974   XZ=             -0.5913   YZ=             -2.1019

 Normal termination of Gaussian 16 at Wed May  5 20:44:05 2021.
