 Gaussian 16, Revision A.03,
 Gaussian 16:  EM64L-G16RevA.03 25-Dec-2016

 -------------
 #p 6-31g* mp2
 -------------

 ------------------------------------------------------
 Input file generated by CHIRIPA (05-May-2021 14:51:13)
 ------------------------------------------------------
 Symbolic Z-matrix:
 Charge =  0 Multiplicity = 1

                         Standard orientation:
 ---------------------------------------------------------------------
 Center     Atomic      Atomic             Coordinates (Angstroms)
 Number     Number       Type             X           Y           Z
 ---------------------------------------------------------------------
      1          6           0        4.377119    0.398810   -0.528784
      2          6           0        5.123067   -0.919265   -0.318485
      3          6           0        6.294572   -1.096237   -1.284948
      4          1           0        4.010788    0.444402   -1.563515
      5          1           0        5.081428    1.233741   -0.409480
      6          1           0        4.417265   -1.751409   -0.436785
      7          1           0        5.487499   -0.961809    0.715921
      8          1           0        7.020542   -0.285897   -1.162801
      9          1           0        5.944227   -1.079984   -2.322057
     10          1           0        6.813725   -2.045000   -1.117056
     11          6           0        3.203274    0.590233    0.429952
     12          6           0        2.457325    1.908307    0.219653
     13          6           0        1.285820    2.085279    1.186116
     14          1           0        2.498965   -0.244699    0.310648
     15          1           0        3.569604    0.544640    1.464683
     16          1           0        2.092894    1.950851   -0.814752
     17          1           0        3.163128    2.740451    0.337953
     18          1           0        1.636165    2.069027    2.223225
     19          1           0        0.559851    1.274940    1.063970
     20          1           0        0.766667    3.034043    1.018225
     21          6           0       -4.400697   -0.539202   -0.407448
     22          6           0       -5.206822    0.758533   -0.470929
     23          6           0       -6.425034    0.653422   -1.388918
     24          1           0       -4.075497   -0.811326   -1.420926
     25          1           0       -5.053766   -1.351719   -0.060013
     26          1           0       -4.552073    1.568645   -0.816820
     27          1           0       -5.529977    1.027702    0.542843
     28          1           0       -7.100914   -0.135466   -1.043309
     29          1           0       -6.117453    0.408551   -2.410697
     30          1           0       -6.986862    1.592184   -1.419512
     31          6           0       -3.179696   -0.449840    0.506279
     32          6           0       -2.373571   -1.747576    0.569761
     33          6           0       -1.155358   -1.642464    1.487750
     34          1           0       -2.526627    0.362677    0.158844
     35          1           0       -3.504895   -0.177717    1.519758
     36          1           0       -2.050415   -2.016744   -0.444011
     37          1           0       -3.028319   -2.557687    0.915651
     38          1           0       -1.462941   -1.397593    2.509528
     39          1           0       -0.479479   -0.853576    1.142140
     40          1           0       -0.593531   -2.581226    1.518342
 ---------------------------------------------------------------------

 SCF Done:  E(RHF) =  -470.733306862     A.U. after   11 cycles
 E2 =    -0.1582596788D+01 EUMP2 =    -0.47231590365057D+03

 The electronic state is 1-A.
 Alpha  occ. eigenvalues --  -11.21621 -11.21605 -11.21601 -11.21594 -11.21413
 Alpha  occ. eigenvalues --  -11.21401 -11.21354 -11.21341 -11.21085 -11.21072
 Alpha  occ. eigenvalues --  -11.21067 -11.21059  -1.08442  -1.08425  -1.03553
 Alpha  occ. eigenvalues --   -1.03518  -0.96007  -0.95962  -0.87031  -0.86972
 Alpha  occ. eigenvalues --   -0.79647  -0.79548  -0.78269  -0.78220  -0.65115
 Alpha  occ. eigenvalues --   -0.65022  -0.61054  -0.60832  -0.59368  -0.59337
 Alpha  occ. eigenvalues --   -0.57674  -0.57523  -0.55390  -0.55170  -0.52685
 Alpha  occ. eigenvalues --   -0.52667  -0.52520  -0.52306  -0.50060  -0.49821
 Alpha  occ. eigenvalues --   -0.48049  -0.47787  -0.46771  -0.46491  -0.45856
 Alpha  occ. eigenvalues --   -0.45756  -0.45741  -0.45548  -0.43794  -0.43782
 Alpha virt. eigenvalues --    0.20907   0.23104   0.23488   0.24878   0.25848
 Alpha virt. eigenvalues --    0.26753   0.27126   0.27380   0.28105   0.28989
 Alpha virt. eigenvalues --    0.30442   0.31699   0.31793   0.31938   0.31964

 Mulliken charges:
               1
     1  C   -0.298279
     2  C   -0.299667
     3  C   -0.475707
     4  H    0.149459
     5  H    0.149589
     6  H    0.152059
     7  H    0.152040
     8  H    0.155163
     9  H    0.155102
    10  H    0.160262
    11  C   -0.299668
    12  C   -0.299415
    13  C   -0.482723
    14  H    0.150681
    15  H    0.149962
    16  H    0.151343
    17  H    0.152066
    18  H    0.155760
    19  H    0.161452
    20  H    0.160285
    21  C   -0.298308
    22  C   -0.299682
    23  C   -0.475717
    24  H    0.149515
    25  H    0.149619
    26  H    0.152062
    27  H    0.152061
    28  H    0.155176
    29  H    0.155123
    30  H    0.160295
    31  C   -0.299002
    32  C   -0.299446
    33  C   -0.483228
    34  H    0.149947
    35  H    0.149998
    36  H    0.151505
    37  H    0.152152
    38  H    0.155935
    39  H    0.161763
    40  H    0.160465
 Sum of Mulliken charges =  -0.00000

 Dipole moment (field-independent basis, Debye):
    X=             -0.0058    Y=             -0.0028    Z=              0.0172  Tot=              0.0183
 Quadrupole moment (field-independent basis, Debye-Ang):
   XX=            -85.6621   YY=            -84.5951   ZZ=            -84.4614
   XY=              0.7714   XZ=             -0.0530   YZ=             -0.0596

 Normal termination of Gaussian 16 at Thu May  6 00:48:34 2021.
