 Gaussian 16, Revision A.03,
 Gaussian 16:  EM64L-G16RevA.03 25-Dec-2016

 -------------
 #p 6-31g* mp2
 -------------

 ------------------------------------------------------
 Input file generated by CHIRIPA (05-May-2021 14:55:25)
 ------------------------------------------------------
 Symbolic Z-matrix:
 Charge =  0 Multiplicity = 1

                         Standard orientation:
 ---------------------------------------------------------------------
 Center     Atomic      Atomic             Coordinates (Angstroms)
 Number     Number       Type             X           Y           Z
 ---------------------------------------------------------------------
      1          6           0        0.727969   -0.872474   -0.064203
      2          6           0        1.035049    0.466868   -0.325711
      3          6           0        2.361525    0.908040   -0.306273
      4          6           0        3.360442   -0.021326   -0.020383
      5          6           0        3.086410   -1.362270    0.244317
      6          6           0        1.752822   -1.781166    0.219476
      7          1           0       -0.305232   -1.206535   -0.081402
      8          1           0        0.241185    1.174791   -0.546322
      9          1           0        2.627422    1.939156   -0.505059
     10          1           0        3.899380   -2.044560    0.461062
     11          1           0        1.517292   -2.821920    0.422951
     12          7           0        4.768487    0.433932    0.003055
     13          8           0        5.630293   -0.404599    0.257600
     14          8           0        4.983645    1.620673   -0.233564
     15          6           0       -3.640060    0.777733    0.181071
     16          6           0       -4.508627    2.017909   -0.032326
     17          6           0       -3.765891    3.319286    0.271898
     18          1           0       -3.281889    0.763013    1.219552
     19          1           0       -2.747862    0.849407   -0.456298
     20          1           0       -5.399605    1.943260    0.604228
     21          1           0       -4.864929    2.029577   -1.070367
     22          1           0       -2.886420    3.420533   -0.372214
     23          1           0       -3.424135    3.333726    1.311896
     24          1           0       -4.405363    4.193135    0.112765
     25          6           0       -4.368590   -0.531056   -0.119000
     26          6           0       -3.500024   -1.771232    0.094398
     27          6           0       -4.242761   -3.072609   -0.209828
     28          1           0       -5.260790   -0.602730    0.518368
     29          1           0       -4.726762   -0.516336   -1.157481
     30          1           0       -3.143723   -1.782900    1.132439
     31          1           0       -2.609045   -1.696584   -0.542157
     32          1           0       -4.584516   -3.087049   -1.249826
     33          1           0       -5.122231   -3.173856    0.434285
     34          1           0       -3.603287   -3.946457   -0.050695
 ---------------------------------------------------------------------

 SCF Done:  E(RHF) =  -669.535675090     A.U. after   15 cycles
 E2 =    -0.2091570097D+01 EUMP2 =    -0.67162724518677D+03

 The electronic state is 1-A.
 Alpha  occ. eigenvalues --  -20.60693 -20.60688 -15.85747 -11.31091 -11.27664
 Alpha  occ. eigenvalues --  -11.27660 -11.27336 -11.26662 -11.26650 -11.22896
 Alpha  occ. eigenvalues --  -11.22543 -11.22467 -11.22431 -11.22080 -11.21874
 Alpha  occ. eigenvalues --   -1.59770  -1.39324  -1.19260  -1.09511  -1.08651
 Alpha  occ. eigenvalues --   -1.04664  -1.04548  -0.96964  -0.95493  -0.87981
 Alpha  occ. eigenvalues --   -0.86058  -0.82334  -0.80642  -0.79351  -0.77383
 Alpha  occ. eigenvalues --   -0.71965  -0.71093  -0.70365  -0.66135  -0.64908
 Alpha  occ. eigenvalues --   -0.64663  -0.62022  -0.61933  -0.60355  -0.58592
 Alpha  occ. eigenvalues --   -0.56238  -0.55177  -0.53638  -0.53384  -0.52992
 Alpha  occ. eigenvalues --   -0.52754  -0.50901  -0.48939  -0.48721  -0.48709
 Alpha  occ. eigenvalues --   -0.47665  -0.46860  -0.46780  -0.44810  -0.44734
 Alpha  occ. eigenvalues --   -0.37229  -0.36274
 Alpha virt. eigenvalues --    0.05151   0.11381   0.16635   0.18871   0.22446
 Alpha virt. eigenvalues --    0.22683   0.24902   0.25800   0.26851   0.27071
 Alpha virt. eigenvalues --    0.29293   0.30534   0.30821   0.31149   0.32019

 Mulliken charges:
               1
     1  C   -0.178738
     2  C   -0.223594
     3  C   -0.170893
     4  C    0.158218
     5  C   -0.170784
     6  C   -0.221487
     7  H    0.238755
     8  H    0.225029
     9  H    0.275306
    10  H    0.275160
    11  H    0.223406
    12  N    0.487990
    13  O   -0.460750
    14  O   -0.460717
    15  C   -0.300725
    16  C   -0.300383
    17  C   -0.476112
    18  H    0.151885
    19  H    0.141220
    20  H    0.155497
    21  H    0.154269
    22  H    0.151587
    23  H    0.157024
    24  H    0.164523
    25  C   -0.297950
    26  C   -0.307756
    27  C   -0.475076
    28  H    0.154471
    29  H    0.152949
    30  H    0.153298
    31  H    0.145937
    32  H    0.158464
    33  H    0.159548
    34  H    0.160429
 Sum of Mulliken charges =  -0.00000

 Dipole moment (field-independent basis, Debye):
    X=             -5.3195    Y=             -1.5956    Z=             -0.0418  Tot=              5.5538
 Quadrupole moment (field-independent basis, Debye-Ang):
   XX=           -126.9157   YY=            -91.0899   ZZ=            -94.4138
   XY=             -7.2832   XZ=             -0.2573   YZ=             -1.3820

 Normal termination of Gaussian 16 at Thu May  6 11:05:27 2021.
