 Gaussian 16, Revision A.03,
 Gaussian 16:  EM64L-G16RevA.03 25-Dec-2016

 -------------
 #p 6-31g* mp2
 -------------

 ------------------------------------------------------
 Input file generated by CHIRIPA (05-May-2021 14:53:11)
 ------------------------------------------------------
 Symbolic Z-matrix:
 Charge =  0 Multiplicity = 1

                         Standard orientation:
 ---------------------------------------------------------------------
 Center     Atomic      Atomic             Coordinates (Angstroms)
 Number     Number       Type             X           Y           Z
 ---------------------------------------------------------------------
      1          6           0       -4.078996    0.342687   -0.246604
      2          6           0       -5.397994    1.014380    0.136878
      3          6           0       -5.834562    2.078150   -0.870891
      4          1           0       -3.296759    1.108995   -0.335045
      5          1           0       -4.183382   -0.113602   -1.240736
      6          1           0       -5.291583    1.468077    1.130584
      7          1           0       -6.177139    0.246361    0.224603
      8          1           0       -5.968406    1.636433   -1.863651
      9          1           0       -5.077819    2.865091   -0.952523
     10          1           0       -6.779682    2.545476   -0.577268
     11          6           0       -3.629381   -0.723140    0.751186
     12          6           0       -2.310383   -1.394834    0.367705
     13          6           0       -1.873815   -2.458603    1.375473
     14          1           0       -3.524995   -0.266851    1.745319
     15          1           0       -4.411618   -1.489449    0.839627
     16          1           0       -1.531238   -0.626815    0.279979
     17          1           0       -2.416794   -1.848531   -0.626001
     18          1           0       -2.630558   -3.245544    1.457105
     19          1           0       -1.739971   -2.016887    2.368233
     20          1           0       -0.928695   -2.925929    1.081850
     21          6           0        4.288862    2.116807    0.729951
     22          6           0        4.937011    0.893870    0.527838
     23          6           0        4.238949   -0.203383    0.014717
     24          6           0        2.887554   -0.041663   -0.286727
     25          6           0        2.213771    1.163799   -0.096550
     26          6           0        2.931703    2.247637    0.417663
     27          1           0        4.838852    2.963970    1.128979
     28          1           0        5.990926    0.789364    0.769468
     29          1           0        4.716003   -1.161594   -0.151629
     30          1           0        1.162418    1.237403   -0.346869
     31          1           0        2.425751    3.196186    0.573591
     32          7           0        2.138029   -1.196175   -0.830522
     33          8           0        0.948087   -1.027888   -1.088116
     34          8           0        2.754685   -2.247508   -0.988859
 ---------------------------------------------------------------------

 SCF Done:  E(RHF) =  -669.535903710     A.U. after   15 cycles
 E2 =    -0.2091376009D+01 EUMP2 =    -0.67162727971871D+03

 The electronic state is 1-A.
 Alpha  occ. eigenvalues --  -20.60933 -20.60916 -15.85953 -11.31289 -11.27858
 Alpha  occ. eigenvalues --  -11.27849 -11.27592 -11.26865 -11.26854 -11.21223
 Alpha  occ. eigenvalues --  -11.20854 -11.20797 -11.20633 -11.20407 -11.20014
 Alpha  occ. eigenvalues --   -1.59987  -1.39542  -1.19459  -1.08860  -1.07764
 Alpha  occ. eigenvalues --   -1.04857  -1.02805  -0.95702  -0.95298  -0.86327
 Alpha  occ. eigenvalues --   -0.86257  -0.82537  -0.78902  -0.77653  -0.77438
 Alpha  occ. eigenvalues --   -0.72172  -0.71300  -0.70568  -0.65115  -0.64862
 Alpha  occ. eigenvalues --   -0.64413  -0.62207  -0.60219  -0.58680  -0.56850
 Alpha  occ. eigenvalues --   -0.55360  -0.54626  -0.53187  -0.52950  -0.51978
 Alpha  occ. eigenvalues --   -0.51719  -0.49295  -0.48944  -0.48931  -0.47195
 Alpha  occ. eigenvalues --   -0.45969  -0.45203  -0.45008  -0.44717  -0.43072
 Alpha  occ. eigenvalues --   -0.37436  -0.36459
 Alpha virt. eigenvalues --    0.04917   0.11190   0.16397   0.21086   0.23329
 Alpha virt. eigenvalues --    0.24812   0.26243   0.27472   0.27694   0.28645
 Alpha virt. eigenvalues --    0.28868   0.30609   0.31649   0.32205   0.32822

 Mulliken charges:
               1
     1  C   -0.295993
     2  C   -0.298932
     3  C   -0.474981
     4  H    0.144705
     5  H    0.151454
     6  H    0.149593
     7  H    0.151966
     8  H    0.155782
     9  H    0.152631
    10  H    0.158674
    11  C   -0.299121
    12  C   -0.296236
    13  C   -0.478472
    14  H    0.144203
    15  H    0.147452
    16  H    0.157659
    17  H    0.157499
    18  H    0.150849
    19  H    0.147015
    20  H    0.170545
    21  C   -0.170568
    22  C   -0.218542
    23  C   -0.170764
    24  C    0.158163
    25  C   -0.171175
    26  C   -0.218645
    27  H    0.225989
    28  H    0.223828
    29  H    0.275860
    30  H    0.276086
    31  H    0.223807
    32  N    0.490196
    33  O   -0.460990
    34  O   -0.459534
 Sum of Mulliken charges =  -0.00000

 Dipole moment (field-independent basis, Debye):
    X=              2.8965    Y=              3.9900    Z=              1.7918  Tot=              5.2459
 Quadrupole moment (field-independent basis, Debye-Ang):
   XX=            -76.8982   YY=            -94.1124   ZZ=            -97.1216
   XY=             10.0932   XZ=              5.4931   YZ=             -0.1943

 Normal termination of Gaussian 16 at Wed May  5 21:42:14 2021.
