 Gaussian 16, Revision A.03,
 Gaussian 16:  EM64L-G16RevA.03 25-Dec-2016

 -------------
 #p 6-31g* mp2
 -------------

 ------------------------------------------------------
 Input file generated by CHIRIPA (05-May-2021 14:51:11)
 ------------------------------------------------------
 Symbolic Z-matrix:
 Charge =  0 Multiplicity = 1

                         Standard orientation:
 ---------------------------------------------------------------------
 Center     Atomic      Atomic             Coordinates (Angstroms)
 Number     Number       Type             X           Y           Z
 ---------------------------------------------------------------------
      1          6           0       -4.251723    0.276769   -0.041887
      2          6           0       -4.523184   -1.036257   -0.776910
      3          6           0       -5.954372   -1.537810   -0.582133
      4          1           0       -4.450378    0.137629    1.029617
      5          1           0       -4.959723    1.039486   -0.394583
      6          1           0       -3.813980   -1.795896   -0.423933
      7          1           0       -4.323676   -0.894028   -1.846763
      8          1           0       -6.674556   -0.800633   -0.951600
      9          1           0       -6.161964   -1.707625    0.479314
     10          1           0       -6.126615   -2.477539   -1.116083
     11          6           0       -2.825160    0.790945   -0.227007
     12          6           0       -2.553699    2.103970    0.508016
     13          6           0       -1.122511    2.605524    0.313238
     14          1           0       -2.117160    0.028228    0.125688
     15          1           0       -2.626505    0.930084   -1.298511
     16          1           0       -2.753207    1.961742    1.577868
     17          1           0       -3.262903    2.863610    0.155038
     18          1           0       -0.914919    2.775338   -0.748209
     19          1           0       -0.402327    1.868346    0.682706
     20          1           0       -0.950268    3.545252    0.847188
     21          6           0        4.247681   -0.274970    0.250158
     22          6           0        5.023513   -0.032532   -1.044946
     23          6           0        6.440642    0.485230   -0.797028
     24          1           0        4.202539    0.660937    0.823731
     25          1           0        4.798988   -0.995325    0.870273
     26          1           0        4.470216    0.686101   -1.663043
     27          1           0        5.066648   -0.969077   -1.615592
     28          1           0        7.014100   -0.232090   -0.201039
     29          1           0        6.414278    1.432493   -0.248761
     30          1           0        6.977294    0.651682   -1.736260
     31          6           0        2.829202   -0.792744    0.018737
     32          6           0        2.053370   -1.035182    1.313840
     33          6           0        0.636241   -1.552943    1.065922
     34          1           0        2.277895   -0.072388   -0.601379
     35          1           0        2.874344   -1.728651   -0.554836
     36          1           0        2.010234   -0.098636    1.884486
     37          1           0        2.606668   -1.753815    1.931938
     38          1           0        0.662605   -2.500206    0.517655
     39          1           0        0.062783   -0.835624    0.469935
     40          1           0        0.099589   -1.719395    2.005154
 ---------------------------------------------------------------------

 SCF Done:  E(RHF) =  -470.733183036     A.U. after   11 cycles
 E2 =    -0.1583075629D+01 EUMP2 =    -0.47231625866552D+03

 The electronic state is 1-A.
 Alpha  occ. eigenvalues --  -11.21633 -11.21607 -11.21592 -11.21568 -11.21404
 Alpha  occ. eigenvalues --  -11.21374 -11.21344 -11.21312 -11.21114 -11.21101
 Alpha  occ. eigenvalues --  -11.21062 -11.21046  -1.08442  -1.08409  -1.03557
 Alpha  occ. eigenvalues --   -1.03511  -0.95997  -0.95974  -0.87027  -0.86982
 Alpha  occ. eigenvalues --   -0.79641  -0.79557  -0.78281  -0.78194  -0.65153
 Alpha  occ. eigenvalues --   -0.64976  -0.61079  -0.60796  -0.59368  -0.59336
 Alpha  occ. eigenvalues --   -0.57618  -0.57572  -0.55302  -0.55259  -0.52701
 Alpha  occ. eigenvalues --   -0.52670  -0.52467  -0.52360  -0.50019  -0.49877
 Alpha  occ. eigenvalues --   -0.48029  -0.47832  -0.46768  -0.46537  -0.45891
 Alpha  occ. eigenvalues --   -0.45750  -0.45730  -0.45402  -0.43795  -0.43772
 Alpha virt. eigenvalues --    0.20543   0.23000   0.23642   0.25013   0.25774
 Alpha virt. eigenvalues --    0.26493   0.27147   0.27565   0.28307   0.29140
 Alpha virt. eigenvalues --    0.30624   0.31427   0.31660   0.31823   0.32018

 Mulliken charges:
               1
     1  C   -0.297553
     2  C   -0.299912
     3  C   -0.475696
     4  H    0.149577
     5  H    0.149329
     6  H    0.152685
     7  H    0.151782
     8  H    0.155043
     9  H    0.155146
    10  H    0.160200
    11  C   -0.306948
    12  C   -0.298995
    13  C   -0.479423
    14  H    0.158555
    15  H    0.149015
    16  H    0.151996
    17  H    0.152017
    18  H    0.154989
    19  H    0.157617
    20  H    0.160504
    21  C   -0.298337
    22  C   -0.299712
    23  C   -0.475726
    24  H    0.149902
    25  H    0.149429
    26  H    0.152193
    27  H    0.151870
    28  H    0.155114
    29  H    0.155273
    30  H    0.160243
    31  C   -0.299037
    32  C   -0.299768
    33  C   -0.484760
    34  H    0.150597
    35  H    0.149684
    36  H    0.152163
    37  H    0.152161
    38  H    0.155733
    39  H    0.163410
    40  H    0.159640
 Sum of Mulliken charges =  -0.00000

 Dipole moment (field-independent basis, Debye):
    X=              0.0093    Y=             -0.0093    Z=             -0.0032  Tot=              0.0136
 Quadrupole moment (field-independent basis, Debye-Ang):
   XX=            -86.7274   YY=            -83.9792   ZZ=            -84.1219
   XY=             -1.3509   XZ=              0.2511   YZ=             -0.4318

 Normal termination of Gaussian 16 at Thu May  6 00:42:09 2021.
