 Gaussian 16, Revision A.03,
 Gaussian 16:  EM64L-G16RevA.03 25-Dec-2016

 -------------
 #p 6-31g* mp2
 -------------

 ------------------------------------------------------
 Input file generated by CHIRIPA (05-May-2021 14:57:25)
 ------------------------------------------------------
 Symbolic Z-matrix:
 Charge =  0 Multiplicity = 1

                         Standard orientation:
 ---------------------------------------------------------------------
 Center     Atomic      Atomic             Coordinates (Angstroms)
 Number     Number       Type             X           Y           Z
 ---------------------------------------------------------------------
      1          6           0        3.875568   -1.958977   -0.324895
      2          6           0        4.444901   -1.094390    0.615780
      3          6           0        3.969321    0.212554    0.758155
      4          6           0        2.918358    0.623656   -0.060235
      5          6           0        2.330260   -0.214091   -1.006603
      6          6           0        2.821922   -1.516848   -1.131662
      7          1           0        4.251257   -2.972616   -0.428769
      8          1           0        5.263286   -1.435034    1.243676
      9          1           0        4.391675    0.902769    1.478320
     10          1           0        1.515612    0.154135   -1.618303
     11          1           0        2.377842   -2.186110   -1.863049
     12          7           0        2.406370    2.005042    0.081324
     13          8           0        1.479492    2.343031   -0.651681
     14          8           0        2.941646    2.723628    0.922604
     15          6           0       -0.920059   -1.789773    0.376348
     16          6           0       -1.779627   -1.579480    1.459602
     17          6           0       -2.936402   -0.808951    1.308914
     18          6           0       -3.204086   -0.261240    0.055261
     19          6           0       -2.367314   -0.452661   -1.043129
     20          6           0       -1.216123   -1.226685   -0.869365
     21          1           0       -0.023617   -2.389696    0.502369
     22          1           0       -1.552224   -2.015551    2.428196
     23          1           0       -3.619179   -0.630179    2.130665
     24          1           0       -2.620600   -0.004995   -1.996471
     25          1           0       -0.550387   -1.388327   -1.712402
     26          7           0       -4.425756    0.556334   -0.116480
     27          8           0       -4.639129    1.027918   -1.231252
     28          8           0       -5.146794    0.710083    0.866933
 ---------------------------------------------------------------------

 SCF Done:  E(RHF) =  -868.336090561     A.U. after   16 cycles
 E2 =    -0.2601848800D+01 EUMP2 =    -0.87093793936099D+03

 The electronic state is 1-A.
 Alpha  occ. eigenvalues --  -20.61307 -20.61296 -20.60618 -20.60610 -15.86369
 Alpha  occ. eigenvalues --  -15.85679 -11.31964 -11.31143 -11.28643 -11.28552
 Alpha  occ. eigenvalues --  -11.28388 -11.27795 -11.27756 -11.27724 -11.27576
 Alpha  occ. eigenvalues --  -11.27572 -11.26915 -11.26775  -1.60375  -1.59688
 Alpha  occ. eigenvalues --   -1.39922  -1.39240  -1.20192  -1.19361  -1.09529
 Alpha  occ. eigenvalues --   -1.08748  -1.05650  -1.04802  -0.96323  -0.95551
 Alpha  occ. eigenvalues --   -0.87014  -0.86217  -0.83163  -0.82399  -0.78180
 Alpha  occ. eigenvalues --   -0.77411  -0.72583  -0.71902  -0.71704  -0.71287
 Alpha  occ. eigenvalues --   -0.71006  -0.70485  -0.65851  -0.65648  -0.65034
 Alpha  occ. eigenvalues --   -0.64899  -0.62995  -0.62110  -0.56109  -0.55344
 Alpha  occ. eigenvalues --   -0.53958  -0.53747  -0.53044  -0.52911  -0.49358
 Alpha  occ. eigenvalues --   -0.49323  -0.48669  -0.48642  -0.45277  -0.44623
 Alpha  occ. eigenvalues --   -0.38195  -0.37657  -0.36962  -0.36335
 Alpha virt. eigenvalues --    0.04359   0.05158   0.10190   0.11372   0.15722
 Alpha virt. eigenvalues --    0.16513   0.19069   0.22000   0.24926   0.27108
 Alpha virt. eigenvalues --    0.28158   0.28985   0.29992   0.31052   0.32167

 Mulliken charges:
               1
     1  C   -0.172120
     2  C   -0.219199
     3  C   -0.169662
     4  C    0.158653
     5  C   -0.168406
     6  C   -0.227557
     7  H    0.227493
     8  H    0.226237
     9  H    0.278707
    10  H    0.274467
    11  H    0.220022
    12  N    0.488296
    13  O   -0.457374
    14  O   -0.458127
    15  C   -0.168970
    16  C   -0.218960
    17  C   -0.168374
    18  C    0.159415
    19  C   -0.165494
    20  C   -0.219259
    21  H    0.223524
    22  H    0.223025
    23  H    0.276657
    24  H    0.277119
    25  H    0.210625
    26  N    0.488479
    27  O   -0.459088
    28  O   -0.460125
 Sum of Mulliken charges =  -0.00000

 Dipole moment (field-independent basis, Debye):
    X=              6.1406    Y=             -7.5189    Z=              0.2567  Tot=              9.7112
 Quadrupole moment (field-independent basis, Debye-Ang):
   XX=           -119.4384   YY=           -110.6698   ZZ=            -97.9512
   XY=             -4.1809   XZ=             -1.5471   YZ=             -0.6125

 Normal termination of Gaussian 16 at Thu May  6 00:21:33 2021.
