 Gaussian 16, Revision A.03,
 Gaussian 16:  EM64L-G16RevA.03 25-Dec-2016

 -------------
 #p 6-31g* mp2
 -------------

 ------------------------------------------------------
 Input file generated by CHIRIPA (05-May-2021 14:51:10)
 ------------------------------------------------------
 Symbolic Z-matrix:
 Charge =  0 Multiplicity = 1

                         Standard orientation:
 ---------------------------------------------------------------------
 Center     Atomic      Atomic             Coordinates (Angstroms)
 Number     Number       Type             X           Y           Z
 ---------------------------------------------------------------------
      1          6           0        3.014469   -0.948786   -0.001917
      2          6           0        1.860990   -0.612825    0.943916
      3          6           0        0.655933   -1.535283    0.757628
      4          1           0        2.659542   -0.885662   -1.039698
      5          1           0        3.321012   -1.991368    0.160717
      6          1           0        1.557630    0.429235    0.780513
      7          1           0        2.218753   -0.676569    1.979560
      8          1           0        0.936678   -2.577531    0.940667
      9          1           0        0.271798   -1.465445   -0.265193
     10          1           0       -0.156916   -1.277389    1.443651
     11          6           0        4.226447   -0.035284    0.172294
     12          6           0        5.379926   -0.371246   -0.773540
     13          6           0        6.584983    0.551213   -0.587252
     14          1           0        3.919904    1.007297    0.009659
     15          1           0        4.581374   -0.098408    1.210074
     16          1           0        5.022163   -0.307502   -1.809184
     17          1           0        5.683286   -1.413305   -0.610136
     18          1           0        6.969118    0.481374    0.435570
     19          1           0        6.304238    1.593461   -0.770290
     20          1           0        7.397832    0.293319   -1.273275
     21          6           0       -2.887621    0.572327    0.114648
     22          6           0       -2.383521    2.011746    0.005363
     23          6           0       -0.915743    2.156284    0.408510
     24          1           0       -2.753050    0.220795    1.146762
     25          1           0       -2.266705   -0.075401   -0.519628
     26          1           0       -3.006072    2.656789    0.638583
     27          1           0       -2.519483    2.359958   -1.026567
     28          1           0       -0.278016    1.536501   -0.230063
     29          1           0       -0.767368    1.835019    1.444547
     30          1           0       -0.576134    3.193202    0.322908
     31          6           0       -4.353295    0.411743   -0.285024
     32          6           0       -4.857395   -1.027675   -0.175739
     33          6           0       -6.325173   -1.172214   -0.578886
     34          1           0       -4.974211    1.059472    0.349252
     35          1           0       -4.487866    0.763275   -1.317139
     36          1           0       -4.721433   -1.375887    0.856191
     37          1           0       -4.234844   -1.672718   -0.808959
     38          1           0       -6.473548   -0.850948   -1.614923
     39          1           0       -6.962900   -0.552430    0.059687
     40          1           0       -6.664782   -2.209131   -0.493284
 ---------------------------------------------------------------------

 SCF Done:  E(RHF) =  -470.732587174     A.U. after   11 cycles
 E2 =    -0.1583723252D+01 EUMP2 =    -0.47231631042603D+03

 The electronic state is 1-A.
 Alpha  occ. eigenvalues --  -11.21612 -11.21585 -11.21568 -11.21446 -11.21390
 Alpha  occ. eigenvalues --  -11.21349 -11.21330 -11.21288 -11.21084 -11.21059
 Alpha  occ. eigenvalues --  -11.21044 -11.20981  -1.08435  -1.08361  -1.03567
 Alpha  occ. eigenvalues --   -1.03435  -0.96002  -0.95907  -0.87021  -0.86926
 Alpha  occ. eigenvalues --   -0.79637  -0.79499  -0.78245  -0.78173  -0.65109
 Alpha  occ. eigenvalues --   -0.64969  -0.61056  -0.60786  -0.59429  -0.59211
 Alpha  occ. eigenvalues --   -0.57681  -0.57438  -0.55304  -0.55192  -0.52700
 Alpha  occ. eigenvalues --   -0.52614  -0.52424  -0.52345  -0.49974  -0.49823
 Alpha  occ. eigenvalues --   -0.48024  -0.47761  -0.46638  -0.46500  -0.45852
 Alpha  occ. eigenvalues --   -0.45739  -0.45644  -0.45512  -0.43786  -0.43706
 Alpha virt. eigenvalues --    0.21111   0.23030   0.23562   0.25059   0.25491
 Alpha virt. eigenvalues --    0.26380   0.26561   0.27444   0.28329   0.29709
 Alpha virt. eigenvalues --    0.29899   0.31117   0.31592   0.31811   0.32475

 Mulliken charges:
               1
     1  C   -0.297963
     2  C   -0.307191
     3  C   -0.476557
     4  H    0.148496
     5  H    0.149191
     6  H    0.160712
     7  H    0.151066
     8  H    0.154399
     9  H    0.154008
    10  H    0.162686
    11  C   -0.298197
    12  C   -0.299553
    13  C   -0.475671
    14  H    0.149590
    15  H    0.149594
    16  H    0.151703
    17  H    0.151842
    18  H    0.155139
    19  H    0.155152
    20  H    0.160093
    21  C   -0.300056
    22  C   -0.300139
    23  C   -0.478684
    24  H    0.149621
    25  H    0.152604
    26  H    0.151823
    27  H    0.151640
    28  H    0.158648
    29  H    0.156413
    30  H    0.159838
    31  C   -0.298407
    32  C   -0.299553
    33  C   -0.475700
    34  H    0.149368
    35  H    0.149446
    36  H    0.151941
    37  H    0.152185
    38  H    0.155085
    39  H    0.155102
    40  H    0.160287
 Sum of Mulliken charges =  -0.00000

 Dipole moment (field-independent basis, Debye):
    X=             -0.0287    Y=              0.0236    Z=              0.0090  Tot=              0.0383
 Quadrupole moment (field-independent basis, Debye-Ang):
   XX=            -86.7566   YY=            -84.8212   ZZ=            -83.4112
   XY=             -1.0523   XZ=             -0.2868   YZ=             -0.3542

 Normal termination of Gaussian 16 at Wed May  5 16:41:36 2021.
