 Gaussian 16, Revision A.03,
 Gaussian 16:  EM64L-G16RevA.03 25-Dec-2016

 -------------
 #p 6-31g* mp2
 -------------

 ------------------------------------------------------
 Input file generated by CHIRIPA (05-May-2021 14:55:21)
 ------------------------------------------------------
 Symbolic Z-matrix:
 Charge =  0 Multiplicity = 1

                         Standard orientation:
 ---------------------------------------------------------------------
 Center     Atomic      Atomic             Coordinates (Angstroms)
 Number     Number       Type             X           Y           Z
 ---------------------------------------------------------------------
      1          6           0        3.223384    2.739788    0.296142
      2          6           0        1.969840    2.125171    0.210147
      3          6           0        1.867882    0.744801    0.013343
      4          6           0        3.045284    0.006173   -0.093630
      5          6           0        4.308808    0.589402   -0.012127
      6          6           0        4.386816    1.971297    0.184927
      7          1           0        3.293285    3.812684    0.449121
      8          1           0        1.064616    2.719490    0.296163
      9          1           0        0.910302    0.243282   -0.056916
     10          1           0        5.193398   -0.029397   -0.101608
     11          1           0        5.361684    2.445922    0.251326
     12          7           0        2.950023   -1.455969   -0.302110
     13          8           0        4.002329   -2.084454   -0.393199
     14          8           0        1.824856   -1.945827   -0.370479
     15          6           0       -4.655735   -0.118560    0.063826
     16          6           0       -4.885875    1.340746   -0.330442
     17          6           0       -6.366604    1.721342   -0.350018
     18          1           0       -5.194124   -0.770528   -0.637615
     19          1           0       -5.094203   -0.296699    1.055495
     20          1           0       -4.445890    1.516430   -1.320475
     21          1           0       -4.346719    1.989309    0.371906
     22          1           0       -6.815265    1.574232    0.637738
     23          1           0       -6.914999    1.098666   -1.064258
     24          1           0       -6.508187    2.768700   -0.634370
     25          6           0       -3.180386   -0.514149    0.087906
     26          6           0       -2.950245   -1.973455    0.482174
     27          6           0       -1.469517   -2.354051    0.501750
     28          1           0       -2.741918   -0.336011   -0.903763
     29          1           0       -2.641996    0.137819    0.789347
     30          1           0       -3.489402   -2.622019   -0.220173
     31          1           0       -3.390230   -2.149140    1.472207
     32          1           0       -0.921121   -1.731376    1.215989
     33          1           0       -1.020856   -2.206942   -0.486006
     34          1           0       -1.327933   -3.401409    0.786102
 ---------------------------------------------------------------------

 SCF Done:  E(RHF) =  -669.535573348     A.U. after   15 cycles
 E2 =    -0.2091520893D+01 EUMP2 =    -0.67162709424066D+03

 The electronic state is 1-A.
 Alpha  occ. eigenvalues --  -20.60778 -20.60769 -15.85820 -11.31179 -11.27754
 Alpha  occ. eigenvalues --  -11.27729 -11.27499 -11.26770 -11.26755 -11.21708
 Alpha  occ. eigenvalues --  -11.21381 -11.21318 -11.21158 -11.21145 -11.20188
 Alpha  occ. eigenvalues --   -1.59850  -1.39404  -1.19354  -1.08754  -1.08327
 Alpha  occ. eigenvalues --   -1.04755  -1.03307  -0.95745  -0.95567  -0.86731
 Alpha  occ. eigenvalues --   -0.86154  -0.82422  -0.79388  -0.78161  -0.77440
 Alpha  occ. eigenvalues --   -0.72043  -0.71169  -0.70463  -0.65013  -0.64959
 Alpha  occ. eigenvalues --   -0.64759  -0.62103  -0.60702  -0.59151  -0.57340
 Alpha  occ. eigenvalues --   -0.55262  -0.55004  -0.53089  -0.52853  -0.52371
 Alpha  occ. eigenvalues --   -0.52140  -0.49676  -0.48821  -0.48800  -0.47633
 Alpha  occ. eigenvalues --   -0.46438  -0.45670  -0.45587  -0.44792  -0.43573
 Alpha  occ. eigenvalues --   -0.37340  -0.36360
 Alpha virt. eigenvalues --    0.05046   0.11281   0.16538   0.20821   0.22921
 Alpha virt. eigenvalues --    0.23925   0.26414   0.26783   0.27639   0.27887
 Alpha virt. eigenvalues --    0.29325   0.31112   0.31592   0.31775   0.32495

 Mulliken charges:
               1
     1  C   -0.170618
     2  C   -0.219575
     3  C   -0.173687
     4  C    0.157243
     5  C   -0.170801
     6  C   -0.218745
     7  H    0.225547
     8  H    0.224007
     9  H    0.280548
    10  H    0.275495
    11  H    0.223370
    12  N    0.492968
    13  O   -0.460391
    14  O   -0.464021
    15  C   -0.297474
    16  C   -0.299251
    17  C   -0.475525
    18  H    0.151247
    19  H    0.149983
    20  H    0.150910
    21  H    0.148380
    22  H    0.155542
    23  H    0.156274
    24  H    0.159166
    25  C   -0.298001
    26  C   -0.301996
    27  C   -0.472644
    28  H    0.147754
    29  H    0.142060
    30  H    0.151724
    31  H    0.149394
    32  H    0.149245
    33  H    0.168097
    34  H    0.163779
 Sum of Mulliken charges =  -0.00000

 Dipole moment (field-independent basis, Debye):
    X=              0.4362    Y=              5.0091    Z=              0.6841  Tot=              5.0744
 Quadrupole moment (field-independent basis, Debye-Ang):
   XX=            -89.0942   YY=            -95.0712   ZZ=            -94.9196
   XY=             16.1187   XZ=              2.2959   YZ=             -0.0699

 Normal termination of Gaussian 16 at Thu May  6 09:19:37 2021.
