 Gaussian 16, Revision A.03,
 Gaussian 16:  EM64L-G16RevA.03 25-Dec-2016

 -------------
 #p 6-31g* mp2
 -------------

 ------------------------------------------------------
 Input file generated by CHIRIPA (05-May-2021 14:57:23)
 ------------------------------------------------------
 Symbolic Z-matrix:
 Charge =  0 Multiplicity = 1

                         Standard orientation:
 ---------------------------------------------------------------------
 Center     Atomic      Atomic             Coordinates (Angstroms)
 Number     Number       Type             X           Y           Z
 ---------------------------------------------------------------------
      1          6           0       -4.232366    1.950570    1.040388
      2          6           0       -2.868061    1.653329    1.123109
      3          6           0       -2.360553    0.482587    0.551840
      4          6           0       -3.249760   -0.372323   -0.097567
      5          6           0       -4.614111   -0.103984   -0.196710
      6          6           0       -5.099507    1.072513    0.381904
      7          1           0       -4.618021    2.862266    1.487017
      8          1           0       -2.192292    2.333397    1.633881
      9          1           0       -1.308821    0.227935    0.601122
     10          1           0       -5.263142   -0.801323   -0.712360
     11          1           0       -6.159512    1.300782    0.316115
     12          7           0       -2.724188   -1.614781   -0.706232
     13          8           0       -3.528357   -2.351568   -1.272884
     14          8           0       -1.518028   -1.828306   -0.605126
     15          6           0        3.857632   -2.073277    1.033067
     16          6           0        2.528164   -1.675534    0.857461
     17          6           0        2.227605   -0.436144    0.284639
     18          6           0        3.285987    0.384185   -0.102887
     19          6           0        4.620792    0.016195    0.058885
     20          6           0        4.897869   -1.227634    0.633922
     21          1           0        4.081992   -3.037788    1.478910
     22          1           0        1.718271   -2.330217    1.166504
     23          1           0        1.207396   -0.103263    0.137053
     24          1           0        5.406724    0.690455   -0.259077
     25          1           0        5.931296   -1.533910    0.769080
     26          7           0        2.980230    1.698621   -0.710480
     27          8           0        3.930740    2.403063   -1.043538
     28          8           0        1.795854    1.999546   -0.842149
 ---------------------------------------------------------------------

 SCF Done:  E(RHF) =  -868.339389468     A.U. after   16 cycles
 E2 =    -0.2599271772D+01 EUMP2 =    -0.87093866123977D+03

 The electronic state is 1-A.
 Alpha  occ. eigenvalues --  -20.61125 -20.61080 -20.60703 -20.60680 -15.86144
 Alpha  occ. eigenvalues --  -15.85737 -11.31281 -11.30915 -11.27865 -11.27803
 Alpha  occ. eigenvalues --  -11.27486 -11.27468 -11.27438 -11.27137 -11.26782
 Alpha  occ. eigenvalues --  -11.26737 -11.26463 -11.26328  -1.60164  -1.59767
 Alpha  occ. eigenvalues --   -1.39733  -1.39329  -1.19420  -1.19058  -1.08852
 Alpha  occ. eigenvalues --   -1.08488  -1.04789  -1.04417  -0.95735  -0.95359
 Alpha  occ. eigenvalues --   -0.86206  -0.85833  -0.82580  -0.82185  -0.77681
 Alpha  occ. eigenvalues --   -0.77249  -0.72383  -0.71965  -0.71466  -0.71082
 Alpha  occ. eigenvalues --   -0.70554  -0.70170  -0.65079  -0.64808  -0.64704
 Alpha  occ. eigenvalues --   -0.64397  -0.62208  -0.61713  -0.55301  -0.54936
 Alpha  occ. eigenvalues --   -0.53119  -0.52910  -0.52770  -0.52468  -0.49147
 Alpha  occ. eigenvalues --   -0.49090  -0.48731  -0.48697  -0.45185  -0.44776
 Alpha  occ. eigenvalues --   -0.37375  -0.37034  -0.36366  -0.36007
 Alpha virt. eigenvalues --    0.04865   0.05246   0.11277   0.11632   0.16427
 Alpha virt. eigenvalues --    0.16794   0.19632   0.22266   0.24911   0.27736
 Alpha virt. eigenvalues --    0.28234   0.29650   0.31076   0.31439   0.31809

 Mulliken charges:
               1
     1  C   -0.169912
     2  C   -0.220481
     3  C   -0.168963
     4  C    0.156248
     5  C   -0.169852
     6  C   -0.218677
     7  H    0.227221
     8  H    0.228951
     9  H    0.277154
    10  H    0.275408
    11  H    0.223976
    12  N    0.489251
    13  O   -0.457061
    14  O   -0.472442
    15  C   -0.170978
    16  C   -0.221748
    17  C   -0.178429
    18  C    0.158271
    19  C   -0.170844
    20  C   -0.218926
    21  H    0.225928
    22  H    0.233057
    23  H    0.285122
    24  H    0.274124
    25  H    0.222409
    26  N    0.487236
    27  O   -0.460307
    28  O   -0.465735
 Sum of Mulliken charges =  -0.00000

 Dipole moment (field-independent basis, Debye):
    X=             -0.9577    Y=             -0.2732    Z=              4.3158  Tot=              4.4292
 Quadrupole moment (field-independent basis, Debye-Ang):
   XX=            -76.2872   YY=           -112.1703   ZZ=           -106.7133
   XY=            -26.9860   XZ=              1.2225   YZ=              0.5009

 Normal termination of Gaussian 16 at Thu May  6 01:50:04 2021.
