 Gaussian 16, Revision A.03,
 Gaussian 16:  EM64L-G16RevA.03 25-Dec-2016

 -------------
 #p 6-31g* mp2
 -------------

 ------------------------------------------------------
 Input file generated by CHIRIPA (05-May-2021 14:57:22)
 ------------------------------------------------------
 Symbolic Z-matrix:
 Charge =  0 Multiplicity = 1

                         Standard orientation:
 ---------------------------------------------------------------------
 Center     Atomic      Atomic             Coordinates (Angstroms)
 Number     Number       Type             X           Y           Z
 ---------------------------------------------------------------------
      1          6           0        3.174406    1.980842   -1.658199
      2          6           0        4.244187    1.955545   -0.757395
      3          6           0        4.377734    0.906487    0.157040
      4          6           0        3.418962   -0.105367    0.142971
      5          6           0        2.341933   -0.108421   -0.742065
      6          6           0        2.228361    0.950595   -1.647678
      7          1           0        3.078421    2.799643   -2.365128
      8          1           0        4.980397    2.754297   -0.763295
      9          1           0        5.196059    0.861968    0.865405
     10          1           0        1.623835   -0.918893   -0.712256
     11          1           0        1.396520    0.967628   -2.346102
     12          7           0        3.549769   -1.221228    1.106373
     13          8           0        2.691757   -2.100654    1.073777
     14          8           0        4.507832   -1.195286    1.875840
     15          6           0       -4.416324    1.540833    1.660604
     16          6           0       -3.047986    1.255867    1.715043
     17          6           0       -2.472659    0.360224    0.808749
     18          6           0       -3.298898   -0.235096   -0.143203
     19          6           0       -4.665476    0.028345   -0.222913
     20          6           0       -5.219287    0.927245    0.693504
     21          1           0       -4.854896    2.237854    2.368568
     22          1           0       -2.421969    1.730907    2.465033
     23          1           0       -1.416220    0.121545    0.828419
     24          1           0       -5.263959   -0.460804   -0.981839
     25          1           0       -6.282259    1.146659    0.648871
     26          7           0       -2.701214   -1.184997   -1.108016
     27          8           0       -3.450712   -1.696298   -1.937148
     28          8           0       -1.494568   -1.400239   -1.016834
 ---------------------------------------------------------------------

 SCF Done:  E(RHF) =  -868.339284419     A.U. after   16 cycles
 E2 =    -0.2598855508D+01 EUMP2 =    -0.87093813992694D+03

 The electronic state is 1-A.
 Alpha  occ. eigenvalues --  -20.61214 -20.61177 -20.60392 -20.60368 -15.86246
 Alpha  occ. eigenvalues --  -15.85432 -11.31451 -11.30758 -11.28003 -11.27994
 Alpha  occ. eigenvalues --  -11.27719 -11.27393 -11.27175 -11.27114 -11.26988
 Alpha  occ. eigenvalues --  -11.26969 -11.26414 -11.26268  -1.60262  -1.59466
 Alpha  occ. eigenvalues --   -1.39823  -1.39015  -1.19611  -1.18944  -1.09035
 Alpha  occ. eigenvalues --   -1.08361  -1.04989  -1.04316  -0.95895  -0.95186
 Alpha  occ. eigenvalues --   -0.86395  -0.85724  -0.82734  -0.81999  -0.77802
 Alpha  occ. eigenvalues --   -0.77036  -0.72474  -0.71644  -0.71575  -0.70799
 Alpha  occ. eigenvalues --   -0.70718  -0.70036  -0.65268  -0.64988  -0.64584
 Alpha  occ. eigenvalues --   -0.64305  -0.62337  -0.61619  -0.55497  -0.54854
 Alpha  occ. eigenvalues --   -0.53331  -0.53078  -0.52694  -0.52381  -0.49224
 Alpha  occ. eigenvalues --   -0.49196  -0.48417  -0.48393  -0.45260  -0.44428
 Alpha  occ. eigenvalues --   -0.37587  -0.36969  -0.36586  -0.35938
 Alpha virt. eigenvalues --    0.04721   0.05442   0.11068   0.11684   0.16240
 Alpha virt. eigenvalues --    0.16929   0.21034   0.21953   0.26697   0.27435
 Alpha virt. eigenvalues --    0.28169   0.29030   0.30782   0.31449   0.31975

 Mulliken charges:
               1
     1  C   -0.171731
     2  C   -0.219578
     3  C   -0.172008
     4  C    0.156687
     5  C   -0.181275
     6  C   -0.222789
     7  H    0.223780
     8  H    0.221176
     9  H    0.273656
    10  H    0.295393
    11  H    0.229010
    12  N    0.486956
    13  O   -0.456813
    14  O   -0.463638
    15  C   -0.170390
    16  C   -0.218731
    17  C   -0.170902
    18  C    0.157574
    19  C   -0.170904
    20  C   -0.218647
    21  H    0.226679
    22  H    0.225519
    23  H    0.275952
    24  H    0.275868
    25  H    0.224233
    26  N    0.492140
    27  O   -0.457449
    28  O   -0.469769
 Sum of Mulliken charges =  -0.00000

 Dipole moment (field-independent basis, Debye):
    X=             -2.8546    Y=              7.1985    Z=             -0.0201  Tot=              7.7439
 Quadrupole moment (field-independent basis, Debye-Ang):
   XX=            -87.2570   YY=           -107.6500   ZZ=           -106.3469
   XY=              5.2745   XZ=            -19.1475   YZ=              1.0506

 Normal termination of Gaussian 16 at Thu May  6 01:45:55 2021.
