 Gaussian 16, Revision A.03,
 Gaussian 16:  EM64L-G16RevA.03 25-Dec-2016

 -------------
 #p 6-31g* mp2
 -------------

 ------------------------------------------------------
 Input file generated by CHIRIPA (05-May-2021 14:51:08)
 ------------------------------------------------------
 Symbolic Z-matrix:
 Charge =  0 Multiplicity = 1

                         Standard orientation:
 ---------------------------------------------------------------------
 Center     Atomic      Atomic             Coordinates (Angstroms)
 Number     Number       Type             X           Y           Z
 ---------------------------------------------------------------------
      1          6           0       -3.812136    0.575185    0.197315
      2          6           0       -3.276747    1.675936   -0.719032
      3          6           0       -2.156391    2.490789   -0.072030
      4          1           0       -4.177361    1.028079    1.129218
      5          1           0       -2.986114   -0.093140    0.477358
      6          1           0       -4.103803    2.341188   -0.998378
      7          1           0       -2.912930    1.220388   -1.648940
      8          1           0       -1.312742    1.844626    0.191277
      9          1           0       -2.510381    2.971794    0.845535
     10          1           0       -1.788421    3.272045   -0.744412
     11          6           0       -4.932647   -0.248101   -0.435443
     12          6           0       -5.468036   -1.348851    0.480903
     13          6           0       -6.588392   -2.163704   -0.166098
     14          1           0       -5.758669    0.420225   -0.715486
     15          1           0       -4.567423   -0.700995   -1.367346
     16          1           0       -5.831853   -0.893304    1.410812
     17          1           0       -4.640981   -2.014103    0.760250
     18          1           0       -6.234403   -2.644709   -1.083663
     19          1           0       -7.432042   -1.517542   -0.429405
     20          1           0       -6.956362   -2.944960    0.506284
     21          6           0        3.834062    0.350470    0.290600
     22          6           0        2.437366   -0.256707    0.426843
     23          6           0        1.371229    0.784090    0.770192
     24          1           0        4.100869    0.854803    1.229433
     25          1           0        3.814522    1.126887   -0.486697
     26          1           0        2.459858   -1.032707    1.202687
     27          1           0        2.173930   -0.759818   -0.512357
     28          1           0        1.319558    1.553472   -0.006971
     29          1           0        1.607110    1.279033    1.717818
     30          1           0        0.380461    0.328403    0.862864
     31          6           0        4.910722   -0.677554   -0.052472
     32          6           0        6.307418   -0.070377   -0.188715
     33          6           0        7.373553   -1.111175   -0.532064
     34          1           0        4.930261   -1.453971    0.724825
     35          1           0        4.643913   -1.181888   -0.991304
     36          1           0        6.570854    0.432734    0.750486
     37          1           0        6.284925    0.705622   -0.964559
     38          1           0        7.137673   -1.606117   -1.479689
     39          1           0        7.425225   -1.880556    0.245099
     40          1           0        8.364321   -0.655487   -0.624736
 ---------------------------------------------------------------------

 SCF Done:  E(RHF) =  -470.732854650     A.U. after   11 cycles
 E2 =    -0.1582588851D+01 EUMP2 =    -0.47231544350025D+03

 The electronic state is 1-A.
 Alpha  occ. eigenvalues --  -11.21637 -11.21616 -11.21583 -11.21524 -11.21429
 Alpha  occ. eigenvalues --  -11.21376 -11.21369 -11.21316 -11.21117 -11.21083
 Alpha  occ. eigenvalues --  -11.21057 -11.20874  -1.08457  -1.08388  -1.03570
 Alpha  occ. eigenvalues --   -1.03465  -0.96044  -0.95893  -0.87094  -0.86882
 Alpha  occ. eigenvalues --   -0.79681  -0.79487  -0.78271  -0.78200  -0.65092
 Alpha  occ. eigenvalues --   -0.65019  -0.61009  -0.60851  -0.59430  -0.59262
 Alpha  occ. eigenvalues --   -0.57646  -0.57509  -0.55405  -0.55128  -0.52839
 Alpha  occ. eigenvalues --   -0.52615  -0.52428  -0.52237  -0.50050  -0.49728
 Alpha  occ. eigenvalues --   -0.47943  -0.47843  -0.46703  -0.46511  -0.45813
 Alpha  occ. eigenvalues --   -0.45752  -0.45723  -0.45663  -0.43764  -0.43728
 Alpha virt. eigenvalues --    0.21919   0.23003   0.23645   0.24931   0.26150
 Alpha virt. eigenvalues --    0.26606   0.27156   0.27318   0.27797   0.29003
 Alpha virt. eigenvalues --    0.30416   0.31179   0.31621   0.31831   0.32021

 Mulliken charges:
               1
     1  C   -0.298469
     2  C   -0.299067
     3  C   -0.485048
     4  H    0.149748
     5  H    0.148602
     6  H    0.151418
     7  H    0.151220
     8  H    0.167626
     9  H    0.154230
    10  H    0.158816
    11  C   -0.298221
    12  C   -0.299620
    13  C   -0.475681
    14  H    0.149616
    15  H    0.149527
    16  H    0.151930
    17  H    0.151781
    18  H    0.155125
    19  H    0.155176
    20  H    0.160176
    21  C   -0.298764
    22  C   -0.299597
    23  C   -0.478916
    24  H    0.149829
    25  H    0.149775
    26  H    0.151969
    27  H    0.151880
    28  H    0.157534
    29  H    0.156267
    30  H    0.160933
    31  C   -0.298328
    32  C   -0.299655
    33  C   -0.475717
    34  H    0.149569
    35  H    0.149635
    36  H    0.152011
    37  H    0.151989
    38  H    0.155179
    39  H    0.155199
    40  H    0.160325
 Sum of Mulliken charges =  -0.00000

 Dipole moment (field-independent basis, Debye):
    X=              0.0584    Y=             -0.0035    Z=              0.0159  Tot=              0.0606
 Quadrupole moment (field-independent basis, Debye-Ang):
   XX=            -85.8431   YY=            -85.2916   ZZ=            -83.8050
   XY=             -0.3879   XZ=             -0.1636   YZ=             -0.2552

 Normal termination of Gaussian 16 at Thu May  6 03:40:58 2021.
