 Gaussian 16, Revision A.03,
 Gaussian 16:  EM64L-G16RevA.03 25-Dec-2016

 -------------
 #p 6-31g* mp2
 -------------

 ------------------------------------------------------
 Input file generated by CHIRIPA (05-May-2021 14:57:23)
 ------------------------------------------------------
 Symbolic Z-matrix:
 Charge =  0 Multiplicity = 1

                         Standard orientation:
 ---------------------------------------------------------------------
 Center     Atomic      Atomic             Coordinates (Angstroms)
 Number     Number       Type             X           Y           Z
 ---------------------------------------------------------------------
      1          6           0       -5.465193    0.429224   -1.633754
      2          6           0       -5.559618   -0.717964   -0.839044
      3          6           0       -4.585246   -0.996737    0.123989
      4          6           0       -3.525183   -0.102679    0.266174
      5          6           0       -3.403223    1.048584   -0.510363
      6          6           0       -4.389194    1.307288   -1.467171
      7          1           0       -6.226613    0.637987   -2.379444
      8          1           0       -6.394145   -1.401658   -0.966215
      9          1           0       -4.633746   -1.877535    0.752686
     10          1           0       -2.559649    1.711392   -0.360412
     11          1           0       -4.313283    2.198976   -2.082943
     12          7           0       -2.487519   -0.387181    1.282399
     13          8           0       -1.563460    0.416299    1.388094
     14          8           0       -2.617906   -1.408267    1.953979
     15          6           0        3.049171    2.370340    0.669511
     16          6           0        2.296619    1.262737    1.073737
     17          6           0        2.645893   -0.024334    0.654207
     18          6           0        3.758755   -0.167972   -0.172955
     19          6           0        4.528493    0.915807   -0.592737
     20          6           0        4.160746    2.193652   -0.160972
     21          1           0        2.770672    3.366584    1.000164
     22          1           0        1.432858    1.396959    1.718676
     23          1           0        2.080897   -0.899235    0.952109
     24          1           0        5.384298    0.750431   -1.235906
     25          1           0        4.747034    3.052005   -0.476476
     26          7           0        4.138294   -1.525652   -0.623569
     27          8           0        5.123146   -1.625539   -1.352078
     28          8           0        3.443738   -2.464210   -0.239718
 ---------------------------------------------------------------------

 SCF Done:  E(RHF) =  -868.339848216     A.U. after   16 cycles
 E2 =    -0.2598369812D+01 EUMP2 =    -0.87093821802857D+03

 The electronic state is 1-A.
 Alpha  occ. eigenvalues --  -20.61466 -20.61408 -20.60096 -20.60079 -15.86479
 Alpha  occ. eigenvalues --  -15.85134 -11.31617 -11.30365 -11.28184 -11.28137
 Alpha  occ. eigenvalues --  -11.27860 -11.27137 -11.27107 -11.26972 -11.26772
 Alpha  occ. eigenvalues --  -11.26641 -11.26006 -11.25700  -1.60500  -1.59169
 Alpha  occ. eigenvalues --   -1.40062  -1.38724  -1.19767  -1.18516  -1.09204
 Alpha  occ. eigenvalues --   -1.07951  -1.05140  -1.03863  -0.96079  -0.94806
 Alpha  occ. eigenvalues --   -0.86549  -0.85281  -0.82925  -0.81613  -0.77994
 Alpha  occ. eigenvalues --   -0.76670  -0.72719  -0.71799  -0.71356  -0.70877
 Alpha  occ. eigenvalues --   -0.70491  -0.69644  -0.65429  -0.65143  -0.64156
 Alpha  occ. eigenvalues --   -0.63833  -0.62493  -0.61180  -0.55648  -0.54422
 Alpha  occ. eigenvalues --   -0.53476  -0.53232  -0.52253  -0.51919  -0.49482
 Alpha  occ. eigenvalues --   -0.49430  -0.48118  -0.48100  -0.45515  -0.44158
 Alpha  occ. eigenvalues --   -0.37731  -0.36730  -0.36538  -0.35466
 Alpha virt. eigenvalues --    0.04531   0.05810   0.10928   0.12166   0.16066
 Alpha virt. eigenvalues --    0.17333   0.21053   0.22357   0.26992   0.27748
 Alpha virt. eigenvalues --    0.28514   0.29136   0.30653   0.31775   0.32264

 Mulliken charges:
               1
     1  C   -0.169852
     2  C   -0.218383
     3  C   -0.169822
     4  C    0.158303
     5  C   -0.170017
     6  C   -0.218272
     7  H    0.227284
     8  H    0.225409
     9  H    0.277150
    10  H    0.272830
    11  H    0.224098
    12  N    0.492044
    13  O   -0.473873
    14  O   -0.455283
    15  C   -0.173571
    16  C   -0.223061
    17  C   -0.173310
    18  C    0.157510
    19  C   -0.173410
    20  C   -0.219026
    21  H    0.222355
    22  H    0.243203
    23  H    0.282134
    24  H    0.272198
    25  H    0.219251
    26  N    0.487848
    27  O   -0.464113
    28  O   -0.459623
 Sum of Mulliken charges =  -0.00000

 Dipole moment (field-independent basis, Debye):
    X=             -5.4798    Y=              5.6704    Z=             -1.8997  Tot=              8.1112
 Quadrupole moment (field-independent basis, Debye-Ang):
   XX=            -86.1966   YY=           -103.3717   ZZ=           -106.8085
   XY=             19.1505   XZ=             15.6954   YZ=             -2.9636

 Normal termination of Gaussian 16 at Fri May  7 04:54:36 2021.
