 Gaussian 16, Revision A.03,
 Gaussian 16:  EM64L-G16RevA.03 25-Dec-2016

 -------------
 #p 6-31g* mp2
 -------------

 ------------------------------------------------------
 Input file generated by CHIRIPA (05-May-2021 14:51:10)
 ------------------------------------------------------
 Symbolic Z-matrix:
 Charge =  0 Multiplicity = 1

                         Standard orientation:
 ---------------------------------------------------------------------
 Center     Atomic      Atomic             Coordinates (Angstroms)
 Number     Number       Type             X           Y           Z
 ---------------------------------------------------------------------
      1          6           0       -2.503195   -0.442555   -0.882309
      2          6           0       -3.130986   -1.543307   -0.026618
      3          6           0       -3.219953   -2.882745   -0.758592
      4          1           0       -3.091914   -0.321105   -1.801878
      5          1           0       -1.498045   -0.758527   -1.194123
      6          1           0       -4.134115   -1.224766    0.284637
      7          1           0       -2.540816   -1.662018    0.891108
      8          1           0       -2.223768   -3.226524   -1.055293
      9          1           0       -3.826120   -2.786787   -1.665210
     10          1           0       -3.671766   -3.655292   -0.128596
     11          6           0       -2.407371    0.902456   -0.164332
     12          6           0       -1.779580    2.003209   -1.020023
     13          6           0       -1.690613    3.342647   -0.288049
     14          1           0       -3.412522    1.218429    0.147482
     15          1           0       -1.818653    0.781007    0.755236
     16          1           0       -2.369751    2.121920   -1.937750
     17          1           0       -0.776452    1.684668   -1.331279
     18          1           0       -1.084447    3.246689    0.618568
     19          1           0       -2.686799    3.686426    0.008651
     20          1           0       -1.238800    4.115194   -0.918046
     21          6           0        1.923029   -0.570481    0.952479
     22          6           0        1.151832    0.401272    1.846312
     23          6           0        0.090558   -0.294948    2.698821
     24          1           0        1.214899   -1.098889    0.299577
     25          1           0        2.399921   -1.335698    1.580501
     26          1           0        0.677676    1.165231    1.216900
     27          1           0        1.861900    0.927566    2.497028
     28          1           0        0.550864   -1.044566    3.350582
     29          1           0       -0.640089   -0.805552    2.063181
     30          1           0       -0.448656    0.418257    3.330049
     31          6           0        2.987537    0.110579    0.094163
     32          6           0        3.758735   -0.861173   -0.799670
     33          6           0        4.820008   -0.164954   -1.652179
     34          1           0        2.510645    0.875796   -0.533859
     35          1           0        3.695668    0.638988    0.747065
     36          1           0        3.048666   -1.387468   -1.450387
     37          1           0        4.232890   -1.625133   -0.170259
     38          1           0        5.550656    0.345650   -1.016539
     39          1           0        4.359703    0.584664   -2.303940
     40          1           0        5.359222   -0.878159   -2.283408
 ---------------------------------------------------------------------

 SCF Done:  E(RHF) =  -470.732103623     A.U. after   11 cycles
 E2 =    -0.1585563435D+01 EUMP2 =    -0.47231766705814D+03

 The electronic state is 1-A.
 Alpha  occ. eigenvalues --  -11.21687 -11.21651 -11.21631 -11.21629 -11.21485
 Alpha  occ. eigenvalues --  -11.21422 -11.21421 -11.21305 -11.21136 -11.21104
 Alpha  occ. eigenvalues --  -11.21098 -11.21096  -1.08552  -1.08417  -1.03618
 Alpha  occ. eigenvalues --   -1.03552  -0.96079  -0.95983  -0.87074  -0.87020
 Alpha  occ. eigenvalues --   -0.79691  -0.79606  -0.78320  -0.78276  -0.65615
 Alpha  occ. eigenvalues --   -0.64736  -0.61107  -0.60850  -0.59442  -0.59341
 Alpha  occ. eigenvalues --   -0.57658  -0.57616  -0.55503  -0.55168  -0.52746
 Alpha  occ. eigenvalues --   -0.52704  -0.52500  -0.52400  -0.50049  -0.49953
 Alpha  occ. eigenvalues --   -0.48018  -0.47953  -0.46826  -0.46537  -0.46000
 Alpha  occ. eigenvalues --   -0.45778  -0.45702  -0.45464  -0.43855  -0.43801
 Alpha virt. eigenvalues --    0.18831   0.22405   0.23253   0.24685   0.25559
 Alpha virt. eigenvalues --    0.26066   0.27006   0.28231   0.29175   0.29335
 Alpha virt. eigenvalues --    0.30415   0.31308   0.31422   0.31920   0.32352

 Mulliken charges:
               1
     1  C   -0.299466
     2  C   -0.306088
     3  C   -0.475266
     4  H    0.150137
     5  H    0.149225
     6  H    0.152635
     7  H    0.157028
     8  H    0.154897
     9  H    0.155345
    10  H    0.160549
    11  C   -0.307990
    12  C   -0.300107
    13  C   -0.478134
    14  H    0.149481
    15  H    0.161957
    16  H    0.152328
    17  H    0.151015
    18  H    0.156819
    19  H    0.155611
    20  H    0.160401
    21  C   -0.299273
    22  C   -0.306549
    23  C   -0.485374
    24  H    0.149969
    25  H    0.150186
    26  H    0.157535
    27  H    0.152974
    28  H    0.156930
    29  H    0.161904
    30  H    0.160802
    31  C   -0.298947
    32  C   -0.299691
    33  C   -0.475775
    34  H    0.149742
    35  H    0.150110
    36  H    0.151837
    37  H    0.152128
    38  H    0.155301
    39  H    0.155353
    40  H    0.160462
 Sum of Mulliken charges =  -0.00000

 Dipole moment (field-independent basis, Debye):
    X=              0.0058    Y=             -0.0035    Z=              0.0325  Tot=              0.0332
 Quadrupole moment (field-independent basis, Debye-Ang):
   XX=            -84.0017   YY=            -85.9065   ZZ=            -84.7105
   XY=             -0.7526   XZ=              1.3032   YZ=             -0.3473

 Normal termination of Gaussian 16 at Thu May  6 03:49:20 2021.
