 Gaussian 16, Revision A.03,
 Gaussian 16:  EM64L-G16RevA.03 25-Dec-2016

 -------------
 #p 6-31g* mp2
 -------------

 ------------------------------------------------------
 Input file generated by CHIRIPA (05-May-2021 14:57:26)
 ------------------------------------------------------
 Symbolic Z-matrix:
 Charge =  0 Multiplicity = 1

                         Standard orientation:
 ---------------------------------------------------------------------
 Center     Atomic      Atomic             Coordinates (Angstroms)
 Number     Number       Type             X           Y           Z
 ---------------------------------------------------------------------
      1          6           0       -1.507742   -2.473152    0.490639
      2          6           0       -1.596038   -1.965936   -0.809921
      3          6           0       -2.130381   -0.694969   -1.041588
      4          6           0       -2.568875    0.044963    0.055459
      5          6           0       -2.494252   -0.432755    1.362940
      6          6           0       -1.956340   -1.706294    1.571014
      7          1           0       -1.091265   -3.461469    0.661439
      8          1           0       -1.248433   -2.559258   -1.650864
      9          1           0       -2.210515   -0.277916   -2.038114
     10          1           0       -2.849002    0.182192    2.181116
     11          1           0       -1.889002   -2.097649    2.582128
     12          7           0       -3.136450    1.391840   -0.177308
     13          8           0       -3.515808    2.023887    0.806176
     14          8           0       -3.191209    1.789974   -1.338828
     15          6           0        2.769403    2.635854    0.389470
     16          6           0        2.267975    2.220888   -0.848630
     17          6           0        2.100874    0.861131   -1.127355
     18          6           0        2.446903   -0.060692   -0.140545
     19          6           0        2.948877    0.321416    1.102558
     20          6           0        3.107658    1.686468    1.359403
     21          1           0        2.895979    3.694204    0.597493
     22          1           0        2.004448    2.955967   -1.603784
     23          1           0        1.714794    0.512230   -2.077423
     24          1           0        3.202788   -0.434810    1.835409
     25          1           0        3.497295    2.005839    2.321812
     26          7           0        2.274405   -1.503009   -0.424036
     27          8           0        2.586675   -2.295329    0.462165
     28          8           0        1.830198   -1.813866   -1.527071
 ---------------------------------------------------------------------

 SCF Done:  E(RHF) =  -868.340682560     A.U. after   16 cycles
 E2 =    -0.2600279139D+01 EUMP2 =    -0.87094096169984D+03

 The electronic state is 1-A.
 Alpha  occ. eigenvalues --  -20.61364 -20.61356 -20.60607 -20.60599 -15.86374
 Alpha  occ. eigenvalues --  -15.85647 -11.31431 -11.30772 -11.27976 -11.27950
 Alpha  occ. eigenvalues --  -11.27620 -11.27302 -11.27237 -11.26919 -11.26863
 Alpha  occ. eigenvalues --  -11.26823 -11.26261 -11.26075  -1.60417  -1.59687
 Alpha  occ. eigenvalues --   -1.39985  -1.39247  -1.19567  -1.18887  -1.09015
 Alpha  occ. eigenvalues --   -1.08296  -1.04927  -1.04236  -0.95910  -0.95182
 Alpha  occ. eigenvalues --   -0.86337  -0.85621  -0.82762  -0.82019  -0.77847
 Alpha  occ. eigenvalues --   -0.77126  -0.72632  -0.71871  -0.71715  -0.71008
 Alpha  occ. eigenvalues --   -0.70673  -0.69914  -0.65227  -0.64924  -0.64508
 Alpha  occ. eigenvalues --   -0.64177  -0.62286  -0.61579  -0.55427  -0.54645
 Alpha  occ. eigenvalues --   -0.53268  -0.53015  -0.52597  -0.52285  -0.49394
 Alpha  occ. eigenvalues --   -0.49354  -0.48641  -0.48599  -0.45465  -0.44709
 Alpha  occ. eigenvalues --   -0.37517  -0.36819  -0.36509  -0.35812
 Alpha virt. eigenvalues --    0.04654   0.05378   0.11131   0.11837   0.16206
 Alpha virt. eigenvalues --    0.16998   0.21276   0.22161   0.27156   0.27778
 Alpha virt. eigenvalues --    0.28412   0.29004   0.30924   0.31760   0.32329

 Mulliken charges:
               1
     1  C   -0.173229
     2  C   -0.212734
     3  C   -0.177712
     4  C    0.157878
     5  C   -0.173918
     6  C   -0.219626
     7  H    0.234386
     8  H    0.235811
     9  H    0.272004
    10  H    0.272065
    11  H    0.222266
    12  N    0.488091
    13  O   -0.462843
    14  O   -0.464006
    15  C   -0.169200
    16  C   -0.217473
    17  C   -0.170035
    18  C    0.159682
    19  C   -0.171324
    20  C   -0.218486
    21  H    0.228571
    22  H    0.227990
    23  H    0.273543
    24  H    0.273543
    25  H    0.224055
    26  N    0.490289
    27  O   -0.463393
    28  O   -0.466196
 Sum of Mulliken charges =  -0.00000

 Dipole moment (field-independent basis, Debye):
    X=              2.8068    Y=              0.2536    Z=              1.7670  Tot=              3.3264
 Quadrupole moment (field-independent basis, Debye-Ang):
   XX=           -113.5775   YY=           -105.9334   ZZ=            -96.2145
   XY=             25.1416   XZ=              1.5325   YZ=             -1.4670

 Normal termination of Gaussian 16 at Thu May  6 18:08:47 2021.
