 Gaussian 16, Revision A.03,
 Gaussian 16:  EM64L-G16RevA.03 25-Dec-2016

 -------------
 #p 6-31g* mp2
 -------------

 ------------------------------------------------------
 Input file generated by CHIRIPA (05-May-2021 14:51:09)
 ------------------------------------------------------
 Symbolic Z-matrix:
 Charge =  0 Multiplicity = 1

                         Standard orientation:
 ---------------------------------------------------------------------
 Center     Atomic      Atomic             Coordinates (Angstroms)
 Number     Number       Type             X           Y           Z
 ---------------------------------------------------------------------
      1          6           0        2.517675    0.789907   -0.240318
      2          6           0        3.530770    1.874672    0.126980
      3          6           0        3.142889    3.252338   -0.410962
      4          1           0        2.419462    0.743892   -1.333561
      5          1           0        1.530402    1.072542    0.150583
      6          1           0        4.516122    1.589406   -0.263303
      7          1           0        3.626726    1.917979    1.219469
      8          1           0        2.171775    3.562374   -0.011693
      9          1           0        3.066225    3.231934   -1.502890
     10          1           0        3.880825    4.012707   -0.136826
     11          6           0        2.891594   -0.592937    0.290396
     12          6           0        1.878499   -1.677702   -0.076901
     13          6           0        2.266380   -3.055367    0.461040
     14          1           0        3.878868   -0.875572   -0.100504
     15          1           0        2.989807   -0.546922    1.383640
     16          1           0        1.782543   -1.721009   -1.169391
     17          1           0        0.893147   -1.392435    0.313382
     18          1           0        2.343044   -3.034963    1.552968
     19          1           0        3.237494   -3.365404    0.061771
     20          1           0        1.528444   -3.815736    0.186905
     21          6           0       -2.145020   -0.618161   -0.010844
     22          6           0       -2.622197   -2.032331   -0.343127
     23          6           0       -1.491225   -3.060747   -0.310674
     24          1           0       -1.361098   -0.325783   -0.722831
     25          1           0       -1.678621   -0.620364    0.984074
     26          1           0       -3.088799   -2.027178   -1.336541
     27          1           0       -3.405210   -2.321302    0.369616
     28          1           0       -1.030305   -3.095291    0.681779
     29          1           0       -0.712096   -2.799495   -1.034073
     30          1           0       -1.854544   -4.064758   -0.551133
     31          6           0       -3.264249    0.421191   -0.039234
     32          6           0       -2.787072    1.835360    0.293048
     33          6           0       -3.918045    2.863777    0.260595
     34          1           0       -3.730648    0.423394   -1.034151
     35          1           0       -4.048171    0.128813    0.672753
     36          1           0       -2.004060    2.124331   -0.419694
     37          1           0       -2.320471    1.830207    1.286464
     38          1           0       -4.697173    2.602525    0.983996
     39          1           0       -4.378964    2.898321   -0.731857
     40          1           0       -3.554725    3.867788    0.501056
 ---------------------------------------------------------------------

 SCF Done:  E(RHF) =  -470.731709859     A.U. after   11 cycles
 E2 =    -0.1584950727D+01 EUMP2 =    -0.47231666058656D+03

 The electronic state is 1-A.
 Alpha  occ. eigenvalues --  -11.21636 -11.21608 -11.21566 -11.21433 -11.21424
 Alpha  occ. eigenvalues --  -11.21374 -11.21338 -11.21266 -11.21095 -11.21047
 Alpha  occ. eigenvalues --  -11.20997 -11.20936  -1.08480  -1.08341  -1.03610
 Alpha  occ. eigenvalues --   -1.03401  -0.96061  -0.95849  -0.87043  -0.86900
 Alpha  occ. eigenvalues --   -0.79757  -0.79441  -0.78439  -0.77997  -0.65091
 Alpha  occ. eigenvalues --   -0.64992  -0.60990  -0.60842  -0.59511  -0.59204
 Alpha  occ. eigenvalues --   -0.57890  -0.57236  -0.55316  -0.55162  -0.52770
 Alpha  occ. eigenvalues --   -0.52622  -0.52489  -0.52119  -0.49943  -0.49855
 Alpha  occ. eigenvalues --   -0.48103  -0.47712  -0.46677  -0.46583  -0.46166
 Alpha  occ. eigenvalues --   -0.45805  -0.45596  -0.45102  -0.43824  -0.43679
 Alpha virt. eigenvalues --    0.21615   0.22991   0.23398   0.24790   0.25446
 Alpha virt. eigenvalues --    0.25651   0.26762   0.27214   0.29046   0.29802
 Alpha virt. eigenvalues --    0.30221   0.30968   0.31245   0.31634   0.32095

 Mulliken charges:
               1
     1  C   -0.299657
     2  C   -0.299437
     3  C   -0.475750
     4  H    0.148670
     5  H    0.150993
     6  H    0.151886
     7  H    0.151840
     8  H    0.155285
     9  H    0.154867
    10  H    0.160127
    11  C   -0.297430
    12  C   -0.307045
    13  C   -0.479207
    14  H    0.148809
    15  H    0.148931
    16  H    0.148846
    17  H    0.163652
    18  H    0.153755
    19  H    0.154425
    20  H    0.165227
    21  C   -0.302339
    22  C   -0.299399
    23  C   -0.481011
    24  H    0.153325
    25  H    0.148574
    26  H    0.151755
    27  H    0.151608
    28  H    0.156620
    29  H    0.161948
    30  H    0.159478
    31  C   -0.297804
    32  C   -0.300185
    33  C   -0.475682
    34  H    0.149785
    35  H    0.149697
    36  H    0.152546
    37  H    0.151317
    38  H    0.155246
    39  H    0.155386
    40  H    0.160350
 Sum of Mulliken charges =  -0.00000

 Dipole moment (field-independent basis, Debye):
    X=             -0.0530    Y=             -0.0123    Z=             -0.0097  Tot=              0.0553
 Quadrupole moment (field-independent basis, Debye-Ang):
   XX=            -85.2620   YY=            -86.6232   ZZ=            -83.1476
   XY=              0.6872   XZ=             -0.6466   YZ=              0.3376

 Normal termination of Gaussian 16 at Thu May  6 03:44:13 2021.
