 Gaussian 16, Revision A.03,
 Gaussian 16:  EM64L-G16RevA.03 25-Dec-2016

 -------------
 #p 6-31g* mp2
 -------------

 ------------------------------------------------------
 Input file generated by CHIRIPA (05-May-2021 14:57:25)
 ------------------------------------------------------
 Symbolic Z-matrix:
 Charge =  0 Multiplicity = 1

                         Standard orientation:
 ---------------------------------------------------------------------
 Center     Atomic      Atomic             Coordinates (Angstroms)
 Number     Number       Type             X           Y           Z
 ---------------------------------------------------------------------
      1          6           0       -2.091541    1.672581    0.246373
      2          6           0       -3.365573    2.249959    0.247031
      3          6           0       -4.503324    1.459705    0.058432
      4          6           0       -4.329559    0.089288   -0.128788
      5          6           0       -3.073587   -0.515519   -0.134597
      6          6           0       -1.949865    0.294116    0.055896
      7          1           0       -1.213158    2.293997    0.393617
      8          1           0       -3.478617    3.320217    0.394722
      9          1           0       -5.501440    1.880617    0.054396
     10          1           0       -2.992679   -1.585312   -0.284313
     11          1           0       -0.961672   -0.157016    0.054908
     12          7           0       -5.526620   -0.757577   -0.329453
     13          8           0       -5.346703   -1.962463   -0.492291
     14          8           0       -6.622126   -0.200428   -0.320096
     15          6           0        6.088360    1.061650   -0.839277
     16          6           0        5.067524    1.733452   -0.158766
     17          6           0        3.978944    1.028604    0.363473
     18          6           0        3.943161   -0.353623    0.186108
     19          6           0        4.944704   -1.051486   -0.487087
     20          6           0        6.023806   -0.326228   -1.000981
     21          1           0        6.930314    1.617120   -1.241723
     22          1           0        5.115018    2.811246   -0.031682
     23          1           0        3.174931    1.523517    0.894548
     24          1           0        4.869549   -2.126420   -0.597930
     25          1           0        6.815163   -0.850598   -1.529029
     26          7           0        2.795748   -1.110617    0.734561
     27          8           0        2.787701   -2.327908    0.564928
     28          8           0        1.926178   -0.472325    1.323687
 ---------------------------------------------------------------------

 SCF Done:  E(RHF) =  -868.339592528     A.U. after   16 cycles
 E2 =    -0.2598434813D+01 EUMP2 =    -0.87093802734053D+03

 The electronic state is 1-A.
 Alpha  occ. eigenvalues --  -20.61813 -20.61753 -20.60147 -20.60134 -15.86807
 Alpha  occ. eigenvalues --  -15.85188 -11.31966 -11.30440 -11.28542 -11.28475
 Alpha  occ. eigenvalues --  -11.28190 -11.27482 -11.27439 -11.27025 -11.26893
 Alpha  occ. eigenvalues --  -11.26693 -11.26060 -11.25782  -1.60845  -1.59220
 Alpha  occ. eigenvalues --   -1.40405  -1.38777  -1.20114  -1.18584  -1.09543
 Alpha  occ. eigenvalues --   -1.08004  -1.05485  -1.03949  -0.96413  -0.94865
 Alpha  occ. eigenvalues --   -0.86892  -0.85351  -0.83253  -0.81685  -0.78332
 Alpha  occ. eigenvalues --   -0.76745  -0.73027  -0.72152  -0.71411  -0.71214
 Alpha  occ. eigenvalues --   -0.70541  -0.69711  -0.65768  -0.65481  -0.64228
 Alpha  occ. eigenvalues --   -0.63913  -0.62839  -0.61278  -0.55980  -0.54480
 Alpha  occ. eigenvalues --   -0.53823  -0.53572  -0.52312  -0.52014  -0.49801
 Alpha  occ. eigenvalues --   -0.49760  -0.48172  -0.48156  -0.45845  -0.44207
 Alpha  occ. eigenvalues --   -0.38073  -0.37079  -0.36576  -0.35548
 Alpha virt. eigenvalues --    0.04157   0.05751   0.10579   0.12101   0.15680
 Alpha virt. eigenvalues --    0.17283   0.20706   0.22283   0.26632   0.27464
 Alpha virt. eigenvalues --    0.28379   0.28986   0.30447   0.31736   0.31999

 Mulliken charges:
               1
     1  C   -0.171720
     2  C   -0.218681
     3  C   -0.172919
     4  C    0.158402
     5  C   -0.172686
     6  C   -0.222751
     7  H    0.222062
     8  H    0.219276
     9  H    0.272697
    10  H    0.276948
    11  H    0.241673
    12  N    0.488038
    13  O   -0.460525
    14  O   -0.463169
    15  C   -0.169854
    16  C   -0.218166
    17  C   -0.171309
    18  C    0.157956
    19  C   -0.170207
    20  C   -0.218279
    21  H    0.228211
    22  H    0.224579
    23  H    0.271697
    24  H    0.277482
    25  H    0.226267
    26  N    0.488367
    27  O   -0.454671
    28  O   -0.468720
 Sum of Mulliken charges =  -0.00000

 Dipole moment (field-independent basis, Debye):
    X=              8.7927    Y=              5.4989    Z=             -1.2668  Tot=             10.4477
 Quadrupole moment (field-independent basis, Debye-Ang):
   XX=           -107.6561   YY=            -99.6744   ZZ=           -106.7311
   XY=             -7.7701   XZ=            -12.0701   YZ=              2.9160

 Normal termination of Gaussian 16 at Thu May  6 01:54:20 2021.
