 Gaussian 16, Revision A.03,
 Gaussian 16:  EM64L-G16RevA.03 25-Dec-2016

 -------------
 #p 6-31g* mp2
 -------------

 ------------------------------------------------------
 Input file generated by CHIRIPA (05-May-2021 14:51:12)
 ------------------------------------------------------
 Symbolic Z-matrix:
 Charge =  0 Multiplicity = 1

                         Standard orientation:
 ---------------------------------------------------------------------
 Center     Atomic      Atomic             Coordinates (Angstroms)
 Number     Number       Type             X           Y           Z
 ---------------------------------------------------------------------
      1          6           0        4.017791   -0.533211    0.002939
      2          6           0        5.036808    0.545158   -0.366805
      3          6           0        6.397207   -0.035121   -0.754597
      4          1           0        4.412989   -1.132410    0.834638
      5          1           0        3.896054   -1.219493   -0.846527
      6          1           0        5.155556    1.230004    0.482607
      7          1           0        4.639055    1.141980   -1.197595
      8          1           0        6.299601   -0.702922   -1.616639
      9          1           0        6.819036   -0.614399    0.073110
     10          1           0        7.110390    0.753139   -1.015128
     11          6           0        2.652888    0.031293    0.392941
     12          6           0        1.633871   -1.047076    0.762685
     13          6           0        0.273471   -0.466797    1.150477
     14          1           0        2.774625    0.717575    1.242407
     15          1           0        2.257690    0.630492   -0.438758
     16          1           0        2.031623   -1.643898    1.593475
     17          1           0        1.515123   -1.731921   -0.086727
     18          1           0       -0.148357    0.112481    0.322770
     19          1           0        0.371078    0.201004    2.012519
     20          1           0       -0.439711   -1.255057    1.411008
     21          6           0       -3.542353    0.985755   -0.223485
     22          6           0       -2.381978    1.951433    0.019376
     23          6           0       -2.811921    3.417721   -0.034851
     24          1           0       -3.991885    1.201569   -1.202408
     25          1           0       -4.324551    1.167446    0.526548
     26          1           0       -1.601604    1.767039   -0.730044
     27          1           0       -1.935035    1.733168    0.997751
     28          1           0       -3.573995    3.624026    0.723623
     29          1           0       -3.238669    3.658088   -1.013988
     30          1           0       -1.966945    4.090633    0.141405
     31          6           0       -3.128325   -0.483837   -0.172395
     32          6           0       -4.288700   -1.449514   -0.415256
     33          6           0       -3.858758   -2.915804   -0.361029
     34          1           0       -2.346128   -0.665528   -0.922429
     35          1           0       -2.678794   -0.699651    0.806529
     36          1           0       -4.735644   -1.231251   -1.393631
     37          1           0       -5.069075   -1.265121    0.334164
     38          1           0       -3.432010   -3.156171    0.618109
     39          1           0       -3.096684   -3.122108   -1.119503
     40          1           0       -4.703733   -3.588715   -0.537285
 ---------------------------------------------------------------------

 SCF Done:  E(RHF) =  -470.730633810     A.U. after   11 cycles
 E2 =    -0.1584692256D+01 EUMP2 =    -0.47231532606609D+03

 The electronic state is 1-A.
 Alpha  occ. eigenvalues --  -11.21581 -11.21547 -11.21545 -11.21500 -11.21365
 Alpha  occ. eigenvalues --  -11.21342 -11.21305 -11.21240 -11.21061 -11.21056
 Alpha  occ. eigenvalues --  -11.21037 -11.20837  -1.08432  -1.08345  -1.03511
 Alpha  occ. eigenvalues --   -1.03458  -0.95996  -0.95878  -0.86974  -0.86958
 Alpha  occ. eigenvalues --   -0.79690  -0.79530  -0.78319  -0.78006  -0.65051
 Alpha  occ. eigenvalues --   -0.64994  -0.60923  -0.60858  -0.59437  -0.59232
 Alpha  occ. eigenvalues --   -0.57633  -0.57459  -0.55239  -0.55226  -0.52807
 Alpha  occ. eigenvalues --   -0.52686  -0.52372  -0.52187  -0.49925  -0.49873
 Alpha  occ. eigenvalues --   -0.48171  -0.47584  -0.46734  -0.46562  -0.45908
 Alpha  occ. eigenvalues --   -0.45729  -0.45627  -0.45228  -0.43752  -0.43590
 Alpha virt. eigenvalues --    0.22068   0.23076   0.23914   0.24196   0.25350
 Alpha virt. eigenvalues --    0.26233   0.26994   0.27691   0.27843   0.29912
 Alpha virt. eigenvalues --    0.30063   0.30927   0.31702   0.31953   0.32407

 Mulliken charges:
               1
     1  C   -0.298139
     2  C   -0.299555
     3  C   -0.475661
     4  H    0.149633
     5  H    0.149313
     6  H    0.151855
     7  H    0.151751
     8  H    0.155109
     9  H    0.155162
    10  H    0.160148
    11  C   -0.298258
    12  C   -0.300356
    13  C   -0.480424
    14  H    0.149298
    15  H    0.148949
    16  H    0.150910
    17  H    0.151145
    18  H    0.165724
    19  H    0.152135
    20  H    0.160338
    21  C   -0.297252
    22  C   -0.304152
    23  C   -0.474928
    24  H    0.148880
    25  H    0.149101
    26  H    0.150310
    27  H    0.158172
    28  H    0.155030
    29  H    0.154734
    30  H    0.160103
    31  C   -0.301628
    32  C   -0.299272
    33  C   -0.475663
    34  H    0.148603
    35  H    0.156378
    36  H    0.151331
    37  H    0.151485
    38  H    0.154413
    39  H    0.154984
    40  H    0.160295
 Sum of Mulliken charges =  -0.00000

 Dipole moment (field-independent basis, Debye):
    X=             -0.0303    Y=              0.0161    Z=              0.0152  Tot=              0.0375
 Quadrupole moment (field-independent basis, Debye-Ang):
   XX=            -86.0392   YY=            -86.2084   ZZ=            -82.9323
   XY=              0.4801   XZ=              0.2978   YZ=             -0.0003

 Normal termination of Gaussian 16 at Wed May  5 15:17:58 2021.
