 Gaussian 16, Revision A.03,
 Gaussian 16:  EM64L-G16RevA.03 25-Dec-2016

 -------------
 #p 6-31g* mp2
 -------------

 ------------------------------------------------------
 Input file generated by CHIRIPA (05-May-2021 14:55:21)
 ------------------------------------------------------
 Symbolic Z-matrix:
 Charge =  0 Multiplicity = 1

                         Standard orientation:
 ---------------------------------------------------------------------
 Center     Atomic      Atomic             Coordinates (Angstroms)
 Number     Number       Type             X           Y           Z
 ---------------------------------------------------------------------
      1          6           0        3.984443   -2.200904   -0.061883
      2          6           0        2.835780   -1.833372    0.646648
      3          6           0        2.444373   -0.493158    0.718580
      4          6           0        3.228525    0.457706    0.067233
      5          6           0        4.378206    0.122983   -0.646549
      6          6           0        4.750639   -1.223277   -0.705086
      7          1           0        4.281127   -3.244363   -0.112559
      8          1           0        2.238821   -2.590467    1.147140
      9          1           0        1.559740   -0.180870    1.260170
     10          1           0        4.953040    0.900273   -1.135223
     11          1           0        5.643190   -1.505797   -1.256067
     12          7           0        2.824203    1.879731    0.136294
     13          8           0        3.532134    2.698379   -0.446189
     14          8           0        1.807022    2.148739    0.771599
     15          6           0       -3.475566   -0.121687    0.003026
     16          6           0       -2.570321   -1.350362   -0.091193
     17          6           0       -1.088349   -1.005740    0.059762
     18          1           0       -3.184761    0.600431   -0.772167
     19          1           0       -3.310008    0.373826    0.969697
     20          1           0       -2.738543   -1.844194   -1.056826
     21          1           0       -2.863439   -2.069721    0.684190
     22          1           0       -0.899499   -0.533293    1.029158
     23          1           0       -0.773892   -0.306485   -0.721750
     24          1           0       -0.459332   -1.898614   -0.010776
     25          6           0       -4.960049   -0.450061   -0.146004
     26          6           0       -5.865294    0.778613   -0.051785
     27          6           0       -7.347267    0.433992   -0.202739
     28          1           0       -5.125606   -0.945574   -1.112675
     29          1           0       -5.250854   -1.172178    0.629188
     30          1           0       -5.572175    1.497973   -0.827169
     31          1           0       -5.697072    1.272445    0.913848
     32          1           0       -7.661722   -0.265264    0.578772
     33          1           0       -7.536116   -0.038455   -1.172136
     34          1           0       -7.976283    1.326866   -0.132202
 ---------------------------------------------------------------------

 SCF Done:  E(RHF) =  -669.535275425     A.U. after   15 cycles
 E2 =    -0.2091776602D+01 EUMP2 =    -0.67162705202751D+03

 The electronic state is 1-A.
 Alpha  occ. eigenvalues --  -20.60712 -20.60706 -15.85763 -11.31096 -11.27697
 Alpha  occ. eigenvalues --  -11.27633 -11.27443 -11.26702 -11.26679 -11.21767
 Alpha  occ. eigenvalues --  -11.21500 -11.21401 -11.21367 -11.21308 -11.20989
 Alpha  occ. eigenvalues --   -1.59787  -1.39340  -1.19287  -1.08689  -1.08436
 Alpha  occ. eigenvalues --   -1.04690  -1.03588  -0.96062  -0.95518  -0.87095
 Alpha  occ. eigenvalues --   -0.86081  -0.82356  -0.79671  -0.78225  -0.77390
 Alpha  occ. eigenvalues --   -0.71983  -0.71110  -0.70401  -0.65068  -0.64941
 Alpha  occ. eigenvalues --   -0.64698  -0.62062  -0.60976  -0.59430  -0.57649
 Alpha  occ. eigenvalues --   -0.55364  -0.55178  -0.53158  -0.52884  -0.52638
 Alpha  occ. eigenvalues --   -0.52353  -0.49984  -0.48741  -0.48737  -0.47957
 Alpha  occ. eigenvalues --   -0.46670  -0.45770  -0.45681  -0.44748  -0.43841
 Alpha  occ. eigenvalues --   -0.37278  -0.36253
 Alpha virt. eigenvalues --    0.05108   0.11319   0.16547   0.20907   0.22908
 Alpha virt. eigenvalues --    0.24151   0.25919   0.26768   0.27183   0.27981
 Alpha virt. eigenvalues --    0.29315   0.29378   0.31459   0.31744   0.32411

 Mulliken charges:
               1
     1  C   -0.170819
     2  C   -0.221670
     3  C   -0.167576
     4  C    0.155919
     5  C   -0.170673
     6  C   -0.219034
     7  H    0.225210
     8  H    0.223363
     9  H    0.281476
    10  H    0.275266
    11  H    0.223019
    12  N    0.487748
    13  O   -0.460881
    14  O   -0.460668
    15  C   -0.299057
    16  C   -0.300452
    17  C   -0.480653
    18  H    0.153455
    19  H    0.152251
    20  H    0.152297
    21  H    0.150076
    22  H    0.154200
    23  H    0.164124
    24  H    0.153068
    25  C   -0.298490
    26  C   -0.299928
    27  C   -0.475761
    28  H    0.148905
    29  H    0.148519
    30  H    0.153530
    31  H    0.153124
    32  H    0.154512
    33  H    0.154740
    34  H    0.160861
 Sum of Mulliken charges =  -0.00000

 Dipole moment (field-independent basis, Debye):
    X=              1.3435    Y=             -4.9330    Z=             -0.2703  Tot=              5.1198
 Quadrupole moment (field-independent basis, Debye-Ang):
   XX=            -83.9454   YY=            -99.8591   ZZ=            -92.8285
   XY=            -14.8924   XZ=             -3.4110   YZ=             -1.3974

 Normal termination of Gaussian 16 at Thu May  6 07:46:04 2021.
