 Gaussian 16, Revision A.03,
 Gaussian 16:  EM64L-G16RevA.03 25-Dec-2016

 -------------
 #p 6-31g* mp2
 -------------

 ------------------------------------------------------
 Input file generated by CHIRIPA (05-May-2021 14:51:12)
 ------------------------------------------------------
 Symbolic Z-matrix:
 Charge =  0 Multiplicity = 1

                         Standard orientation:
 ---------------------------------------------------------------------
 Center     Atomic      Atomic             Coordinates (Angstroms)
 Number     Number       Type             X           Y           Z
 ---------------------------------------------------------------------
      1          6           0       -2.013395   -1.011964    0.093981
      2          6           0       -1.759495   -1.900935    1.311869
      3          6           0       -0.342798   -2.475399    1.339390
      4          1           0       -1.834328   -1.593873   -0.820492
      5          1           0       -1.283522   -0.190586    0.089739
      6          1           0       -2.490508   -2.719609    1.314566
      7          1           0       -1.939373   -1.316897    2.223548
      8          1           0        0.398953   -1.670453    1.361049
      9          1           0       -0.155314   -3.081136    0.446902
     10          1           0       -0.182995   -3.107733    2.218296
     11          6           0       -3.425340   -0.430235    0.052367
     12          6           0       -3.679241    0.458736   -1.165521
     13          6           0       -5.095937    1.033200   -1.193042
     14          1           0       -4.155213   -1.251613    0.056609
     15          1           0       -3.604408    0.151674    0.966840
     16          1           0       -3.499362   -0.125302   -2.077200
     17          1           0       -2.948227    1.277410   -1.168218
     18          1           0       -5.283421    1.638936   -0.300555
     19          1           0       -5.837688    0.228254   -1.214701
     20          1           0       -5.255740    1.665534   -2.071948
     21          6           0        2.862027   -0.026845   -0.133671
     22          6           0        4.022786   -0.348503   -1.075562
     23          6           0        4.296018   -1.848807   -1.186144
     24          1           0        3.082242   -0.435263    0.862143
     25          1           0        1.957673   -0.539974   -0.488968
     26          1           0        4.924358    0.166194   -0.719374
     27          1           0        3.799867    0.060895   -2.069201
     28          1           0        3.412816   -2.374456   -1.563301
     29          1           0        4.543696   -2.268558   -0.205805
     30          1           0        5.129596   -2.056146   -1.864392
     31          6           0        2.576708    1.469043   -0.012677
     32          6           0        1.415949    1.790703    0.929215
     33          6           0        1.142717    3.291006    1.039797
     34          1           0        3.481062    1.982174    0.342620
     35          1           0        2.356493    1.877462   -1.008491
     36          1           0        1.638868    1.381305    1.922853
     37          1           0        0.514379    1.276005    0.573026
     38          1           0        0.895040    3.710757    0.059457
     39          1           0        2.025919    3.816655    1.416953
     40          1           0        0.309140    3.498345    1.718044
 ---------------------------------------------------------------------

 SCF Done:  E(RHF) =  -470.733042996     A.U. after   11 cycles
 E2 =    -0.1584100661D+01 EUMP2 =    -0.47231714365677D+03

 The electronic state is 1-A.
 Alpha  occ. eigenvalues --  -11.21664 -11.21620 -11.21596 -11.21571 -11.21424
 Alpha  occ. eigenvalues --  -11.21410 -11.21351 -11.21350 -11.21134 -11.21082
 Alpha  occ. eigenvalues --  -11.21048 -11.20974  -1.08476  -1.08415  -1.03558
 Alpha  occ. eigenvalues --   -1.03514  -0.96011  -0.95954  -0.87031  -0.86966
 Alpha  occ. eigenvalues --   -0.79634  -0.79588  -0.78401  -0.78125  -0.65210
 Alpha  occ. eigenvalues --   -0.64955  -0.60997  -0.60877  -0.59380  -0.59325
 Alpha  occ. eigenvalues --   -0.57685  -0.57517  -0.55317  -0.55220  -0.52703
 Alpha  occ. eigenvalues --   -0.52653  -0.52506  -0.52312  -0.50008  -0.49848
 Alpha  occ. eigenvalues --   -0.47970  -0.47938  -0.46859  -0.46594  -0.46144
 Alpha  occ. eigenvalues --   -0.45756  -0.45743  -0.45086  -0.43805  -0.43773
 Alpha virt. eigenvalues --    0.20561   0.23167   0.23873   0.24150   0.25642
 Alpha virt. eigenvalues --    0.25967   0.27011   0.27627   0.28030   0.29927
 Alpha virt. eigenvalues --    0.31153   0.31368   0.31751   0.31858   0.32048

 Mulliken charges:
               1
     1  C   -0.308262
     2  C   -0.298705
     3  C   -0.481768
     4  H    0.149209
     5  H    0.157819
     6  H    0.151711
     7  H    0.151767
     8  H    0.163062
     9  H    0.154133
    10  H    0.159630
    11  C   -0.297535
    12  C   -0.299709
    13  C   -0.475688
    14  H    0.149747
    15  H    0.149696
    16  H    0.151839
    17  H    0.151433
    18  H    0.155303
    19  H    0.155269
    20  H    0.160247
    21  C   -0.302607
    22  C   -0.299588
    23  C   -0.475645
    24  H    0.150029
    25  H    0.154067
    26  H    0.151818
    27  H    0.151876
    28  H    0.155489
    29  H    0.155453
    30  H    0.160068
    31  C   -0.297213
    32  C   -0.310429
    33  C   -0.475115
    34  H    0.149663
    35  H    0.149607
    36  H    0.152089
    37  H    0.160289
    38  H    0.155265
    39  H    0.155687
    40  H    0.160001
 Sum of Mulliken charges =  -0.00000

 Dipole moment (field-independent basis, Debye):
    X=              0.0245    Y=              0.0133    Z=             -0.0012  Tot=              0.0279
 Quadrupole moment (field-independent basis, Debye-Ang):
   XX=            -85.3237   YY=            -85.5123   ZZ=            -83.9452
   XY=              1.0903   XZ=              0.5983   YZ=              0.3890

 Normal termination of Gaussian 16 at Wed May  5 23:10:27 2021.
