 Gaussian 16, Revision A.03,
 Gaussian 16:  EM64L-G16RevA.03 25-Dec-2016

 -------------
 #p 6-31g* mp2
 -------------

 ------------------------------------------------------
 Input file generated by CHIRIPA (05-May-2021 14:51:12)
 ------------------------------------------------------
 Symbolic Z-matrix:
 Charge =  0 Multiplicity = 1

                         Standard orientation:
 ---------------------------------------------------------------------
 Center     Atomic      Atomic             Coordinates (Angstroms)
 Number     Number       Type             X           Y           Z
 ---------------------------------------------------------------------
      1          6           0        3.398546   -0.153983    0.340005
      2          6           0        2.634949    1.170068    0.382354
      3          6           0        1.174851    0.997268    0.801932
      4          1           0        2.894247   -0.838689   -0.355555
      5          1           0        3.354323   -0.626600    1.331000
      6          1           0        2.681774    1.640712   -0.608059
      7          1           0        3.141235    1.851769    1.077750
      8          1           0        1.110943    0.550231    1.799266
      9          1           0        0.648871    0.337974    0.103879
     10          1           0        0.647747    1.956155    0.825543
     11          6           0        4.859618    0.002391   -0.077782
     12          6           0        5.623215   -1.321660   -0.120131
     13          6           0        7.083314   -1.148859   -0.539709
     14          1           0        4.903842    0.475009   -1.068777
     15          1           0        5.363918    0.687097    0.617779
     16          1           0        5.116930   -2.003361   -0.815526
     17          1           0        5.576390   -1.792303    0.870282
     18          1           0        7.609293   -0.489565    0.158344
     19          1           0        7.147222   -0.701822   -1.537043
     20          1           0        7.610417   -2.107746   -0.563320
     21          6           0       -3.438104    0.392425   -0.055429
     22          6           0       -3.400161    1.867881   -0.454897
     23          6           0       -2.011079    2.487260   -0.298006
     24          1           0       -3.106240    0.292731    0.987102
     25          1           0       -2.715847   -0.164788   -0.668008
     26          1           0       -4.123268    2.421911    0.157299
     27          1           0       -3.732338    1.964095   -1.496538
     28          1           0       -1.281627    1.960232   -0.921497
     29          1           0       -1.674778    2.420650    0.741738
     30          1           0       -2.006747    3.542313   -0.589042
     31          6           0       -4.820060   -0.240834   -0.206794
     32          6           0       -4.858003   -1.716290    0.192674
     33          6           0       -6.247085   -2.335668    0.035782
     34          1           0       -5.542317    0.316379    0.405786
     35          1           0       -5.151925   -0.141140   -1.249325
     36          1           0       -4.525826   -1.812504    1.234316
     37          1           0       -4.134896   -2.270320   -0.419521
     38          1           0       -6.583386   -2.269058   -1.003960
     39          1           0       -6.976538   -1.808640    0.659274
     40          1           0       -6.251417   -3.390723    0.326820
 ---------------------------------------------------------------------

 SCF Done:  E(RHF) =  -470.732051516     A.U. after   11 cycles
 E2 =    -0.1582920313D+01 EUMP2 =    -0.47231497182912D+03

 The electronic state is 1-A.
 Alpha  occ. eigenvalues --  -11.21580 -11.21576 -11.21548 -11.21519 -11.21373
 Alpha  occ. eigenvalues --  -11.21361 -11.21312 -11.21300 -11.21056 -11.21052
 Alpha  occ. eigenvalues --  -11.20959 -11.20891  -1.08402  -1.08375  -1.03530
 Alpha  occ. eigenvalues --   -1.03438  -0.96032  -0.95841  -0.87107  -0.86808
 Alpha  occ. eigenvalues --   -0.79692  -0.79418  -0.78231  -0.78167  -0.65042
 Alpha  occ. eigenvalues --   -0.65001  -0.60949  -0.60827  -0.59407  -0.59261
 Alpha  occ. eigenvalues --   -0.57688  -0.57402  -0.55321  -0.55130  -0.52988
 Alpha  occ. eigenvalues --   -0.52634  -0.52353  -0.51988  -0.49981  -0.49775
 Alpha  occ. eigenvalues --   -0.47912  -0.47774  -0.46652  -0.46507  -0.45790
 Alpha  occ. eigenvalues --   -0.45706  -0.45688  -0.45620  -0.43753  -0.43643
 Alpha virt. eigenvalues --    0.22268   0.23001   0.23658   0.24732   0.26128
 Alpha virt. eigenvalues --    0.26745   0.26945   0.27443   0.27829   0.29211
 Alpha virt. eigenvalues --    0.29700   0.31385   0.31819   0.31987   0.32230

 Mulliken charges:
               1
     1  C   -0.298411
     2  C   -0.299990
     3  C   -0.478848
     4  H    0.149242
     5  H    0.149362
     6  H    0.151418
     7  H    0.151462
     8  H    0.153314
     9  H    0.154651
    10  H    0.167860
    11  C   -0.298160
    12  C   -0.299557
    13  C   -0.475661
    14  H    0.149348
    15  H    0.149556
    16  H    0.151795
    17  H    0.151863
    18  H    0.155143
    19  H    0.155111
    20  H    0.160138
    21  C   -0.298124
    22  C   -0.300210
    23  C   -0.477778
    24  H    0.150274
    25  H    0.149012
    26  H    0.151472
    27  H    0.151362
    28  H    0.158654
    29  H    0.157183
    30  H    0.158810
    31  C   -0.298243
    32  C   -0.299578
    33  C   -0.475684
    34  H    0.149493
    35  H    0.149470
    36  H    0.152030
    37  H    0.151787
    38  H    0.155100
    39  H    0.155155
    40  H    0.160181
 Sum of Mulliken charges =  -0.00000

 Dipole moment (field-independent basis, Debye):
    X=             -0.0184    Y=              0.0216    Z=              0.0090  Tot=              0.0297
 Quadrupole moment (field-independent basis, Debye-Ang):
   XX=            -87.0043   YY=            -85.0875   ZZ=            -82.9663
   XY=             -0.5004   XZ=              0.2525   YZ=              0.3780

 Normal termination of Gaussian 16 at Thu May  6 05:31:48 2021.
