 Gaussian 16, Revision A.03,
 Gaussian 16:  EM64L-G16RevA.03 25-Dec-2016

 -------------
 #p 6-31g* mp2
 -------------

 ------------------------------------------------------
 Input file generated by CHIRIPA (05-May-2021 14:57:24)
 ------------------------------------------------------
 Symbolic Z-matrix:
 Charge =  0 Multiplicity = 1

                         Standard orientation:
 ---------------------------------------------------------------------
 Center     Atomic      Atomic             Coordinates (Angstroms)
 Number     Number       Type             X           Y           Z
 ---------------------------------------------------------------------
      1          6           0       -5.961847    1.159047    0.324555
      2          6           0       -4.762720    1.602065    0.892314
      3          6           0       -3.578038    0.885436    0.698618
      4          6           0       -3.629001   -0.275150   -0.071922
      5          6           0       -4.808026   -0.742222   -0.650744
      6          6           0       -5.980640   -0.009622   -0.443808
      7          1           0       -6.877449    1.721945    0.480165
      8          1           0       -4.745144    2.509318    1.489497
      9          1           0       -2.635865    1.205745    1.126557
     10          1           0       -4.794127   -1.650308   -1.241171
     11          1           0       -6.910446   -0.356051   -0.885953
     12          7           0       -2.381219   -1.042267   -0.283988
     13          8           0       -2.452643   -2.061629   -0.966951
     14          8           0       -1.355409   -0.609647    0.236773
     15          6           0        3.780936    2.613890   -0.497798
     16          6           0        2.608629    1.955604   -0.111950
     17          6           0        2.626627    0.589945    0.186712
     18          6           0        3.839843   -0.089603    0.088671
     19          6           0        5.024574    0.538139   -0.292961
     20          6           0        4.983047    1.904307   -0.586915
     21          1           0        3.757815    3.674964   -0.727978
     22          1           0        1.673618    2.504139   -0.041885
     23          1           0        1.733832    0.055508    0.487892
     24          1           0        5.941512   -0.035396   -0.353789
     25          1           0        5.895023    2.412939   -0.886312
     26          7           0        3.871351   -1.535635    0.402359
     27          8           0        4.952967   -2.111751    0.308373
     28          8           0        2.813834   -2.065537    0.736273
 ---------------------------------------------------------------------

 SCF Done:  E(RHF) =  -868.337950962     A.U. after   15 cycles
 E2 =    -0.2599060083D+01 EUMP2 =    -0.87093701104533D+03

 The electronic state is 1-A.
 Alpha  occ. eigenvalues --  -20.61050 -20.61004 -20.59797 -20.59737 -15.86088
 Alpha  occ. eigenvalues --  -15.84824 -11.31446 -11.30270 -11.28048 -11.27981
 Alpha  occ. eigenvalues --  -11.27742 -11.27041 -11.26998 -11.26951 -11.26743
 Alpha  occ. eigenvalues --  -11.26724 -11.25996 -11.25914  -1.60084  -1.58851
 Alpha  occ. eigenvalues --   -1.39646  -1.38395  -1.19612  -1.18489  -1.09003
 Alpha  occ. eigenvalues --   -1.07891  -1.05019  -1.03897  -0.95841  -0.94692
 Alpha  occ. eigenvalues --   -0.86416  -0.85301  -0.82682  -0.81514  -0.77732
 Alpha  occ. eigenvalues --   -0.76520  -0.72308  -0.71405  -0.71039  -0.70722
 Alpha  occ. eigenvalues --   -0.70181  -0.69604  -0.65270  -0.65020  -0.64144
 Alpha  occ. eigenvalues --   -0.63920  -0.62371  -0.61209  -0.55511  -0.54454
 Alpha  occ. eigenvalues --   -0.53343  -0.53113  -0.52249  -0.51989  -0.49054
 Alpha  occ. eigenvalues --   -0.49023  -0.47829  -0.47774  -0.45052  -0.43782
 Alpha  occ. eigenvalues --   -0.37587  -0.36622  -0.36527  -0.35510
 Alpha virt. eigenvalues --    0.04812   0.05997   0.11033   0.12134   0.16305
 Alpha virt. eigenvalues --    0.17436   0.21109   0.22208   0.27020   0.27630
 Alpha virt. eigenvalues --    0.28375   0.29178   0.30789   0.31685   0.32303

 Mulliken charges:
               1
     1  C   -0.170706
     2  C   -0.218277
     3  C   -0.170904
     4  C    0.158716
     5  C   -0.170326
     6  C   -0.218351
     7  H    0.226307
     8  H    0.222966
     9  H    0.271124
    10  H    0.277287
    11  H    0.224675
    12  N    0.492717
    13  O   -0.453508
    14  O   -0.469586
    15  C   -0.171253
    16  C   -0.220958
    17  C   -0.175649
    18  C    0.156317
    19  C   -0.171172
    20  C   -0.219784
    21  H    0.221142
    22  H    0.219859
    23  H    0.297288
    24  H    0.273304
    25  H    0.219814
    26  N    0.486841
    27  O   -0.466017
    28  O   -0.451863
 Sum of Mulliken charges =  -0.00000

 Dipole moment (field-independent basis, Debye):
    X=             -4.9224    Y=              7.5724    Z=             -0.3607  Tot=              9.0389
 Quadrupole moment (field-independent basis, Debye-Ang):
   XX=            -69.0036   YY=           -106.3097   ZZ=           -104.8769
   XY=             12.5854   XZ=             -5.9523   YZ=              2.4408

 Normal termination of Gaussian 16 at Thu May  6 00:19:16 2021.
