 Gaussian 16, Revision A.03,
 Gaussian 16:  EM64L-G16RevA.03 25-Dec-2016

 -------------
 #p 6-31g* mp2
 -------------

 ------------------------------------------------------
 Input file generated by CHIRIPA (05-May-2021 14:55:24)
 ------------------------------------------------------
 Symbolic Z-matrix:
 Charge =  0 Multiplicity = 1

                         Standard orientation:
 ---------------------------------------------------------------------
 Center     Atomic      Atomic             Coordinates (Angstroms)
 Number     Number       Type             X           Y           Z
 ---------------------------------------------------------------------
      1          6           0       -0.934689    0.849662   -0.005142
      2          6           0       -1.159754   -0.443884    0.477149
      3          6           0       -2.448242   -0.986415    0.479950
      4          6           0       -3.493217   -0.204002   -0.009077
      5          6           0       -3.301001    1.087916   -0.496201
      6          6           0       -2.004146    1.610093   -0.489424
      7          1           0        0.069489    1.263208   -0.003597
      8          1           0       -0.331101   -1.036736    0.853853
      9          1           0       -2.650733   -1.985077    0.847495
     10          1           0       -4.147071    1.654754   -0.865358
     11          1           0       -1.832319    2.614967   -0.864588
     12          7           0       -4.861710   -0.767582   -0.011181
     13          8           0       -5.765426   -0.057890   -0.447383
     14          8           0       -5.004707   -1.908335    0.423411
     15          6           0        4.514748   -0.380076   -0.436397
     16          6           0        5.057205   -1.583353    0.335518
     17          6           0        5.718720   -2.619541   -0.573606
     18          1           0        3.790257   -0.729000   -1.184934
     19          1           0        5.336974    0.090701   -0.992909
     20          1           0        4.234467   -2.050895    0.891506
     21          1           0        5.780347   -1.231503    1.082435
     22          1           0        6.557679   -2.174496   -1.118292
     23          1           0        5.003016   -2.998543   -1.310306
     24          1           0        6.099412   -3.471149   -0.001157
     25          6           0        3.850495    0.664538    0.458744
     26          6           0        3.308037    1.867813   -0.313170
     27          6           0        2.646523    2.904002    0.595954
     28          1           0        3.028267    0.193761    1.015258
     29          1           0        4.574986    1.013462    1.207282
     30          1           0        2.584896    1.515966   -1.060086
     31          1           0        4.130775    2.335356   -0.869157
     32          1           0        3.362226    3.283004    1.332654
     33          1           0        1.807564    2.458958    1.140640
     34          1           0        2.265831    3.755611    0.023506
 ---------------------------------------------------------------------

 SCF Done:  E(RHF) =  -669.535391840     A.U. after   15 cycles
 E2 =    -0.2091494717D+01 EUMP2 =    -0.67162688655692D+03

 The electronic state is 1-A.
 Alpha  occ. eigenvalues --  -20.60743 -20.60738 -15.85797 -11.31161 -11.27733
 Alpha  occ. eigenvalues --  -11.27726 -11.27426 -11.26747 -11.26730 -11.22818
 Alpha  occ. eigenvalues --  -11.22479 -11.22368 -11.22347 -11.22239 -11.21666
 Alpha  occ. eigenvalues --   -1.59819  -1.39373  -1.19332  -1.09431  -1.08724
 Alpha  occ. eigenvalues --   -1.04736  -1.04513  -0.96956  -0.95560  -0.87963
 Alpha  occ. eigenvalues --   -0.86132  -0.82397  -0.80577  -0.79195  -0.77444
 Alpha  occ. eigenvalues --   -0.72015  -0.71142  -0.70485  -0.66077  -0.64982
 Alpha  occ. eigenvalues --   -0.64738  -0.62086  -0.61936  -0.60333  -0.58539
 Alpha  occ. eigenvalues --   -0.56389  -0.55073  -0.53633  -0.53348  -0.53064
 Alpha  occ. eigenvalues --   -0.52827  -0.50898  -0.48876  -0.48770  -0.48767
 Alpha  occ. eigenvalues --   -0.47642  -0.46734  -0.46658  -0.44779  -0.44749
 Alpha  occ. eigenvalues --   -0.37304  -0.36344
 Alpha virt. eigenvalues --    0.05074   0.11311   0.16509   0.18413   0.22764
 Alpha virt. eigenvalues --    0.23693   0.25204   0.26038   0.26682   0.28074
 Alpha virt. eigenvalues --    0.29317   0.30242   0.30735   0.31059   0.31888

 Mulliken charges:
               1
     1  C   -0.179905
     2  C   -0.221649
     3  C   -0.170575
     4  C    0.158331
     5  C   -0.170617
     6  C   -0.221272
     7  H    0.240623
     8  H    0.223012
     9  H    0.275433
    10  H    0.275498
    11  H    0.223874
    12  N    0.488001
    13  O   -0.460461
    14  O   -0.460536
    15  C   -0.299188
    16  C   -0.299791
    17  C   -0.476300
    18  H    0.149531
    19  H    0.152627
    20  H    0.149997
    21  H    0.153907
    22  H    0.156755
    23  H    0.155915
    24  H    0.162563
    25  C   -0.297476
    26  C   -0.304897
    27  C   -0.481208
    28  H    0.142231
    29  H    0.154387
    30  H    0.147793
    31  H    0.158917
    32  H    0.163486
    33  H    0.148777
    34  H    0.162217
 Sum of Mulliken charges =  -0.00000

 Dipole moment (field-independent basis, Debye):
    X=              5.1039    Y=              2.0184    Z=             -0.0078  Tot=              5.4885
 Quadrupole moment (field-independent basis, Debye-Ang):
   XX=           -126.5775   YY=            -92.2988   ZZ=            -94.9845
   XY=             -8.6719   XZ=              1.1117   YZ=             -2.3461

 Normal termination of Gaussian 16 at Wed May  5 20:45:38 2021.
