 Gaussian 16, Revision A.03,
 Gaussian 16:  EM64L-G16RevA.03 25-Dec-2016

 -------------
 #p 6-31g* mp2
 -------------

 ------------------------------------------------------
 Input file generated by CHIRIPA (05-May-2021 14:55:21)
 ------------------------------------------------------
 Symbolic Z-matrix:
 Charge =  0 Multiplicity = 1

                         Standard orientation:
 ---------------------------------------------------------------------
 Center     Atomic      Atomic             Coordinates (Angstroms)
 Number     Number       Type             X           Y           Z
 ---------------------------------------------------------------------
      1          6           0       -2.736509    2.432089    0.801128
      2          6           0       -1.617646    2.396214   -0.037549
      3          6           0       -1.258268    1.214067   -0.691707
      4          6           0       -2.043714    0.081357   -0.483543
      5          6           0       -3.164166    0.085358    0.345831
      6          6           0       -3.504843    1.278580    0.989809
      7          1           0       -3.008420    3.354712    1.305339
      8          1           0       -1.019104    3.290513   -0.185947
      9          1           0       -0.397112    1.158285   -1.346471
     10          1           0       -3.741393   -0.822262    0.474099
     11          1           0       -4.374294    1.303506    1.640561
     12          7           0       -1.673155   -1.175992   -1.170682
     13          8           0       -2.381537   -2.160286   -0.970688
     14          8           0       -0.681345   -1.153400   -1.896244
     15          6           0        3.010624    0.324839    0.437755
     16          6           0        4.215613    0.393663   -0.500995
     17          6           0        4.837908    1.788914   -0.562795
     18          1           0        2.254846    1.050678    0.107752
     19          1           0        3.321545    0.633623    1.445415
     20          1           0        3.902827    0.083515   -1.506275
     21          1           0        4.968531   -0.332558   -0.168831
     22          1           0        5.177218    2.103685    0.429369
     23          1           0        4.105459    2.522123   -0.915675
     24          1           0        5.697624    1.815440   -1.239584
     25          6           0        2.377628   -1.063611    0.510198
     26          6           0        1.172641   -1.132435    1.448948
     27          6           0        0.550346   -2.527686    1.510748
     28          1           0        2.066710   -1.372395   -0.497461
     29          1           0        3.133408   -1.789450    0.840201
     30          1           0        0.419722   -0.406214    1.116785
     31          1           0        1.485427   -0.822287    2.454228
     32          1           0        1.282795   -3.260895    1.863628
     33          1           0        0.211036   -2.842457    0.518585
     34          1           0       -0.309371   -2.554212    2.187537
 ---------------------------------------------------------------------

 SCF Done:  E(RHF) =  -669.535587721     A.U. after   15 cycles
 E2 =    -0.2095129091D+01 EUMP2 =    -0.67163071681108D+03

 The electronic state is 1-A.
 Alpha  occ. eigenvalues --  -20.61018 -20.61008 -15.86014 -11.31311 -11.27880
 Alpha  occ. eigenvalues --  -11.27876 -11.27612 -11.26889 -11.26876 -11.21385
 Alpha  occ. eigenvalues --  -11.21175 -11.21066 -11.21023 -11.20745 -11.20308
 Alpha  occ. eigenvalues --   -1.60064  -1.39618  -1.19499  -1.08901  -1.08051
 Alpha  occ. eigenvalues --   -1.04889  -1.03158  -0.95746  -0.95598  -0.86605
 Alpha  occ. eigenvalues --   -0.86287  -0.82582  -0.79239  -0.77846  -0.77640
 Alpha  occ. eigenvalues --   -0.72248  -0.71441  -0.70600  -0.65155  -0.64902
 Alpha  occ. eigenvalues --   -0.64645  -0.62229  -0.60541  -0.58989  -0.57214
 Alpha  occ. eigenvalues --   -0.55387  -0.54879  -0.53262  -0.52972  -0.52292
 Alpha  occ. eigenvalues --   -0.52008  -0.49561  -0.49013  -0.48979  -0.47540
 Alpha  occ. eigenvalues --   -0.46294  -0.45462  -0.45290  -0.44905  -0.43392
 Alpha  occ. eigenvalues --   -0.37411  -0.36452
 Alpha virt. eigenvalues --    0.04802   0.11095   0.16286   0.20676   0.23024
 Alpha virt. eigenvalues --    0.24610   0.25983   0.27475   0.28010   0.28101
 Alpha virt. eigenvalues --    0.29109   0.31079   0.31754   0.32109   0.32241

 Mulliken charges:
               1
     1  C   -0.170420
     2  C   -0.217195
     3  C   -0.173907
     4  C    0.160477
     5  C   -0.171146
     6  C   -0.218143
     7  H    0.226378
     8  H    0.224417
     9  H    0.276674
    10  H    0.276212
    11  H    0.224106
    12  N    0.490455
    13  O   -0.458002
    14  O   -0.461180
    15  C   -0.295831
    16  C   -0.300436
    17  C   -0.474624
    18  H    0.138945
    19  H    0.147257
    20  H    0.155776
    21  H    0.153043
    22  H    0.154168
    23  H    0.150185
    24  H    0.160735
    25  C   -0.304312
    26  C   -0.304572
    27  C   -0.485407
    28  H    0.168018
    29  H    0.148033
    30  H    0.148832
    31  H    0.147378
    32  H    0.153933
    33  H    0.174511
    34  H    0.155646
 Sum of Mulliken charges =  -0.00000

 Dipole moment (field-independent basis, Debye):
    X=             -1.4771    Y=              4.3095    Z=              2.2682  Tot=              5.0890
 Quadrupole moment (field-independent basis, Debye-Ang):
   XX=            -86.5179   YY=            -94.0845   ZZ=            -96.5745
   XY=             -8.2601   XZ=             -6.0393   YZ=             -2.7989

 Normal termination of Gaussian 16 at Thu May  6 20:47:12 2021.
