 Gaussian 16, Revision A.03,
 Gaussian 16:  EM64L-G16RevA.03 25-Dec-2016

 -------------
 #p 6-31g* mp2
 -------------

 ------------------------------------------------------
 Input file generated by CHIRIPA (05-May-2021 14:53:11)
 ------------------------------------------------------
 Symbolic Z-matrix:
 Charge =  0 Multiplicity = 1

                         Standard orientation:
 ---------------------------------------------------------------------
 Center     Atomic      Atomic             Coordinates (Angstroms)
 Number     Number       Type             X           Y           Z
 ---------------------------------------------------------------------
      1          6           0        3.568467   -0.536977    0.664029
      2          6           0        3.053545   -1.840903    0.053606
      3          6           0        3.144740   -3.022431    1.019768
      4          1           0        4.611626   -0.674345    0.980091
      5          1           0        2.993229   -0.313610    1.573206
      6          1           0        3.628661   -2.061021   -0.854912
      7          1           0        2.011551   -1.700356   -0.261215
      8          1           0        2.556161   -2.828382    1.922276
      9          1           0        4.182459   -3.191096    1.325205
     10          1           0        2.771431   -3.944299    0.562976
     11          6           0        3.483791    0.653362   -0.289729
     12          6           0        3.998714    1.957288    0.320694
     13          6           0        3.907519    3.138815   -0.645468
     14          1           0        4.059030    0.429995   -1.198906
     15          1           0        2.440633    0.790730   -0.605791
     16          1           0        5.040708    1.816741    0.635515
     17          1           0        3.423598    2.177406    1.229212
     18          1           0        2.869800    3.307481   -0.950905
     19          1           0        4.496098    2.944767   -1.547976
     20          1           0        4.280828    4.060684   -0.188676
     21          6           0       -4.301955    1.715711    0.786776
     22          6           0       -4.725868    0.385442    0.701906
     23          6           0       -3.877060   -0.598739    0.186676
     24          6           0       -2.605214   -0.215726   -0.236409
     25          6           0       -2.153838    1.101244   -0.164726
     26          6           0       -3.019554    2.068744    0.353952
     27          1           0       -4.967898    2.473768    1.188357
     28          1           0       -5.721257    0.108379    1.037289
     29          1           0       -4.179631   -1.636009    0.109612
     30          1           0       -1.155892    1.346953   -0.506993
     31          1           0       -2.687654    3.101071    0.418672
     32          7           0       -1.697669   -1.248805   -0.783685
     33          8           0       -0.581979   -0.885637   -1.149718
     34          8           0       -2.119210   -2.402138   -0.836243
 ---------------------------------------------------------------------

 SCF Done:  E(RHF) =  -669.536396365     A.U. after   15 cycles
 E2 =    -0.2091357185D+01 EUMP2 =    -0.67162775354990D+03

 The electronic state is 1-A.
 Alpha  occ. eigenvalues --  -20.61038 -20.61033 -15.86060 -11.31351 -11.27913
 Alpha  occ. eigenvalues --  -11.27905 -11.27640 -11.26909 -11.26899 -11.21189
 Alpha  occ. eigenvalues --  -11.20837 -11.20665 -11.20521 -11.20245 -11.20028
 Alpha  occ. eigenvalues --   -1.60090  -1.39648  -1.19515  -1.08925  -1.07652
 Alpha  occ. eigenvalues --   -1.04907  -1.02759  -0.95771  -0.95259  -0.86310
 Alpha  occ. eigenvalues --   -0.86284  -0.82607  -0.78845  -0.77675  -0.77375
 Alpha  occ. eigenvalues --   -0.72281  -0.71399  -0.70624  -0.65174  -0.64909
 Alpha  occ. eigenvalues --   -0.64287  -0.62256  -0.60159  -0.58655  -0.56829
 Alpha  occ. eigenvalues --   -0.55412  -0.54570  -0.53240  -0.52999  -0.51973
 Alpha  occ. eigenvalues --   -0.51675  -0.49267  -0.49038  -0.49030  -0.47152
 Alpha  occ. eigenvalues --   -0.45889  -0.45226  -0.44950  -0.44580  -0.43009
 Alpha  occ. eigenvalues --   -0.37491  -0.36507
 Alpha virt. eigenvalues --    0.04830   0.11148   0.16309   0.20987   0.23285
 Alpha virt. eigenvalues --    0.25043   0.26253   0.27426   0.27799   0.28555
 Alpha virt. eigenvalues --    0.29104   0.31092   0.32040   0.32338   0.32509

 Mulliken charges:
               1
     1  C   -0.296451
     2  C   -0.312545
     3  C   -0.474613
     4  H    0.145260
     5  H    0.144780
     6  H    0.148458
     7  H    0.181565
     8  H    0.151159
     9  H    0.149330
    10  H    0.162529
    11  C   -0.299699
    12  C   -0.299110
    13  C   -0.473967
    14  H    0.149468
    15  H    0.155132
    16  H    0.151341
    17  H    0.147938
    18  H    0.150295
    19  H    0.156410
    20  H    0.157629
    21  C   -0.170448
    22  C   -0.218580
    23  C   -0.170517
    24  C    0.157909
    25  C   -0.170988
    26  C   -0.218589
    27  H    0.226274
    28  H    0.224055
    29  H    0.276020
    30  H    0.275621
    31  H    0.224193
    32  N    0.490216
    33  O   -0.462159
    34  O   -0.457916
 Sum of Mulliken charges =  -0.00000

 Dipole moment (field-independent basis, Debye):
    X=             -3.5119    Y=              3.5542    Z=              1.8123  Tot=              5.3151
 Quadrupole moment (field-independent basis, Debye-Ang):
   XX=            -75.7304   YY=            -95.4316   ZZ=            -96.8353
   XY=             -6.3816   XZ=             -5.7702   YZ=             -0.9571

 Normal termination of Gaussian 16 at Thu May  6 04:04:24 2021.
