 Gaussian 16, Revision A.03,
 Gaussian 16:  EM64L-G16RevA.03 25-Dec-2016

 -------------
 #p 6-31g* mp2
 -------------

 ------------------------------------------------------
 Input file generated by CHIRIPA (05-May-2021 14:57:21)
 ------------------------------------------------------
 Symbolic Z-matrix:
 Charge =  0 Multiplicity = 1

                         Standard orientation:
 ---------------------------------------------------------------------
 Center     Atomic      Atomic             Coordinates (Angstroms)
 Number     Number       Type             X           Y           Z
 ---------------------------------------------------------------------
      1          6           0       -5.289860   -1.532304    0.813016
      2          6           0       -4.231743   -1.953841    0.001095
      3          6           0       -3.300445   -1.032342   -0.486829
      4          6           0       -3.458247    0.308983   -0.141523
      5          6           0       -4.501737    0.759942    0.665357
      6          6           0       -5.421248   -0.179143    1.141976
      7          1           0       -6.008737   -2.254977    1.187657
      8          1           0       -4.127218   -3.004089   -0.256003
      9          1           0       -2.471811   -1.331354   -1.117207
     10          1           0       -4.579720    1.813569    0.904535
     11          1           0       -6.242003    0.151093    1.772334
     12          7           0       -2.478562    1.293842   -0.652082
     13          8           0       -2.639717    2.469904   -0.333423
     14          8           0       -1.568082    0.871064   -1.361251
     15          6           0        6.037760   -0.038613    0.769615
     16          6           0        5.706665   -0.461712   -0.521850
     17          6           0        4.370226   -0.525478   -0.927331
     18          6           0        3.385943   -0.157112   -0.011479
     19          6           0        3.683962    0.268553    1.282074
     20          6           0        5.027134    0.324528    1.665876
     21          1           0        7.078554    0.007896    1.076182
     22          1           0        6.489438   -0.744339   -1.220015
     23          1           0        4.085792   -0.849388   -1.921109
     24          1           0        2.881602    0.543900    1.955737
     25          1           0        5.281321    0.653494    2.669478
     26          7           0        1.967551   -0.220495   -0.429269
     27          8           0        1.119015    0.109431    0.396426
     28          8           0        1.731209   -0.598900   -1.574516
 ---------------------------------------------------------------------

 SCF Done:  E(RHF) =  -868.336117886     A.U. after   16 cycles
 E2 =    -0.2600476009D+01 EUMP2 =    -0.87093659389513D+03

 The electronic state is 1-A.
 Alpha  occ. eigenvalues --  -20.59995 -20.59987 -20.59346 -20.59152 -15.85063
 Alpha  occ. eigenvalues --  -15.84292 -11.30674 -11.30016 -11.27273 -11.27268
 Alpha  occ. eigenvalues --  -11.27067 -11.26689 -11.26569 -11.26506 -11.26349
 Alpha  occ. eigenvalues --  -11.26339 -11.25790 -11.25732  -1.59043  -1.58312
 Alpha  occ. eigenvalues --   -1.38603  -1.37852  -1.18868  -1.18238  -1.08216
 Alpha  occ. eigenvalues --   -1.07579  -1.04311  -1.03698  -0.95012  -0.94348
 Alpha  occ. eigenvalues --   -0.85698  -0.85080  -0.81849  -0.81180  -0.76851
 Alpha  occ. eigenvalues --   -0.76150  -0.71289  -0.70558  -0.70358  -0.69980
 Alpha  occ. eigenvalues --   -0.69615  -0.69361  -0.64521  -0.64318  -0.63888
 Alpha  occ. eigenvalues --   -0.63723  -0.61657  -0.61035  -0.54806  -0.54223
 Alpha  occ. eigenvalues --   -0.52624  -0.52409  -0.52011  -0.51802  -0.48069
 Alpha  occ. eigenvalues --   -0.47995  -0.47322  -0.47252  -0.43970  -0.43104
 Alpha  occ. eigenvalues --   -0.36865  -0.36254  -0.35925  -0.35318
 Alpha virt. eigenvalues --    0.05691   0.06408   0.11725   0.12333   0.17139
 Alpha virt. eigenvalues --    0.17808   0.21820   0.22369   0.27710   0.28253
 Alpha virt. eigenvalues --    0.28734   0.29331   0.31349   0.31878   0.32980

 Mulliken charges:
               1
     1  C   -0.172274
     2  C   -0.219624
     3  C   -0.168898
     4  C    0.160200
     5  C   -0.172154
     6  C   -0.219189
     7  H    0.221026
     8  H    0.220271
     9  H    0.283352
    10  H    0.272756
    11  H    0.218932
    12  N    0.488194
    13  O   -0.471333
    14  O   -0.441851
    15  C   -0.171658
    16  C   -0.218536
    17  C   -0.171269
    18  C    0.159582
    19  C   -0.170975
    20  C   -0.218522
    21  H    0.223731
    22  H    0.221814
    23  H    0.275157
    24  H    0.275317
    25  H    0.221832
    26  N    0.488911
    27  O   -0.457112
    28  O   -0.457679
 Sum of Mulliken charges =  -0.00000

 Dipole moment (field-independent basis, Debye):
    X=              1.7807    Y=             -3.2504    Z=              3.0716  Tot=              4.8136
 Quadrupole moment (field-independent basis, Debye-Ang):
   XX=            -49.5301   YY=           -105.4590   ZZ=           -100.9653
   XY=              8.6113   XZ=             -3.3894   YZ=              4.5892

 Normal termination of Gaussian 16 at Wed May  5 19:16:04 2021.
