 Gaussian 16, Revision A.03,
 Gaussian 16:  EM64L-G16RevA.03 25-Dec-2016

 -------------
 #p 6-31g* mp2
 -------------

 ------------------------------------------------------
 Input file generated by CHIRIPA (05-May-2021 14:57:25)
 ------------------------------------------------------
 Symbolic Z-matrix:
 Charge =  0 Multiplicity = 1

                         Standard orientation:
 ---------------------------------------------------------------------
 Center     Atomic      Atomic             Coordinates (Angstroms)
 Number     Number       Type             X           Y           Z
 ---------------------------------------------------------------------
      1          6           0       -3.523133   -1.904839   -1.324830
      2          6           0       -4.296437   -1.538048   -0.218491
      3          6           0       -4.054554   -0.333658    0.448956
      4          6           0       -3.026754    0.483614   -0.019002
      5          6           0       -2.238982    0.145936   -1.118401
      6          6           0       -2.498680   -1.063160   -1.770468
      7          1           0       -3.717953   -2.842266   -1.837346
      8          1           0       -5.092699   -2.189736    0.129813
      9          1           0       -4.637946   -0.025203    1.307983
     10          1           0       -1.452159    0.816341   -1.442260
     11          1           0       -1.896521   -1.345447   -2.629400
     12          7           0       -2.761254    1.761139    0.679454
     13          8           0       -1.849910    2.463621    0.247471
     14          8           0       -3.469525    2.035791    1.645660
     15          6           0        1.446444   -1.684564    1.451687
     16          6           0        2.769611   -1.551072    1.885196
     17          6           0        3.678129   -0.771539    1.163068
     18          6           0        3.227521   -0.136604    0.006738
     19          6           0        1.915662   -0.250195   -0.450879
     20          6           0        1.024437   -1.034844    0.287086
     21          1           0        0.747402   -2.292111    2.018804
     22          1           0        3.100137   -2.054507    2.789272
     23          1           0        4.708168   -0.651069    1.476000
     24          1           0        1.615563    0.263735   -1.355995
     25          1           0       -0.002556   -1.136719   -0.051961
     26          7           0        4.180175    0.691361   -0.766130
     27          8           0        3.758380    1.240539   -1.781575
     28          8           0        5.330622    0.775464   -0.341824
 ---------------------------------------------------------------------

 SCF Done:  E(RHF) =  -868.336570925     A.U. after   16 cycles
 E2 =    -0.2601803306D+01 EUMP2 =    -0.87093837423109D+03

 The electronic state is 1-A.
 Alpha  occ. eigenvalues --  -20.61444 -20.61428 -20.60662 -20.60657 -15.86501
 Alpha  occ. eigenvalues --  -15.85716 -11.32120 -11.31106 -11.28727 -11.28661
 Alpha  occ. eigenvalues --  -11.28428 -11.27765 -11.27712 -11.27694 -11.27654
 Alpha  occ. eigenvalues --  -11.27400 -11.26681 -11.26597  -1.60512  -1.59735
 Alpha  occ. eigenvalues --   -1.40057  -1.39289  -1.20322  -1.19265  -1.09635
 Alpha  occ. eigenvalues --   -1.08656  -1.05763  -1.04680  -0.96435  -0.95496
 Alpha  occ. eigenvalues --   -0.87105  -0.86080  -0.83261  -0.82338  -0.78283
 Alpha  occ. eigenvalues --   -0.77383  -0.72704  -0.71938  -0.71849  -0.71364
 Alpha  occ. eigenvalues --   -0.71053  -0.70398  -0.65940  -0.65698  -0.64926
 Alpha  occ. eigenvalues --   -0.64723  -0.63086  -0.62046  -0.56170  -0.55215
 Alpha  occ. eigenvalues --   -0.54159  -0.53792  -0.52988  -0.52652  -0.49486
 Alpha  occ. eigenvalues --   -0.49453  -0.48696  -0.48690  -0.45405  -0.44691
 Alpha  occ. eigenvalues --   -0.38292  -0.37357  -0.37227  -0.36261
 Alpha virt. eigenvalues --    0.04217   0.05159   0.10179   0.11435   0.15624
 Alpha virt. eigenvalues --    0.16658   0.19870   0.21833   0.25091   0.27088
 Alpha virt. eigenvalues --    0.28076   0.29171   0.30243   0.31172   0.31591

 Mulliken charges:
               1
     1  C   -0.171411
     2  C   -0.218702
     3  C   -0.171181
     4  C    0.162660
     5  C   -0.187073
     6  C   -0.223131
     7  H    0.229435
     8  H    0.226867
     9  H    0.278694
    10  H    0.279271
    11  H    0.228039
    12  N    0.487950
    13  O   -0.456278
    14  O   -0.458139
    15  C   -0.172628
    16  C   -0.217663
    17  C   -0.170805
    18  C    0.159748
    19  C   -0.171772
    20  C   -0.223874
    21  H    0.224785
    22  H    0.223168
    23  H    0.275743
    24  H    0.269537
    25  H    0.229409
    26  N    0.488461
    27  O   -0.460959
    28  O   -0.460154
 Sum of Mulliken charges =  -0.00000

 Dipole moment (field-independent basis, Debye):
    X=             -4.5456    Y=             -7.3560    Z=              0.3223  Tot=              8.6532
 Quadrupole moment (field-independent basis, Debye-Ang):
   XX=           -115.0850   YY=           -109.1568   ZZ=           -101.1556
   XY=              4.4687   XZ=             16.4865   YZ=             -2.9625

 Normal termination of Gaussian 16 at Thu May  6 13:06:24 2021.
