 Gaussian 16, Revision A.03,
 Gaussian 16:  EM64L-G16RevA.03 25-Dec-2016

 -------------
 #p 6-31g* mp2
 -------------

 ------------------------------------------------------
 Input file generated by CHIRIPA (05-May-2021 14:57:26)
 ------------------------------------------------------
 Symbolic Z-matrix:
 Charge =  0 Multiplicity = 1

                         Standard orientation:
 ---------------------------------------------------------------------
 Center     Atomic      Atomic             Coordinates (Angstroms)
 Number     Number       Type             X           Y           Z
 ---------------------------------------------------------------------
      1          6           0        1.139217    2.573314    0.202199
      2          6           0        1.813511    2.346487   -1.002125
      3          6           0        2.639695    1.228903   -1.153698
      4          6           0        2.769309    0.354770   -0.075560
      5          6           0        2.110682    0.553428    1.136890
      6          6           0        1.289689    1.677640    1.265988
      7          1           0        0.499433    3.444055    0.311215
      8          1           0        1.698530    3.040392   -1.829966
      9          1           0        3.173349    1.029181   -2.074970
     10          1           0        2.245089   -0.156076    1.944328
     11          1           0        0.767243    1.851268    2.202443
     12          7           0        3.641205   -0.831874   -0.224127
     13          8           0        3.738688   -1.586971    0.740738
     14          8           0        4.210604   -0.984400   -1.302624
     15          6           0       -0.758779   -2.178854    0.529427
     16          6           0       -1.582409   -2.365998   -0.585532
     17          6           0       -2.619821   -1.469995   -0.860312
     18          6           0       -2.806087   -0.392905    0.004829
     19          6           0       -2.002366   -0.179421    1.123644
     20          6           0       -0.971013   -1.088086    1.378958
     21          1           0        0.044754   -2.879808    0.735322
     22          1           0       -1.419916   -3.212208   -1.247021
     23          1           0       -3.272343   -1.591027   -1.716458
     24          1           0       -2.188893    0.673546    1.764792
     25          1           0       -0.332931   -0.940248    2.245584
     26          7           0       -3.901143    0.562355   -0.275765
     27          8           0       -4.044521    1.503318    0.501839
     28          8           0       -4.595333    0.352036   -1.267986
 ---------------------------------------------------------------------

 SCF Done:  E(RHF) =  -868.336686097     A.U. after   16 cycles
 E2 =    -0.2602840107D+01 EUMP2 =    -0.87093952620471D+03

 The electronic state is 1-A.
 Alpha  occ. eigenvalues --  -20.61459 -20.61420 -20.61134 -20.61109 -15.86489
 Alpha  occ. eigenvalues --  -15.86175 -11.31735 -11.31449 -11.28383 -11.28238
 Alpha  occ. eigenvalues --  -11.28055 -11.27942 -11.27934 -11.27606 -11.27323
 Alpha  occ. eigenvalues --  -11.27189 -11.27042 -11.26914  -1.60519  -1.60202
 Alpha  occ. eigenvalues --   -1.40078  -1.39759  -1.19900  -1.19590  -1.09290
 Alpha  occ. eigenvalues --   -1.08993  -1.05347  -1.04966  -0.96155  -0.95843
 Alpha  occ. eigenvalues --   -0.86709  -0.86395  -0.83033  -0.82678  -0.78130
 Alpha  occ. eigenvalues --   -0.77749  -0.72708  -0.72394  -0.71846  -0.71526
 Alpha  occ. eigenvalues --   -0.70989  -0.70647  -0.65580  -0.65382  -0.65203
 Alpha  occ. eigenvalues --   -0.64999  -0.62796  -0.62250  -0.55738  -0.55419
 Alpha  occ. eigenvalues --   -0.53975  -0.53424  -0.53113  -0.52925  -0.49477
 Alpha  occ. eigenvalues --   -0.49449  -0.49159  -0.49139  -0.45511  -0.45187
 Alpha  occ. eigenvalues --   -0.37989  -0.37758  -0.37141  -0.35866
 Alpha virt. eigenvalues --    0.04399   0.04757   0.10297   0.11519   0.15707
 Alpha virt. eigenvalues --    0.16616   0.19014   0.22256   0.25239   0.26363
 Alpha virt. eigenvalues --    0.28487   0.29394   0.30582   0.30997   0.31943

 Mulliken charges:
               1
     1  C   -0.169477
     2  C   -0.217790
     3  C   -0.170440
     4  C    0.159258
     5  C   -0.171769
     6  C   -0.215836
     7  H    0.231978
     8  H    0.227326
     9  H    0.276779
    10  H    0.268166
    11  H    0.218964
    12  N    0.487605
    13  O   -0.465938
    14  O   -0.457476
    15  C   -0.174133
    16  C   -0.218147
    17  C   -0.171610
    18  C    0.157935
    19  C   -0.170622
    20  C   -0.210670
    21  H    0.235357
    22  H    0.226952
    23  H    0.275911
    24  H    0.268082
    25  H    0.214821
    26  N    0.487980
    27  O   -0.464275
    28  O   -0.458930
 Sum of Mulliken charges =  -0.00000

 Dipole moment (field-independent basis, Debye):
    X=              0.8502    Y=              0.8391    Z=              1.2595  Tot=              1.7359
 Quadrupole moment (field-independent basis, Debye-Ang):
   XX=           -144.8925   YY=            -97.7907   ZZ=            -97.7779
   XY=             19.9623   XZ=             -1.2186   YZ=              0.3587

 Normal termination of Gaussian 16 at Thu May  6 03:37:47 2021.
