 Gaussian 16, Revision A.03,
 Gaussian 16:  EM64L-G16RevA.03 25-Dec-2016

 -------------
 #p 6-31g* mp2
 -------------

 ------------------------------------------------------
 Input file generated by CHIRIPA (05-May-2021 14:51:11)
 ------------------------------------------------------
 Symbolic Z-matrix:
 Charge =  0 Multiplicity = 1

                         Standard orientation:
 ---------------------------------------------------------------------
 Center     Atomic      Atomic             Coordinates (Angstroms)
 Number     Number       Type             X           Y           Z
 ---------------------------------------------------------------------
      1          6           0       -3.262881    0.171878    0.749552
      2          6           0       -2.265818    1.230884    0.278004
      3          6           0       -1.254766    1.613909    1.359142
      4          1           0       -3.794776    0.546572    1.634785
      5          1           0       -2.712082   -0.722827    1.071295
      6          1           0       -2.818408    2.122815   -0.044053
      7          1           0       -1.736371    0.853702   -0.606324
      8          1           0       -0.678031    0.738485    1.674754
      9          1           0       -1.766216    2.014809    2.240220
     10          1           0       -0.551635    2.372193    1.000713
     11          6           0       -4.280084   -0.221445   -0.320178
     12          6           0       -5.277147   -1.280450    0.151370
     13          6           0       -6.288199   -1.663475   -0.929768
     14          1           0       -4.830883    0.673260   -0.641921
     15          1           0       -3.748189   -0.596139   -1.205411
     16          1           0       -5.806594   -0.903268    1.035698
     17          1           0       -4.724557   -2.172381    0.473426
     18          1           0       -5.776749   -2.064375   -1.810846
     19          1           0       -6.864934   -0.788051   -1.245380
     20          1           0       -6.991330   -2.421760   -0.571339
     21          6           0        3.575046    0.631980   -0.634398
     22          6           0        2.354008    1.375079   -0.091391
     23          6           0        1.973341    2.587389   -0.941797
     24          1           0        4.425058    1.325967   -0.687369
     25          1           0        3.370717    0.308807   -1.664545
     26          1           0        2.560062    1.695548    0.937909
     27          1           0        1.506855    0.679193   -0.039526
     28          1           0        1.741306    2.281242   -1.966997
     29          1           0        2.800497    3.303372   -0.984010
     30          1           0        1.098023    3.103807   -0.535605
     31          6           0        3.967919   -0.582414    0.205024
     32          6           0        5.188956   -1.325513   -0.337983
     33          6           0        5.569624   -2.537822    0.512423
     34          1           0        4.172248   -0.259241    1.235171
     35          1           0        3.117907   -1.276400    0.257995
     36          1           0        6.036110   -0.629627   -0.389848
     37          1           0        4.982903   -1.645982   -1.367283
     38          1           0        4.742467   -3.253806    0.554636
     39          1           0        5.801659   -2.231676    1.537623
     40          1           0        6.444941   -3.054240    0.106231
 ---------------------------------------------------------------------

 SCF Done:  E(RHF) =  -470.732802135     A.U. after   11 cycles
 E2 =    -0.1583108822D+01 EUMP2 =    -0.47231591095655D+03

 The electronic state is 1-A.
 Alpha  occ. eigenvalues --  -11.21606 -11.21602 -11.21597 -11.21553 -11.21407
 Alpha  occ. eigenvalues --  -11.21398 -11.21348 -11.21337 -11.21076 -11.21074
 Alpha  occ. eigenvalues --  -11.21064 -11.21005  -1.08444  -1.08408  -1.03579
 Alpha  occ. eigenvalues --   -1.03471  -0.96049  -0.95905  -0.87020  -0.86965
 Alpha  occ. eigenvalues --   -0.79636  -0.79535  -0.78253  -0.78220  -0.65107
 Alpha  occ. eigenvalues --   -0.65011  -0.61041  -0.60818  -0.59737  -0.59081
 Alpha  occ. eigenvalues --   -0.57818  -0.57308  -0.55314  -0.55195  -0.52906
 Alpha  occ. eigenvalues --   -0.52553  -0.52480  -0.52143  -0.49969  -0.49869
 Alpha  occ. eigenvalues --   -0.47998  -0.47795  -0.46665  -0.46565  -0.45814
 Alpha  occ. eigenvalues --   -0.45749  -0.45702  -0.45676  -0.43832  -0.43713
 Alpha virt. eigenvalues --    0.21038   0.23134   0.23368   0.25194   0.26130
 Alpha virt. eigenvalues --    0.26751   0.26931   0.27204   0.27700   0.29151
 Alpha virt. eigenvalues --    0.29645   0.31204   0.31524   0.31899   0.32355

 Mulliken charges:
               1
     1  C   -0.298236
     2  C   -0.300919
     3  C   -0.480847
     4  H    0.149812
     5  H    0.149309
     6  H    0.151861
     7  H    0.152244
     8  H    0.156007
     9  H    0.154566
    10  H    0.166130
    11  C   -0.298217
    12  C   -0.299648
    13  C   -0.475698
    14  H    0.149598
    15  H    0.149455
    16  H    0.151993
    17  H    0.151857
    18  H    0.155117
    19  H    0.155219
    20  H    0.160264
    21  C   -0.298463
    22  C   -0.301395
    23  C   -0.479662
    24  H    0.149540
    25  H    0.149196
    26  H    0.152148
    27  H    0.155862
    28  H    0.155156
    29  H    0.155325
    30  H    0.162703
    31  C   -0.298140
    32  C   -0.299619
    33  C   -0.475693
    34  H    0.149662
    35  H    0.149106
    36  H    0.152020
    37  H    0.151849
    38  H    0.155040
    39  H    0.155234
    40  H    0.160260
 Sum of Mulliken charges =  -0.00000

 Dipole moment (field-independent basis, Debye):
    X=              0.0037    Y=              0.0071    Z=              0.0072  Tot=              0.0107
 Quadrupole moment (field-independent basis, Debye-Ang):
   XX=            -84.8793   YY=            -84.8636   ZZ=            -85.1080
   XY=             -0.0387   XZ=             -0.5593   YZ=              0.8086

 Normal termination of Gaussian 16 at Thu May  6 05:28:03 2021.
