 Gaussian 16, Revision A.03,
 Gaussian 16:  EM64L-G16RevA.03 25-Dec-2016

 -------------
 #p 6-31g* mp2
 -------------

 ------------------------------------------------------
 Input file generated by CHIRIPA (05-May-2021 14:57:23)
 ------------------------------------------------------
 Symbolic Z-matrix:
 Charge =  0 Multiplicity = 1

                         Standard orientation:
 ---------------------------------------------------------------------
 Center     Atomic      Atomic             Coordinates (Angstroms)
 Number     Number       Type             X           Y           Z
 ---------------------------------------------------------------------
      1          6           0        2.594176    2.081458    1.179141
      2          6           0        3.113538    1.766852   -0.080941
      3          6           0        2.991731    0.472954   -0.596245
      4          6           0        2.341650   -0.486067    0.178973
      5          6           0        1.813679   -0.203545    1.437829
      6          6           0        1.947045    1.096991    1.933175
      7          1           0        2.693287    3.089167    1.571690
      8          1           0        3.616601    2.529384   -0.668749
      9          1           0        3.384524    0.202107   -1.568754
     10          1           0        1.317394   -0.984947    2.000439
     11          1           0        1.542729    1.338457    2.912087
     12          7           0        2.206581   -1.859372   -0.355992
     13          8           0        1.629474   -2.686311    0.346687
     14          8           0        2.680377   -2.082827   -1.467847
     15          6           0       -1.066501    2.202545   -1.220095
     16          6           0       -0.592492    0.896746   -1.383574
     17          6           0       -1.303103   -0.187338   -0.859796
     18          6           0       -2.489340    0.071905   -0.175014
     19          6           0       -2.987554    1.361432    0.004412
     20          6           0       -2.260415    2.430319   -0.527845
     21          1           0       -0.508062    3.038784   -1.630272
     22          1           0        0.334412    0.716865   -1.920729
     23          1           0       -0.959036   -1.208367   -0.971753
     24          1           0       -3.914744    1.509261    0.544675
     25          1           0       -2.630936    3.443358   -0.399355
     26          7           0       -3.250381   -1.067721    0.383975
     27          8           0       -4.292751   -0.812747    0.983217
     28          8           0       -2.790105   -2.194355    0.212283
 ---------------------------------------------------------------------

 SCF Done:  E(RHF) =  -868.336037350     A.U. after   16 cycles
 E2 =    -0.2604587992D+01 EUMP2 =    -0.87094062534163D+03

 The electronic state is 1-A.
 Alpha  occ. eigenvalues --  -20.61437 -20.61376 -20.60584 -20.60537 -15.86433
 Alpha  occ. eigenvalues --  -15.85616 -11.31818 -11.31099 -11.28455 -11.28336
 Alpha  occ. eigenvalues --  -11.28169 -11.27701 -11.27589 -11.27502 -11.27471
 Alpha  occ. eigenvalues --  -11.27366 -11.26775 -11.26650  -1.60494  -1.59645
 Alpha  occ. eigenvalues --   -1.40035  -1.39188  -1.20039  -1.19281  -1.09421
 Alpha  occ. eigenvalues --   -1.08669  -1.05431  -1.04703  -0.96240  -0.95480
 Alpha  occ. eigenvalues --   -0.86832  -0.86090  -0.83056  -0.82310  -0.78102
 Alpha  occ. eigenvalues --   -0.77336  -0.72631  -0.71914  -0.71791  -0.71124
 Alpha  occ. eigenvalues --   -0.70980  -0.70383  -0.65672  -0.65416  -0.64933
 Alpha  occ. eigenvalues --   -0.64730  -0.62760  -0.62042  -0.55920  -0.55233
 Alpha  occ. eigenvalues --   -0.54137  -0.53505  -0.52892  -0.52548  -0.49418
 Alpha  occ. eigenvalues --   -0.49398  -0.48610  -0.48572  -0.45403  -0.44566
 Alpha  occ. eigenvalues --   -0.38138  -0.37336  -0.36975  -0.36125
 Alpha virt. eigenvalues --    0.04362   0.05184   0.10367   0.11474   0.15855
 Alpha virt. eigenvalues --    0.16661   0.20699   0.21502   0.26504   0.27050
 Alpha virt. eigenvalues --    0.27932   0.28249   0.30341   0.30818   0.31921

 Mulliken charges:
               1
     1  C   -0.170520
     2  C   -0.220101
     3  C   -0.183186
     4  C    0.158231
     5  C   -0.168070
     6  C   -0.215276
     7  H    0.226599
     8  H    0.223122
     9  H    0.275065
    10  H    0.281755
    11  H    0.227330
    12  N    0.483348
    13  O   -0.450997
    14  O   -0.461761
    15  C   -0.172532
    16  C   -0.213857
    17  C   -0.179099
    18  C    0.156413
    19  C   -0.172895
    20  C   -0.219817
    21  H    0.220868
    22  H    0.224246
    23  H    0.285788
    24  H    0.274502
    25  H    0.220827
    26  N    0.486661
    27  O   -0.463414
    28  O   -0.453229
 Sum of Mulliken charges =  -0.00000

 Dipole moment (field-independent basis, Debye):
    X=              3.2523    Y=              8.6438    Z=              0.1362  Tot=              9.2364
 Quadrupole moment (field-independent basis, Debye-Ang):
   XX=           -113.9099   YY=           -107.3876   ZZ=           -100.1064
   XY=             -0.1401   XZ=              5.7284   YZ=             -0.8200

 Normal termination of Gaussian 16 at Wed May  5 16:21:35 2021.
