 Gaussian 16, Revision A.03,
 Gaussian 16:  EM64L-G16RevA.03 25-Dec-2016

 -------------
 #p 6-31g* mp2
 -------------

 ------------------------------------------------------
 Input file generated by CHIRIPA (05-May-2021 14:51:11)
 ------------------------------------------------------
 Symbolic Z-matrix:
 Charge =  0 Multiplicity = 1

                         Standard orientation:
 ---------------------------------------------------------------------
 Center     Atomic      Atomic             Coordinates (Angstroms)
 Number     Number       Type             X           Y           Z
 ---------------------------------------------------------------------
      1          6           0       -1.921149   -0.529899   -0.450399
      2          6           0       -2.092554   -1.532331   -1.592212
      3          6           0       -0.921897   -2.509790   -1.701441
      4          1           0       -0.987298    0.029361   -0.599046
      5          1           0       -1.810196   -1.077733    0.495625
      6          1           0       -2.204536   -0.982735   -2.535621
      7          1           0       -3.026202   -2.089136   -1.440932
      8          1           0       -0.811458   -3.083585   -0.775610
      9          1           0        0.014877   -1.970898   -1.876518
     10          1           0       -1.065096   -3.217356   -2.524061
     11          6           0       -3.083421    0.453956   -0.328412
     12          6           0       -2.912016    1.456388    0.813401
     13          6           0       -4.082673    2.433847    0.922630
     14          1           0       -3.194374    1.001791   -1.274436
     15          1           0       -4.017272   -0.105303   -0.179766
     16          1           0       -1.978368    2.013193    0.662121
     17          1           0       -2.800034    0.906793    1.756810
     18          1           0       -5.019447    1.894956    1.097707
     19          1           0       -4.193112    3.007643   -0.003201
     20          1           0       -3.939474    3.141413    1.745250
     21          6           0        2.410883   -0.715560    0.474663
     22          6           0        1.480153   -1.086633    1.629666
     23          6           0        1.307294   -2.597591    1.787533
     24          1           0        2.014798   -1.140168   -0.457950
     25          1           0        3.391851   -1.182604    0.638884
     26          1           0        0.501654   -0.617895    1.464016
     27          1           0        1.878399   -0.660930    2.559607
     28          1           0        2.272566   -3.078018    1.977376
     29          1           0        0.887998   -3.034738    0.875560
     30          1           0        0.638139   -2.840432    2.618869
     31          6           0        2.593686    0.791502    0.304148
     32          6           0        3.524417    1.162576   -0.850854
     33          6           0        3.697276    2.673533   -1.008722
     34          1           0        1.612719    1.258547    0.139927
     35          1           0        2.989772    1.216111    1.236762
     36          1           0        3.126171    0.736873   -1.780797
     37          1           0        4.502916    0.693837   -0.685205
     38          1           0        4.116572    3.110681   -0.096750
     39          1           0        2.732004    3.153961   -1.198566
     40          1           0        4.366430    2.916375   -1.840058
 ---------------------------------------------------------------------

 SCF Done:  E(RHF) =  -470.732205507     A.U. after   11 cycles
 E2 =    -0.1585382715D+01 EUMP2 =    -0.47231758822215D+03

 The electronic state is 1-A.
 Alpha  occ. eigenvalues --  -11.21700 -11.21670 -11.21601 -11.21493 -11.21431
 Alpha  occ. eigenvalues --  -11.21421 -11.21367 -11.21277 -11.21165 -11.21118
 Alpha  occ. eigenvalues --  -11.21078 -11.20938  -1.08543  -1.08358  -1.03632
 Alpha  occ. eigenvalues --   -1.03451  -0.96074  -0.95927  -0.87104  -0.86933
 Alpha  occ. eigenvalues --   -0.79692  -0.79535  -0.78400  -0.78150  -0.65191
 Alpha  occ. eigenvalues --   -0.64988  -0.61055  -0.60878  -0.59404  -0.59301
 Alpha  occ. eigenvalues --   -0.57736  -0.57509  -0.55459  -0.55145  -0.52756
 Alpha  occ. eigenvalues --   -0.52636  -0.52543  -0.52346  -0.50171  -0.49697
 Alpha  occ. eigenvalues --   -0.48162  -0.47745  -0.46708  -0.46551  -0.46178
 Alpha  occ. eigenvalues --   -0.45778  -0.45605  -0.45277  -0.43868  -0.43723
 Alpha virt. eigenvalues --    0.19876   0.22729   0.23317   0.24558   0.25019
 Alpha virt. eigenvalues --    0.25867   0.26192   0.27930   0.29345   0.29774
 Alpha virt. eigenvalues --    0.30806   0.31266   0.31435   0.31931   0.32324

 Mulliken charges:
               1
     1  C   -0.304872
     2  C   -0.299173
     3  C   -0.483585
     4  H    0.152911
     5  H    0.153187
     6  H    0.152084
     7  H    0.152461
     8  H    0.159977
     9  H    0.157863
    10  H    0.161207
    11  C   -0.297822
    12  C   -0.300518
    13  C   -0.475664
    14  H    0.149617
    15  H    0.150028
    16  H    0.151829
    17  H    0.152334
    18  H    0.155374
    19  H    0.155298
    20  H    0.160664
    21  C   -0.302673
    22  C   -0.305048
    23  C   -0.481709
    24  H    0.153666
    25  H    0.149383
    26  H    0.159824
    27  H    0.150857
    28  H    0.154704
    29  H    0.161249
    30  H    0.158443
    31  C   -0.300201
    32  C   -0.299401
    33  C   -0.475588
    34  H    0.149693
    35  H    0.149979
    36  H    0.151078
    37  H    0.152260
    38  H    0.155353
    39  H    0.154683
    40  H    0.160251
 Sum of Mulliken charges =  -0.00000

 Dipole moment (field-independent basis, Debye):
    X=             -0.0736    Y=             -0.0077    Z=             -0.0285  Tot=              0.0794
 Quadrupole moment (field-independent basis, Debye-Ang):
   XX=            -84.5187   YY=            -86.0988   ZZ=            -84.1651
   XY=              0.7053   XZ=              0.3624   YZ=             -0.2192

 Normal termination of Gaussian 16 at Wed May  5 15:16:05 2021.
