 Gaussian 16, Revision A.03,
 Gaussian 16:  EM64L-G16RevA.03 25-Dec-2016

 -------------
 #p 6-31g* mp2
 -------------

 ------------------------------------------------------
 Input file generated by CHIRIPA (05-May-2021 14:51:10)
 ------------------------------------------------------
 Symbolic Z-matrix:
 Charge =  0 Multiplicity = 1

                         Standard orientation:
 ---------------------------------------------------------------------
 Center     Atomic      Atomic             Coordinates (Angstroms)
 Number     Number       Type             X           Y           Z
 ---------------------------------------------------------------------
      1          6           0       -3.376848   -0.140956   -0.072402
      2          6           0       -4.647179   -0.568550   -0.808206
      3          6           0       -4.912512   -2.070833   -0.705558
      4          1           0       -2.520311   -0.694758   -0.480560
      5          1           0       -3.459624   -0.428212    0.984966
      6          1           0       -4.562613   -0.279336   -1.863583
      7          1           0       -5.500763   -0.013525   -0.398380
      8          1           0       -5.023232   -2.371837    0.341218
      9          1           0       -4.079752   -2.639158   -1.132310
     10          1           0       -5.825337   -2.354629   -1.238542
     11          6           0       -3.098104    1.358140   -0.165886
     12          6           0       -1.827772    1.785734    0.569918
     13          6           0       -1.562439    3.288017    0.467270
     14          1           0       -3.015327    1.645396   -1.223254
     15          1           0       -3.954641    1.911942    0.242272
     16          1           0       -0.974188    1.230709    0.160092
     17          1           0       -1.912338    1.496520    1.625295
     18          1           0       -2.395200    3.856342    0.894022
     19          1           0       -1.451719    3.589021   -0.579506
     20          1           0       -0.649615    3.571812    1.000254
     21          6           0        2.805367   -1.225820    0.244617
     22          6           0        1.460763   -0.902295    0.896809
     23          6           0        0.607622   -2.147322    1.141461
     24          1           0        2.628466   -1.743819   -0.707921
     25          1           0        3.355973   -1.928690    0.885088
     26          1           0        0.913444   -0.199170    0.255972
     27          1           0        1.640883   -0.384837    1.847814
     28          1           0        1.130268   -2.849302    1.799235
     29          1           0        0.398695   -2.662580    0.198350
     30          1           0       -0.349070   -1.893051    1.608308
     31          6           0        3.669583    0.008637   -0.006329
     32          6           0        5.014189   -0.314888   -0.658521
     33          6           0        5.867329    0.930138   -0.903173
     34          1           0        3.118978    0.711506   -0.646800
     35          1           0        3.846485    0.526635    0.946210
     36          1           0        4.834068   -0.832347   -1.609525
     37          1           0        5.561508   -1.018013   -0.017684
     38          1           0        6.076256    1.445395    0.039939
     39          1           0        5.344684    1.632118   -1.560947
     40          1           0        6.824022    0.675867   -1.370019
 ---------------------------------------------------------------------

 SCF Done:  E(RHF) =  -470.733276460     A.U. after   11 cycles
 E2 =    -0.1583129041D+01 EUMP2 =    -0.47231640550119D+03

 The electronic state is 1-A.
 Alpha  occ. eigenvalues --  -11.21605 -11.21601 -11.21572 -11.21570 -11.21404
 Alpha  occ. eigenvalues --  -11.21403 -11.21344 -11.21343 -11.21074 -11.21063
 Alpha  occ. eigenvalues --  -11.21062 -11.21040  -1.08445  -1.08410  -1.03544
 Alpha  occ. eigenvalues --   -1.03500  -0.95974  -0.95967  -0.87001  -0.86972
 Alpha  occ. eigenvalues --   -0.79683  -0.79499  -0.78314  -0.78165  -0.65148
 Alpha  occ. eigenvalues --   -0.64982  -0.61023  -0.60833  -0.59400  -0.59276
 Alpha  occ. eigenvalues --   -0.57588  -0.57572  -0.55268  -0.55255  -0.52692
 Alpha  occ. eigenvalues --   -0.52636  -0.52415  -0.52372  -0.49984  -0.49861
 Alpha  occ. eigenvalues --   -0.48101  -0.47766  -0.46849  -0.46443  -0.45955
 Alpha  occ. eigenvalues --   -0.45749  -0.45736  -0.45372  -0.43776  -0.43771
 Alpha virt. eigenvalues --    0.21057   0.23208   0.23846   0.24259   0.25719
 Alpha virt. eigenvalues --    0.26454   0.27056   0.27411   0.28152   0.29455
 Alpha virt. eigenvalues --    0.30654   0.31389   0.31625   0.31726   0.32102

 Mulliken charges:
               1
     1  C   -0.299711
     2  C   -0.299688
     3  C   -0.475660
     4  H    0.151233
     5  H    0.149289
     6  H    0.151802
     7  H    0.151993
     8  H    0.155245
     9  H    0.155340
    10  H    0.160181
    11  C   -0.297761
    12  C   -0.307042
    13  C   -0.475348
    14  H    0.149099
    15  H    0.149646
    16  H    0.159589
    17  H    0.151720
    18  H    0.155124
    19  H    0.154715
    20  H    0.160574
    21  C   -0.297572
    22  C   -0.305374
    23  C   -0.476797
    24  H    0.149214
    25  H    0.149545
    26  H    0.157000
    27  H    0.152029
    28  H    0.154971
    29  H    0.154219
    30  H    0.162679
    31  C   -0.298234
    32  C   -0.299619
    33  C   -0.475710
    34  H    0.149121
    35  H    0.149713
    36  H    0.151854
    37  H    0.151995
    38  H    0.155208
    39  H    0.155163
    40  H    0.160258
 Sum of Mulliken charges =  -0.00000

 Dipole moment (field-independent basis, Debye):
    X=             -0.0031    Y=              0.0003    Z=              0.0097  Tot=              0.0102
 Quadrupole moment (field-independent basis, Debye-Ang):
   XX=            -85.0163   YY=            -86.5879   ZZ=            -83.2234
   XY=             -1.0296   XZ=              0.1023   YZ=              0.2092

 Normal termination of Gaussian 16 at Wed May  5 21:24:14 2021.
