 Gaussian 16, Revision A.03,
 Gaussian 16:  EM64L-G16RevA.03 25-Dec-2016

 -------------
 #p 6-31g* mp2
 -------------

 ------------------------------------------------------
 Input file generated by CHIRIPA (05-May-2021 14:53:13)
 ------------------------------------------------------
 Symbolic Z-matrix:
 Charge =  0 Multiplicity = 1

                         Standard orientation:
 ---------------------------------------------------------------------
 Center     Atomic      Atomic             Coordinates (Angstroms)
 Number     Number       Type             X           Y           Z
 ---------------------------------------------------------------------
      1          6           0        5.219646    0.250330   -0.017037
      2          6           0        6.544220   -0.282933   -0.563954
      3          6           0        7.573291    0.822524   -0.802228
      4          1           0        4.810592    0.988664   -0.720231
      5          1           0        5.408411    0.785806    0.923722
      6          1           0        6.352827   -0.818432   -1.502690
      7          1           0        6.950074   -1.020224    0.140531
      8          1           0        7.793343    1.351584    0.130656
      9          1           0        7.192702    1.554523   -1.521902
     10          1           0        8.512600    0.419132   -1.193168
     11          6           0        4.180693   -0.842865    0.226335
     12          6           0        2.856118   -0.309602    0.773252
     13          6           0        1.827047   -1.415058    1.011526
     14          1           0        3.991927   -1.378341   -0.714425
     15          1           0        4.589747   -1.581199    0.929529
     16          1           0        2.450264    0.427689    0.068767
     17          1           0        3.047511    0.225897    1.711988
     18          1           0        2.207636   -2.147058    1.731199
     19          1           0        1.606996   -1.944119    0.078642
     20          1           0        0.887739   -1.011667    1.402466
     21          6           0       -5.752030   -1.137803   -0.487405
     22          6           0       -4.499541   -1.759762   -0.456406
     23          6           0       -3.340339   -1.011002   -0.232451
     24          6           0       -3.470919    0.363834   -0.042540
     25          6           0       -4.704543    1.012544   -0.067748
     26          6           0       -5.850360    0.243929   -0.293319
     27          1           0       -6.647327   -1.727170   -0.662007
     28          1           0       -4.420161   -2.832665   -0.606816
     29          1           0       -2.358122   -1.466880   -0.203442
     30          1           0       -4.751893    2.083839    0.085564
     31          1           0       -6.821739    0.729636   -0.316869
     32          7           0       -2.250808    1.167023    0.195407
     33          8           0       -2.392680    2.376759    0.359869
     34          8           0       -1.175716    0.571617    0.212943
 ---------------------------------------------------------------------

 SCF Done:  E(RHF) =  -669.536042326     A.U. after   15 cycles
 E2 =    -0.2090763436D+01 EUMP2 =    -0.67162680576209D+03

 The electronic state is 1-A.
 Alpha  occ. eigenvalues --  -20.60908 -20.60894 -15.85944 -11.31266 -11.27833
 Alpha  occ. eigenvalues --  -11.27824 -11.27572 -11.26841 -11.26831 -11.21034
 Alpha  occ. eigenvalues --  -11.20662 -11.20579 -11.20536 -11.20428 -11.19887
 Alpha  occ. eigenvalues --   -1.59971  -1.39527  -1.19437  -1.08842  -1.07623
 Alpha  occ. eigenvalues --   -1.04834  -1.02678  -0.95686  -0.95145  -0.86234
 Alpha  occ. eigenvalues --   -0.86179  -0.82516  -0.78771  -0.77567  -0.77407
 Alpha  occ. eigenvalues --   -0.72174  -0.71287  -0.70546  -0.65094  -0.64836
 Alpha  occ. eigenvalues --   -0.64261  -0.62180  -0.60083  -0.58518  -0.56712
 Alpha  occ. eigenvalues --   -0.55339  -0.54462  -0.53167  -0.52925  -0.51819
 Alpha  occ. eigenvalues --   -0.51579  -0.49141  -0.48920  -0.48907  -0.47076
 Alpha  occ. eigenvalues --   -0.45817  -0.44980  -0.44920  -0.44860  -0.42925
 Alpha  occ. eigenvalues --   -0.37418  -0.36436
 Alpha virt. eigenvalues --    0.04943   0.11219   0.16426   0.21262   0.23605
 Alpha virt. eigenvalues --    0.24982   0.27113   0.27426   0.27848   0.28292
 Alpha virt. eigenvalues --    0.29096   0.30888   0.31951   0.32322   0.32574

 Mulliken charges:
               1
     1  C   -0.297840
     2  C   -0.298920
     3  C   -0.475292
     4  H    0.150783
     5  H    0.149043
     6  H    0.150499
     7  H    0.150367
     8  H    0.154800
     9  H    0.155174
    10  H    0.158140
    11  C   -0.297845
    12  C   -0.298777
    13  C   -0.479246
    14  H    0.146612
    15  H    0.145981
    16  H    0.162677
    17  H    0.150126
    18  H    0.145702
    19  H    0.147400
    20  H    0.178013
    21  C   -0.170626
    22  C   -0.218621
    23  C   -0.171108
    24  C    0.157714
    25  C   -0.170852
    26  C   -0.218602
    27  H    0.225899
    28  H    0.223924
    29  H    0.276689
    30  H    0.275736
    31  H    0.223696
    32  N    0.492662
    33  O   -0.459300
    34  O   -0.464608
 Sum of Mulliken charges =  -0.00000

 Dipole moment (field-independent basis, Debye):
    X=             -4.5854    Y=             -2.7010    Z=             -0.8419  Tot=              5.3879
 Quadrupole moment (field-independent basis, Debye-Ang):
   XX=            -65.4033   YY=            -94.3273   ZZ=            -94.8031
   XY=              5.5620   XZ=              3.4626   YZ=              0.3218

 Normal termination of Gaussian 16 at Wed May  5 20:11:49 2021.
