 Gaussian 16, Revision A.03,
 Gaussian 16:  EM64L-G16RevA.03 25-Dec-2016

 -------------
 #p 6-31g* mp2
 -------------

 ------------------------------------------------------
 Input file generated by CHIRIPA (05-May-2021 14:57:27)
 ------------------------------------------------------
 Symbolic Z-matrix:
 Charge =  0 Multiplicity = 1

                         Standard orientation:
 ---------------------------------------------------------------------
 Center     Atomic      Atomic             Coordinates (Angstroms)
 Number     Number       Type             X           Y           Z
 ---------------------------------------------------------------------
      1          6           0       -2.719011   -2.105152   -0.491268
      2          6           0       -4.096761   -2.053537   -0.727201
      3          6           0       -4.809874   -0.870187   -0.513420
      4          6           0       -4.110327    0.247661   -0.061381
      5          6           0       -2.738001    0.227792    0.182784
      6          6           0       -2.045217   -0.966331   -0.037828
      7          1           0       -2.172944   -3.028591   -0.659991
      8          1           0       -4.622649   -2.936408   -1.079373
      9          1           0       -5.876798   -0.802384   -0.688043
     10          1           0       -2.241279    1.124242    0.533587
     11          1           0       -0.975272   -1.003497    0.146242
     12          7           0       -4.854507    1.506122    0.168555
     13          8           0       -4.214979    2.477135    0.567021
     14          8           0       -6.063232    1.497662   -0.054041
     15          6           0        5.609118    1.288670   -1.304582
     16          6           0        5.619551    1.418171    0.088128
     17          6           0        4.725696    0.686773    0.875927
     18          6           0        3.830922   -0.168726    0.234997
     19          6           0        3.796006   -0.319492   -1.150405
     20          6           0        4.698983    0.421780   -1.918322
     21          1           0        6.307029    1.860672   -1.908840
     22          1           0        6.325263    2.090651    0.567490
     23          1           0        4.712137    0.767845    1.956048
     24          1           0        3.080807   -0.997850   -1.599561
     25          1           0        4.688612    0.319196   -2.999716
     26          7           0        2.879808   -0.948252    1.058480
     27          8           0        2.101398   -1.695196    0.469593
     28          8           0        2.930746   -0.797538    2.277221
 ---------------------------------------------------------------------

 SCF Done:  E(RHF) =  -868.340141339     A.U. after   16 cycles
 E2 =    -0.2598207692D+01 EUMP2 =    -0.87093834903102D+03

 The electronic state is 1-A.
 Alpha  occ. eigenvalues --  -20.61744 -20.61675 -20.60239 -20.60233 -15.86731
 Alpha  occ. eigenvalues --  -15.85283 -11.31827 -11.30496 -11.28384 -11.28341
 Alpha  occ. eigenvalues --  -11.28042 -11.27318 -11.27293 -11.27062 -11.26976
 Alpha  occ. eigenvalues --  -11.26672 -11.26058 -11.25815  -1.60769  -1.59317
 Alpha  occ. eigenvalues --   -1.40331  -1.38875  -1.19972  -1.18628  -1.09414
 Alpha  occ. eigenvalues --   -1.08041  -1.05334  -1.03994  -0.96294  -0.94912
 Alpha  occ. eigenvalues --   -0.86744  -0.85386  -0.83137  -0.81742  -0.78218
 Alpha  occ. eigenvalues --   -0.76819  -0.72958  -0.72071  -0.71506  -0.71073
 Alpha  occ. eigenvalues --   -0.70638  -0.69721  -0.65628  -0.65329  -0.64267
 Alpha  occ. eigenvalues --   -0.63946  -0.62685  -0.61329  -0.55835  -0.54470
 Alpha  occ. eigenvalues --   -0.53676  -0.53420  -0.52353  -0.52050  -0.49729
 Alpha  occ. eigenvalues --   -0.49682  -0.48271  -0.48246  -0.45782  -0.44315
 Alpha  occ. eigenvalues --   -0.37931  -0.36923  -0.36595  -0.35603
 Alpha virt. eigenvalues --    0.04258   0.05683   0.10735   0.12056   0.15786
 Alpha virt. eigenvalues --    0.17233   0.20892   0.22342   0.26829   0.27615
 Alpha virt. eigenvalues --    0.28376   0.29099   0.30472   0.31700   0.32233

 Mulliken charges:
               1
     1  C   -0.172718
     2  C   -0.218835
     3  C   -0.172888
     4  C    0.158286
     5  C   -0.173159
     6  C   -0.226070
     7  H    0.228274
     8  H    0.220727
     9  H    0.272852
    10  H    0.273733
    11  H    0.242679
    12  N    0.488144
    13  O   -0.462141
    14  O   -0.462645
    15  C   -0.169634
    16  C   -0.218310
    17  C   -0.170209
    18  C    0.157360
    19  C   -0.171034
    20  C   -0.218181
    21  H    0.228226
    22  H    0.226051
    23  H    0.277061
    24  H    0.273329
    25  H    0.225256
    26  N    0.488773
    27  O   -0.470335
    28  O   -0.454594
 Sum of Mulliken charges =  -0.00000

 Dipole moment (field-independent basis, Debye):
    X=              6.4931    Y=             -1.6680    Z=             -3.6716  Tot=              7.6435
 Quadrupole moment (field-independent basis, Debye-Ang):
   XX=            -97.0842   YY=           -107.3074   ZZ=           -102.9891
   XY=             32.7914   XZ=             -4.2169   YZ=              3.8226

 Normal termination of Gaussian 16 at Wed May  5 22:52:15 2021.
