 Gaussian 16, Revision A.03,
 Gaussian 16:  EM64L-G16RevA.03 25-Dec-2016

 -------------
 #p 6-31g* mp2
 -------------

 ------------------------------------------------------
 Input file generated by CHIRIPA (05-May-2021 14:53:11)
 ------------------------------------------------------
 Symbolic Z-matrix:
 Charge =  0 Multiplicity = 1

                         Standard orientation:
 ---------------------------------------------------------------------
 Center     Atomic      Atomic             Coordinates (Angstroms)
 Number     Number       Type             X           Y           Z
 ---------------------------------------------------------------------
      1          6           0       -4.823432    0.015181    0.381010
      2          6           0       -6.144588   -0.536858   -0.155446
      3          6           0       -7.361469    0.017711    0.585802
      4          1           0       -4.742014   -0.221211    1.450792
      5          1           0       -4.833368    1.111175    0.302958
      6          1           0       -6.131606   -1.631573   -0.077685
      7          1           0       -6.222783   -0.299292   -1.224120
      8          1           0       -7.402227    1.108203    0.497666
      9          1           0       -7.310532   -0.231648    1.650615
     10          1           0       -8.295191   -0.390091    0.186152
     11          6           0       -3.597732   -0.529909   -0.349925
     12          6           0       -2.276576    0.022129    0.186531
     13          6           0       -1.059696   -0.532440   -0.554718
     14          1           0       -3.587796   -1.625904   -0.271873
     15          1           0       -3.679151   -0.293518   -1.419708
     16          1           0       -2.198381   -0.215437    1.255204
     17          1           0       -2.289558    1.116844    0.108769
     18          1           0       -1.110632   -0.283080   -1.619531
     19          1           0       -1.018937   -1.622931   -0.466582
     20          1           0       -0.125973   -0.124637   -0.155068
     21          6           0        4.664814   -1.868655    0.424593
     22          6           0        3.958011   -1.738192   -0.775378
     23          6           0        3.192756   -0.595789   -1.028056
     24          6           0        3.156559    0.401159   -0.054364
     25          6           0        3.849688    0.300523    1.150930
     26          6           0        4.608496   -0.850675    1.382228
     27          1           0        5.256779   -2.759518    0.612575
     28          1           0        3.999907   -2.527169   -1.520901
     29          1           0        2.635798   -0.468893   -1.948444
     30          1           0        3.788516    1.103867    1.875027
     31          1           0        5.156385   -0.949279    2.315042
     32          7           0        2.349830    1.615226   -0.310546
     33          8           0        2.334324    2.479310    0.563384
     34          8           0        1.748297    1.679739   -1.380422
 ---------------------------------------------------------------------

 SCF Done:  E(RHF) =  -669.535518271     A.U. after   15 cycles
 E2 =    -0.2091706853D+01 EUMP2 =    -0.67162722512447D+03

 The electronic state is 1-A.
 Alpha  occ. eigenvalues --  -20.60842 -20.60828 -15.85863 -11.31210 -11.27783
 Alpha  occ. eigenvalues --  -11.27771 -11.27524 -11.26790 -11.26777 -11.21279
 Alpha  occ. eigenvalues --  -11.21005 -11.20980 -11.20899 -11.20787 -11.20459
 Alpha  occ. eigenvalues --   -1.59907  -1.39459  -1.19385  -1.08788  -1.07987
 Alpha  occ. eigenvalues --   -1.04781  -1.03073  -0.95629  -0.95529  -0.86559
 Alpha  occ. eigenvalues --   -0.86180  -0.82455  -0.79148  -0.77798  -0.77502
 Alpha  occ. eigenvalues --   -0.72094  -0.71254  -0.70491  -0.65039  -0.64784
 Alpha  occ. eigenvalues --   -0.64614  -0.62127  -0.60461  -0.58908  -0.57142
 Alpha  occ. eigenvalues --   -0.55288  -0.54815  -0.53120  -0.52874  -0.52233
 Alpha  occ. eigenvalues --   -0.51967  -0.49478  -0.48854  -0.48848  -0.47470
 Alpha  occ. eigenvalues --   -0.46176  -0.45342  -0.45260  -0.44855  -0.43288
 Alpha  occ. eigenvalues --   -0.37362  -0.36376
 Alpha virt. eigenvalues --    0.05012   0.11239   0.16496   0.21384   0.23294
 Alpha virt. eigenvalues --    0.24678   0.27049   0.27250   0.27893   0.27939
 Alpha virt. eigenvalues --    0.28613   0.30780   0.31798   0.31861   0.32146

 Mulliken charges:
               1
     1  C   -0.298166
     2  C   -0.299309
     3  C   -0.475511
     4  H    0.148518
     5  H    0.151323
     6  H    0.150390
     7  H    0.151931
     8  H    0.155774
     9  H    0.154490
    10  H    0.159082
    11  C   -0.298423
    12  C   -0.300325
    13  C   -0.472218
    14  H    0.146303
    15  H    0.150093
    16  H    0.148774
    17  H    0.159764
    18  H    0.159706
    19  H    0.146374
    20  H    0.158086
    21  C   -0.170546
    22  C   -0.218605
    23  C   -0.169908
    24  C    0.155496
    25  C   -0.171089
    26  C   -0.218678
    27  H    0.225700
    28  H    0.223699
    29  H    0.276564
    30  H    0.275675
    31  H    0.223494
    32  N    0.488198
    33  O   -0.459499
    34  O   -0.457156
 Sum of Mulliken charges =  -0.00000

 Dipole moment (field-independent basis, Debye):
    X=              2.9533    Y=             -4.1772    Z=              0.8540  Tot=              5.1865
 Quadrupole moment (field-independent basis, Debye-Ang):
   XX=            -78.4313   YY=            -97.6907   ZZ=            -90.7553
   XY=            -12.1151   XZ=              4.6826   YZ=              1.8067

 Normal termination of Gaussian 16 at Thu May  6 05:38:59 2021.
