 Gaussian 16, Revision A.03,
 Gaussian 16:  EM64L-G16RevA.03 25-Dec-2016

 -------------
 #p 6-31g* mp2
 -------------

 ------------------------------------------------------
 Input file generated by CHIRIPA (05-May-2021 14:53:12)
 ------------------------------------------------------
 Symbolic Z-matrix:
 Charge =  0 Multiplicity = 1

                         Standard orientation:
 ---------------------------------------------------------------------
 Center     Atomic      Atomic             Coordinates (Angstroms)
 Number     Number       Type             X           Y           Z
 ---------------------------------------------------------------------
      1          6           0        3.135430   -0.111281   -0.419144
      2          6           0        4.598691   -0.532200   -0.278864
      3          6           0        4.939694   -1.770604   -1.108243
      4          1           0        2.489534   -0.946647   -0.115947
      5          1           0        2.917262    0.084079   -1.478215
      6          1           0        4.814401   -0.725371    0.779800
      7          1           0        5.241179    0.304330   -0.582248
      8          1           0        4.752368   -1.586067   -2.171002
      9          1           0        4.323165   -2.621619   -0.801214
     10          1           0        5.990565   -2.053961   -0.993184
     11          6           0        2.779172    1.125295    0.404074
     12          6           0        1.315911    1.546215    0.263794
     13          6           0        0.974908    2.784618    1.093173
     14          1           0        2.997340    0.929935    1.463145
     15          1           0        3.425068    1.960661    0.100877
     16          1           0        0.673423    0.709684    0.567178
     17          1           0        1.100201    1.739386   -0.794870
     18          1           0        1.591437    3.635633    0.786144
     19          1           0        1.162234    2.600081    2.155931
     20          1           0       -0.075963    3.067976    0.978114
     21          6           0       -1.634226   -1.656218    2.084546
     22          6           0       -1.703244   -0.259302    2.104171
     23          6           0       -2.076723    0.449288    0.958325
     24          6           0       -2.375761   -0.274276   -0.195070
     25          6           0       -2.316226   -1.666087   -0.246143
     26          6           0       -1.940398   -2.353921    0.911521
     27          1           0       -1.343188   -2.198606    2.979257
     28          1           0       -1.466024    0.285173    3.013741
     29          1           0       -2.138297    1.530708    0.945704
     30          1           0       -2.558553   -2.181144   -1.167778
     31          1           0       -1.887651   -3.438787    0.893365
     32          7           0       -2.772389    0.464891   -1.414381
     33          8           0       -3.030898   -0.195958   -2.417919
     34          8           0       -2.817245    1.691102   -1.343451
 ---------------------------------------------------------------------

 SCF Done:  E(RHF) =  -669.534333694     A.U. after   15 cycles
 E2 =    -0.2093829881D+01 EUMP2 =    -0.67162816357462D+03

 The electronic state is 1-A.
 Alpha  occ. eigenvalues --  -20.60802 -20.60797 -15.85854 -11.31215 -11.27817
 Alpha  occ. eigenvalues --  -11.27790 -11.27575 -11.26826 -11.26802 -11.21704
 Alpha  occ. eigenvalues --  -11.21534 -11.21474 -11.21419 -11.21314 -11.21179
 Alpha  occ. eigenvalues --   -1.59874  -1.39428  -1.19427  -1.08809  -1.08511
 Alpha  occ. eigenvalues --   -1.04843  -1.03630  -0.96119  -0.95637  -0.87128
 Alpha  occ. eigenvalues --   -0.86221  -0.82473  -0.79697  -0.78325  -0.77514
 Alpha  occ. eigenvalues --   -0.72075  -0.71195  -0.70539  -0.65173  -0.65054
 Alpha  occ. eigenvalues --   -0.64830  -0.62212  -0.61052  -0.59477  -0.57729
 Alpha  occ. eigenvalues --   -0.55426  -0.55321  -0.53203  -0.53006  -0.52722
 Alpha  occ. eigenvalues --   -0.52488  -0.50042  -0.48833  -0.48828  -0.48002
 Alpha  occ. eigenvalues --   -0.46703  -0.45858  -0.45774  -0.44826  -0.43889
 Alpha  occ. eigenvalues --   -0.37408  -0.36321
 Alpha virt. eigenvalues --    0.05006   0.11158   0.16462   0.20652   0.22889
 Alpha virt. eigenvalues --    0.23982   0.26309   0.26569   0.27293   0.27804
 Alpha virt. eigenvalues --    0.29035   0.29810   0.31373   0.31527   0.31880

 Mulliken charges:
               1
     1  C   -0.298525
     2  C   -0.299545
     3  C   -0.475540
     4  H    0.147724
     5  H    0.152570
     6  H    0.150041
     7  H    0.153006
     8  H    0.156910
     9  H    0.153241
    10  H    0.160222
    11  C   -0.297039
    12  C   -0.309027
    13  C   -0.478861
    14  H    0.145592
    15  H    0.150496
    16  H    0.158159
    17  H    0.158427
    18  H    0.160014
    19  H    0.148769
    20  H    0.158763
    21  C   -0.171061
    22  C   -0.219186
    23  C   -0.173500
    24  C    0.162009
    25  C   -0.170720
    26  C   -0.218877
    27  H    0.225894
    28  H    0.224766
    29  H    0.278782
    30  H    0.275935
    31  H    0.223673
    32  N    0.488185
    33  O   -0.460300
    34  O   -0.460995
 Sum of Mulliken charges =  -0.00000

 Dipole moment (field-independent basis, Debye):
    X=              1.3524    Y=             -2.6111    Z=              4.2140  Tot=              5.1385
 Quadrupole moment (field-independent basis, Debye-Ang):
   XX=           -102.4188   YY=            -90.1554   ZZ=            -95.4627
   XY=              6.9349   XZ=            -10.4729   YZ=              0.5979

 Normal termination of Gaussian 16 at Thu May  6 07:16:45 2021.
