 Gaussian 16, Revision A.03,
 Gaussian 16:  EM64L-G16RevA.03 25-Dec-2016

 -------------
 #p 6-31g* mp2
 -------------

 ------------------------------------------------------
 Input file generated by CHIRIPA (05-May-2021 14:55:20)
 ------------------------------------------------------
 Symbolic Z-matrix:
 Charge =  0 Multiplicity = 1

                         Standard orientation:
 ---------------------------------------------------------------------
 Center     Atomic      Atomic             Coordinates (Angstroms)
 Number     Number       Type             X           Y           Z
 ---------------------------------------------------------------------
      1          6           0       -0.838371   -1.917172   -0.143101
      2          6           0       -2.012204   -2.392096    0.451108
      3          6           0       -3.160271   -1.595307    0.491341
      4          6           0       -3.098883   -0.322899   -0.074785
      5          6           0       -1.944410    0.178589   -0.673945
      6          6           0       -0.808273   -0.635605   -0.702744
      7          1           0        0.048842   -2.542897   -0.169913
      8          1           0       -2.038482   -3.386966    0.886525
      9          1           0       -4.082289   -1.937998    0.945062
     10          1           0       -1.948817    1.174660   -1.099668
     11          1           0        0.101949   -0.264155   -1.164875
     12          7           0       -4.307975    0.529838   -0.038244
     13          8           0       -4.228055    1.647171   -0.544028
     14          8           0       -5.312686    0.064734    0.495488
     15          6           0        4.347834    0.268960    0.374317
     16          6           0        4.908126   -0.822384   -0.538386
     17          6           0        6.181178   -1.461592    0.017083
     18          1           0        5.113538    1.042623    0.522937
     19          1           0        4.141535   -0.160891    1.364299
     20          1           0        5.112010   -0.390923   -1.526763
     21          1           0        4.140933   -1.593443   -0.685006
     22          1           0        5.988691   -1.917997    0.993425
     23          1           0        6.965286   -0.708645    0.146884
     24          1           0        6.564594   -2.238971   -0.651148
     25          6           0        3.075167    0.917448   -0.167451
     26          6           0        2.514874    2.008791    0.745252
     27          6           0        1.241823    2.648000    0.189783
     28          1           0        3.281465    1.347298   -1.157433
     29          1           0        2.309463    0.143785   -0.316071
     30          1           0        3.282068    2.779851    0.891872
     31          1           0        2.310991    1.577331    1.733629
     32          1           0        0.457716    1.895053    0.059981
     33          1           0        1.434310    3.104405   -0.786559
     34          1           0        0.858407    3.425379    0.858014
 ---------------------------------------------------------------------

 SCF Done:  E(RHF) =  -669.534625124     A.U. after   15 cycles
 E2 =    -0.2093044332D+01 EUMP2 =    -0.67162766945541D+03

 The electronic state is 1-A.
 Alpha  occ. eigenvalues --  -20.60766 -20.60760 -15.85820 -11.31208 -11.27786
 Alpha  occ. eigenvalues --  -11.27763 -11.27526 -11.26805 -11.26744 -11.22358
 Alpha  occ. eigenvalues --  -11.22313 -11.22240 -11.22118 -11.21692 -11.21657
 Alpha  occ. eigenvalues --   -1.59841  -1.39393  -1.19389  -1.09203  -1.08775
 Alpha  occ. eigenvalues --   -1.04805  -1.04218  -0.96678  -0.95607  -0.87694
 Alpha  occ. eigenvalues --   -0.86191  -0.82451  -0.80295  -0.79060  -0.77473
 Alpha  occ. eigenvalues --   -0.72038  -0.71164  -0.70492  -0.65897  -0.65043
 Alpha  occ. eigenvalues --   -0.64766  -0.62244  -0.61520  -0.60026  -0.58295
 Alpha  occ. eigenvalues --   -0.55987  -0.55290  -0.53332  -0.53238  -0.53028
 Alpha  occ. eigenvalues --   -0.52861  -0.50624  -0.48811  -0.48791  -0.48588
 Alpha  occ. eigenvalues --   -0.47315  -0.46553  -0.46479  -0.44793  -0.44495
 Alpha  occ. eigenvalues --   -0.37366  -0.36346
 Alpha virt. eigenvalues --    0.05011   0.11170   0.16354   0.20023   0.22544
 Alpha virt. eigenvalues --    0.23784   0.25239   0.26278   0.26420   0.28625
 Alpha virt. eigenvalues --    0.29405   0.29949   0.31121   0.31407   0.31469

 Mulliken charges:
               1
     1  C   -0.173442
     2  C   -0.218532
     3  C   -0.171031
     4  C    0.157860
     5  C   -0.171198
     6  C   -0.222188
     7  H    0.225329
     8  H    0.223558
     9  H    0.275795
    10  H    0.277661
    11  H    0.231575
    12  N    0.488060
    13  O   -0.459880
    14  O   -0.460490
    15  C   -0.298468
    16  C   -0.298946
    17  C   -0.476095
    18  H    0.153443
    19  H    0.150627
    20  H    0.153585
    21  H    0.145734
    22  H    0.155593
    23  H    0.157585
    24  H    0.161515
    25  C   -0.301837
    26  C   -0.299198
    27  C   -0.483849
    28  H    0.151128
    29  H    0.140067
    30  H    0.155505
    31  H    0.154521
    32  H    0.153581
    33  H    0.155086
    34  H    0.167344
 Sum of Mulliken charges =  -0.00000

 Dipole moment (field-independent basis, Debye):
    X=              4.3701    Y=             -2.9394    Z=             -0.0623  Tot=              5.2671
 Quadrupole moment (field-independent basis, Debye-Ang):
   XX=           -120.2026   YY=            -90.0489   ZZ=            -94.0820
   XY=             11.1557   XZ=             -1.6493   YZ=             -1.8490

 Normal termination of Gaussian 16 at Wed May  5 22:11:26 2021.
