 Gaussian 16, Revision A.03,
 Gaussian 16:  EM64L-G16RevA.03 25-Dec-2016

 -------------
 #p 6-31g* mp2
 -------------

 ------------------------------------------------------
 Input file generated by CHIRIPA (05-May-2021 14:51:07)
 ------------------------------------------------------
 Symbolic Z-matrix:
 Charge =  0 Multiplicity = 1

                         Standard orientation:
 ---------------------------------------------------------------------
 Center     Atomic      Atomic             Coordinates (Angstroms)
 Number     Number       Type             X           Y           Z
 ---------------------------------------------------------------------
      1          6           0       -3.607183   -0.303610   -0.119527
      2          6           0       -2.727717   -1.482715   -0.536943
      3          6           0       -3.473127   -2.817262   -0.503144
      4          1           0       -3.994318   -0.483457    0.892761
      5          1           0       -4.480893   -0.253576   -0.783999
      6          1           0       -1.855217   -1.529674    0.127252
      7          1           0       -2.342475   -1.299952   -1.548280
      8          1           0       -4.333800   -2.795025   -1.179419
      9          1           0       -3.843773   -3.026052    0.505633
     10          1           0       -2.825741   -3.646464   -0.805096
     11          6           0       -2.876120    1.037453   -0.148261
     12          6           0       -3.755586    2.216558    0.269156
     13          6           0       -3.010176    3.551104    0.235356
     14          1           0       -2.002411    0.987418    0.516211
     15          1           0       -2.488985    1.217299   -1.160548
     16          1           0       -4.140828    2.033794    1.280493
     17          1           0       -4.628086    2.263517   -0.395039
     18          1           0       -2.639530    3.759895   -0.773420
     19          1           0       -2.149503    3.528867    0.911632
     20          1           0       -3.657563    4.380306    0.537308
     21          6           0        3.573427    0.318046    0.198525
     22          6           0        4.906611    0.418481   -0.543446
     23          6           0        5.558119    1.794742   -0.404751
     24          1           0        2.889888    1.088988   -0.182748
     25          1           0        3.735746    0.542427    1.261868
     26          1           0        4.742064    0.192623   -1.604826
     27          1           0        5.586990   -0.352913   -0.160496
     28          1           0        5.750942    2.025356    0.647978
     29          1           0        4.901215    2.573992   -0.804559
     30          1           0        6.509914    1.844409   -0.942786
     31          6           0        2.909876   -1.051888    0.069263
     32          6           0        1.576693   -1.152323    0.811233
     33          6           0        0.925184   -2.528584    0.672538
     34          1           0        2.747557   -1.276269   -0.994081
     35          1           0        3.593415   -1.822830    0.450535
     36          1           0        0.896314   -0.380930    0.428284
     37          1           0        1.741240   -0.926465    1.872614
     38          1           0        1.582088   -3.307835    1.072346
     39          1           0        0.732361   -2.759199   -0.380191
     40          1           0       -0.026611   -2.578251    1.210573
 ---------------------------------------------------------------------

 SCF Done:  E(RHF) =  -470.733028498     A.U. after   11 cycles
 E2 =    -0.1583137919D+01 EUMP2 =    -0.47231616641723D+03

 The electronic state is 1-A.
 Alpha  occ. eigenvalues --  -11.21621 -11.21603 -11.21603 -11.21509 -11.21412
 Alpha  occ. eigenvalues --  -11.21397 -11.21352 -11.21329 -11.21076 -11.21075
 Alpha  occ. eigenvalues --  -11.21071 -11.21033  -1.08448  -1.08404  -1.03568
 Alpha  occ. eigenvalues --   -1.03482  -0.96010  -0.95944  -0.87023  -0.86964
 Alpha  occ. eigenvalues --   -0.79641  -0.79534  -0.78263  -0.78218  -0.65127
 Alpha  occ. eigenvalues --   -0.65000  -0.61047  -0.60848  -0.59463  -0.59221
 Alpha  occ. eigenvalues --   -0.57650  -0.57524  -0.55304  -0.55220  -0.52719
 Alpha  occ. eigenvalues --   -0.52630  -0.52444  -0.52362  -0.49969  -0.49862
 Alpha  occ. eigenvalues --   -0.47967  -0.47831  -0.46655  -0.46553  -0.45860
 Alpha  occ. eigenvalues --   -0.45747  -0.45732  -0.45595  -0.43793  -0.43742
 Alpha virt. eigenvalues --    0.21042   0.23149   0.23599   0.24520   0.25835
 Alpha virt. eigenvalues --    0.26624   0.27000   0.27251   0.28386   0.29126
 Alpha virt. eigenvalues --    0.30380   0.31490   0.31671   0.31864   0.32332

 Mulliken charges:
               1
     1  C   -0.297680
     2  C   -0.308082
     3  C   -0.475770
     4  H    0.149240
     5  H    0.149306
     6  H    0.162781
     7  H    0.150688
     8  H    0.155012
     9  H    0.154573
    10  H    0.160773
    11  C   -0.299789
    12  C   -0.299555
    13  C   -0.475777
    14  H    0.150527
    15  H    0.149233
    16  H    0.152013
    17  H    0.152054
    18  H    0.154984
    19  H    0.155280
    20  H    0.160306
    21  C   -0.298428
    22  C   -0.299672
    23  C   -0.475731
    24  H    0.149961
    25  H    0.149415
    26  H    0.151962
    27  H    0.151916
    28  H    0.155157
    29  H    0.155285
    30  H    0.160254
    31  C   -0.298173
    32  C   -0.303419
    33  C   -0.477905
    34  H    0.149803
    35  H    0.149761
    36  H    0.154661
    37  H    0.151660
    38  H    0.155703
    39  H    0.156609
    40  H    0.161060
 Sum of Mulliken charges =  -0.00000

 Dipole moment (field-independent basis, Debye):
    X=              0.0224    Y=             -0.0104    Z=              0.0028  Tot=              0.0248
 Quadrupole moment (field-independent basis, Debye-Ang):
   XX=            -85.0968   YY=            -86.6409   ZZ=            -83.1250
   XY=             -1.1838   XZ=              0.6385   YZ=             -0.4332

 Normal termination of Gaussian 16 at Thu May  6 05:14:03 2021.
