 Gaussian 16, Revision A.03,
 Gaussian 16:  EM64L-G16RevA.03 25-Dec-2016

 -------------
 #p 6-31g* mp2
 -------------

 ------------------------------------------------------
 Input file generated by CHIRIPA (05-May-2021 14:55:21)
 ------------------------------------------------------
 Symbolic Z-matrix:
 Charge =  0 Multiplicity = 1

                         Standard orientation:
 ---------------------------------------------------------------------
 Center     Atomic      Atomic             Coordinates (Angstroms)
 Number     Number       Type             X           Y           Z
 ---------------------------------------------------------------------
      1          6           0       -5.038059    0.222023   -0.606785
      2          6           0       -4.087633   -0.208800   -1.538238
      3          6           0       -2.763657   -0.433612   -1.149530
      4          6           0       -2.423237   -0.216664    0.184763
      5          6           0       -3.347230    0.212414    1.136298
      6          6           0       -4.665481    0.430887    0.725162
      7          1           0       -6.064331    0.394200   -0.917455
      8          1           0       -4.374135   -0.371825   -2.573315
      9          1           0       -2.007628   -0.767283   -1.849889
     10          1           0       -3.031625    0.366298    2.161057
     11          1           0       -5.401472    0.765455    1.450714
     12          7           0       -1.024633   -0.451307    0.608143
     13          8           0       -0.750055   -0.252892    1.789615
     14          8           0       -0.229468   -0.829191   -0.249501
     15          6           0        3.619940   -0.405442    0.216966
     16          6           0        3.445527   -1.676558   -0.614797
     17          6           0        3.896321   -2.935095    0.127269
     18          1           0        4.675481   -0.304996    0.504524
     19          1           0        3.049723   -0.505604    1.150890
     20          1           0        4.014787   -1.573466   -1.547498
     21          1           0        2.390314   -1.773890   -0.900570
     22          1           0        3.320821   -3.065520    1.049434
     23          1           0        4.954525   -2.863958    0.398832
     24          1           0        3.762903   -3.831995   -0.485619
     25          6           0        3.173643    0.861101   -0.511327
     26          6           0        3.348056    2.132217    0.320435
     27          6           0        2.897262    3.390755   -0.421630
     28          1           0        3.743861    0.961264   -1.445252
     29          1           0        2.118102    0.760655   -0.798886
     30          1           0        4.403270    2.229548    0.606209
     31          1           0        2.778796    2.029125    1.253136
     32          1           0        1.839058    3.319617   -0.693193
     33          1           0        3.472762    3.521180   -1.343796
     34          1           0        3.030680    4.287654    0.191257
 ---------------------------------------------------------------------

 SCF Done:  E(RHF) =  -669.536694378     A.U. after   15 cycles
 E2 =    -0.2092107703D+01 EUMP2 =    -0.67162880208106D+03

 The electronic state is 1-A.
 Alpha  occ. eigenvalues --  -20.61188 -20.61183 -15.86196 -11.31429 -11.27979
 Alpha  occ. eigenvalues --  -11.27976 -11.27701 -11.26966 -11.26956 -11.20362
 Alpha  occ. eigenvalues --  -11.20168 -11.19876 -11.19790 -11.19703 -11.19684
 Alpha  occ. eigenvalues --   -1.60232  -1.39792  -1.19587  -1.09009  -1.06896
 Alpha  occ. eigenvalues --   -1.04969  -1.02159  -0.95866  -0.94639  -0.86374
 Alpha  occ. eigenvalues --   -0.85670  -0.82705  -0.78225  -0.77769  -0.76691
 Alpha  occ. eigenvalues --   -0.72427  -0.71535  -0.70695  -0.65248  -0.64975
 Alpha  occ. eigenvalues --   -0.63478  -0.62316  -0.59540  -0.58036  -0.56258
 Alpha  occ. eigenvalues --   -0.55477  -0.53926  -0.53303  -0.53059  -0.51406
 Alpha  occ. eigenvalues --   -0.51088  -0.49201  -0.49174  -0.48570  -0.46569
 Alpha  occ. eigenvalues --   -0.45420  -0.45038  -0.44241  -0.43993  -0.42363
 Alpha  occ. eigenvalues --   -0.37560  -0.36565
 Alpha virt. eigenvalues --    0.04726   0.11091   0.16227   0.21210   0.24425
 Alpha virt. eigenvalues --    0.25585   0.27162   0.27825   0.28398   0.29014
 Alpha virt. eigenvalues --    0.29399   0.30888   0.32325   0.32641   0.32963

 Mulliken charges:
               1
     1  C   -0.170242
     2  C   -0.218536
     3  C   -0.170564
     4  C    0.157042
     5  C   -0.170141
     6  C   -0.218620
     7  H    0.226560
     8  H    0.224404
     9  H    0.275991
    10  H    0.276123
    11  H    0.224324
    12  N    0.493155
    13  O   -0.458139
    14  O   -0.463856
    15  C   -0.295234
    16  C   -0.306700
    17  C   -0.475182
    18  H    0.140269
    19  H    0.160329
    20  H    0.141814
    21  H    0.174459
    22  H    0.157867
    23  H    0.149132
    24  H    0.153889
    25  C   -0.303426
    26  C   -0.300127
    27  C   -0.474062
    28  H    0.140558
    29  H    0.165267
    30  H    0.147202
    31  H    0.156542
    32  H    0.152042
    33  H    0.151918
    34  H    0.155944
 Sum of Mulliken charges =  -0.00000

 Dipole moment (field-independent basis, Debye):
    X=             -5.4518    Y=              0.7430    Z=             -1.3965  Tot=              5.6766
 Quadrupole moment (field-independent basis, Debye-Ang):
   XX=            -72.0130   YY=            -97.5734   ZZ=            -91.0522
   XY=             -0.9974   XZ=              1.4026   YZ=              2.3433

 Normal termination of Gaussian 16 at Thu May  6 14:09:35 2021.
