 Gaussian 16, Revision A.03,
 Gaussian 16:  EM64L-G16RevA.03 25-Dec-2016

 -------------
 #p 6-31g* mp2
 -------------

 ------------------------------------------------------
 Input file generated by CHIRIPA (05-May-2021 14:57:27)
 ------------------------------------------------------
 Symbolic Z-matrix:
 Charge =  0 Multiplicity = 1

                         Standard orientation:
 ---------------------------------------------------------------------
 Center     Atomic      Atomic             Coordinates (Angstroms)
 Number     Number       Type             X           Y           Z
 ---------------------------------------------------------------------
      1          6           0       -4.109275   -2.004943    1.087795
      2          6           0       -5.107755   -1.094493    0.726355
      3          6           0       -4.774634    0.123161    0.125609
      4          6           0       -3.426974    0.399179   -0.100041
      5          6           0       -2.409245   -0.487332    0.248694
      6          6           0       -2.765575   -1.698996    0.848233
      7          1           0       -4.377066   -2.948520    1.554000
      8          1           0       -6.152113   -1.329431    0.911197
      9          1           0       -5.527402    0.846172   -0.164243
     10          1           0       -1.376850   -0.225061    0.051735
     11          1           0       -1.988023   -2.404159    1.127880
     12          7           0       -3.062029    1.685084   -0.735385
     13          8           0       -1.867417    1.904555   -0.923461
     14          8           0       -3.977506    2.449157   -1.033262
     15          6           0        4.719780    1.712279    1.108110
     16          6           0        5.419301    0.785314    0.328413
     17          6           0        4.746624   -0.271148   -0.292829
     18          6           0        3.367953   -0.370885   -0.112251
     19          6           0        2.642966    0.536705    0.658440
     20          6           0        3.336285    1.585241    1.270349
     21          1           0        5.250349    2.529885    1.587081
     22          1           0        6.493766    0.881492    0.200665
     23          1           0        5.263431   -1.002863   -0.901861
     24          1           0        1.572139    0.414677    0.767332
     25          1           0        2.790434    2.303656    1.875303
     26          7           0        2.644894   -1.485117   -0.764992
     27          8           0        1.430069   -1.550907   -0.590322
     28          8           0        3.306676   -2.271567   -1.438920
 ---------------------------------------------------------------------

 SCF Done:  E(RHF) =  -868.339866465     A.U. after   16 cycles
 E2 =    -0.2598716474D+01 EUMP2 =    -0.87093858293932D+03

 The electronic state is 1-A.
 Alpha  occ. eigenvalues --  -20.61116 -20.61074 -20.60471 -20.60460 -15.86137
 Alpha  occ. eigenvalues --  -15.85513 -11.31256 -11.30696 -11.27809 -11.27799
 Alpha  occ. eigenvalues --  -11.27496 -11.27294 -11.27153 -11.26980 -11.26773
 Alpha  occ. eigenvalues --  -11.26736 -11.26290 -11.26138  -1.60151  -1.59544
 Alpha  occ. eigenvalues --   -1.39720  -1.39103  -1.19406  -1.18857  -1.08844
 Alpha  occ. eigenvalues --   -1.08296  -1.04773  -1.04215  -0.95724  -0.95155
 Alpha  occ. eigenvalues --   -0.86188  -0.85633  -0.82573  -0.81980  -0.77652
 Alpha  occ. eigenvalues --   -0.77038  -0.72380  -0.71739  -0.71450  -0.70862
 Alpha  occ. eigenvalues --   -0.70524  -0.69968  -0.65069  -0.64779  -0.64506
 Alpha  occ. eigenvalues --   -0.64208  -0.62137  -0.61539  -0.55290  -0.54755
 Alpha  occ. eigenvalues --   -0.53110  -0.52870  -0.52582  -0.52291  -0.49129
 Alpha  occ. eigenvalues --   -0.49082  -0.48499  -0.48479  -0.45174  -0.44548
 Alpha  occ. eigenvalues --   -0.37371  -0.36857  -0.36357  -0.35814
 Alpha virt. eigenvalues --    0.04882   0.05455   0.11295   0.11822   0.16425
 Alpha virt. eigenvalues --    0.16985   0.20362   0.22180   0.25227   0.27668
 Alpha virt. eigenvalues --    0.28302   0.29441   0.30763   0.31533   0.31932

 Mulliken charges:
               1
     1  C   -0.171012
     2  C   -0.219227
     3  C   -0.171413
     4  C    0.157539
     5  C   -0.176888
     6  C   -0.221013
     7  H    0.224609
     8  H    0.221413
     9  H    0.273401
    10  H    0.287358
    11  H    0.231052
    12  N    0.487914
    13  O   -0.463566
    14  O   -0.461966
    15  C   -0.169901
    16  C   -0.218656
    17  C   -0.170472
    18  C    0.157758
    19  C   -0.167431
    20  C   -0.218828
    21  H    0.226700
    22  H    0.223803
    23  H    0.275295
    24  H    0.274932
    25  H    0.226804
    26  N    0.492180
    27  O   -0.473114
    28  O   -0.457270
 Sum of Mulliken charges =  -0.00000

 Dipole moment (field-independent basis, Debye):
    X=              1.5377    Y=             -0.6353    Z=              4.5515  Tot=              4.8460
 Quadrupole moment (field-independent basis, Debye-Ang):
   XX=            -70.6847   YY=           -111.6403   ZZ=           -106.5228
   XY=             25.0926   XZ=             -1.6705   YZ=              0.8760

 Normal termination of Gaussian 16 at Thu May  6 13:12:01 2021.
