 Gaussian 16, Revision A.03,
 Gaussian 16:  EM64L-G16RevA.03 25-Dec-2016

 -------------
 #p 6-31g* mp2
 -------------

 ------------------------------------------------------
 Input file generated by CHIRIPA (05-May-2021 14:51:12)
 ------------------------------------------------------
 Symbolic Z-matrix:
 Charge =  0 Multiplicity = 1

                         Standard orientation:
 ---------------------------------------------------------------------
 Center     Atomic      Atomic             Coordinates (Angstroms)
 Number     Number       Type             X           Y           Z
 ---------------------------------------------------------------------
      1          6           0       -4.264686    0.846281   -0.047315
      2          6           0       -2.743264    0.694744   -0.064480
      3          6           0       -2.014913    2.038688   -0.031100
      4          1           0       -4.575887    1.455064   -0.907247
      5          1           0       -4.560652    1.402523    0.852903
      6          1           0       -2.450368    0.137751   -0.963695
      7          1           0       -2.435666    0.086091    0.795486
      8          1           0       -2.278288    2.597248    0.872916
      9          1           0       -2.293073    2.649202   -0.896260
     10          1           0       -0.928479    1.906957   -0.044048
     11          6           0       -5.006861   -0.488566   -0.080312
     12          6           0       -6.528283   -0.337029   -0.063147
     13          6           0       -7.256634   -1.680973   -0.096527
     14          1           0       -4.710895   -1.044808   -0.980531
     15          1           0       -4.695660   -1.097349    0.779619
     16          1           0       -6.835881    0.271625   -0.923113
     17          1           0       -6.821179    0.219964    0.836067
     18          1           0       -6.978474   -2.291487    0.768632
     19          1           0       -6.993259   -2.239533   -1.000543
     20          1           0       -8.343068   -1.549242   -0.083579
     21          6           0        3.997371    0.236145    0.003412
     22          6           0        2.751081   -0.491450    0.508736
     23          6           0        1.481937    0.351660    0.381329
     24          1           0        4.119926    1.172895    0.564147
     25          1           0        3.847616    0.518472   -1.047900
     26          1           0        2.903694   -0.773540    1.558379
     27          1           0        2.631588   -1.426670   -0.053136
     28          1           0        1.302196    0.621708   -0.664313
     29          1           0        1.575848    1.278549    0.956358
     30          1           0        0.603139   -0.187692    0.748308
     31          6           0        5.274175   -0.593860    0.124215
     32          6           0        6.520465    0.133734   -0.381109
     33          6           0        7.789610   -0.709375   -0.253702
     34          1           0        5.423932   -0.876187    1.175528
     35          1           0        5.151621   -1.530610   -0.436520
     36          1           0        6.639959    1.068955    0.180763
     37          1           0        6.367853    0.415825   -1.430752
     38          1           0        7.695699   -1.636264   -0.828730
     39          1           0        7.969351   -0.979423    0.791941
     40          1           0        8.668408   -0.170023   -0.620681
 ---------------------------------------------------------------------

 SCF Done:  E(RHF) =  -470.733154910     A.U. after   11 cycles
 E2 =    -0.1582566226D+01 EUMP2 =    -0.47231572113604D+03

 The electronic state is 1-A.
 Alpha  occ. eigenvalues --  -11.21619 -11.21609 -11.21572 -11.21523 -11.21418
 Alpha  occ. eigenvalues --  -11.21358 -11.21357 -11.21294 -11.21110 -11.21077
 Alpha  occ. eigenvalues --  -11.21049 -11.20874  -1.08446  -1.08373  -1.03563
 Alpha  occ. eigenvalues --   -1.03449  -0.96046  -0.95867  -0.87085  -0.86868
 Alpha  occ. eigenvalues --   -0.79635  -0.79515  -0.78258  -0.78190  -0.65075
 Alpha  occ. eigenvalues --   -0.65006  -0.60951  -0.60857  -0.59518  -0.59160
 Alpha  occ. eigenvalues --   -0.57614  -0.57520  -0.55298  -0.55185  -0.52958
 Alpha  occ. eigenvalues --   -0.52545  -0.52409  -0.52111  -0.49948  -0.49846
 Alpha  occ. eigenvalues --   -0.48013  -0.47756  -0.46645  -0.46566  -0.45803
 Alpha  occ. eigenvalues --   -0.45724  -0.45723  -0.45659  -0.43840  -0.43645
 Alpha virt. eigenvalues --    0.22201   0.22959   0.23464   0.24787   0.26504
 Alpha virt. eigenvalues --    0.26628   0.26743   0.27271   0.27750   0.29016
 Alpha virt. eigenvalues --    0.30035   0.30945   0.31246   0.31557   0.32393

 Mulliken charges:
               1
     1  C   -0.298262
     2  C   -0.298994
     3  C   -0.485312
     4  H    0.149555
     5  H    0.149388
     6  H    0.151511
     7  H    0.151150
     8  H    0.153934
     9  H    0.153843
    10  H    0.174000
    11  C   -0.298192
    12  C   -0.299587
    13  C   -0.475665
    14  H    0.149342
    15  H    0.149393
    16  H    0.151890
    17  H    0.151876
    18  H    0.155096
    19  H    0.155101
    20  H    0.160152
    21  C   -0.298472
    22  C   -0.300796
    23  C   -0.479229
    24  H    0.149722
    25  H    0.149566
    26  H    0.152006
    27  H    0.152150
    28  H    0.155312
    29  H    0.155538
    30  H    0.163799
    31  C   -0.298300
    32  C   -0.299633
    33  C   -0.475716
    34  H    0.149554
    35  H    0.149678
    36  H    0.151979
    37  H    0.151949
    38  H    0.155187
    39  H    0.155193
    40  H    0.160292
 Sum of Mulliken charges =  -0.00000

 Dipole moment (field-independent basis, Debye):
    X=              0.0519    Y=             -0.0046    Z=              0.0025  Tot=              0.0521
 Quadrupole moment (field-independent basis, Debye-Ang):
   XX=            -86.4286   YY=            -85.7338   ZZ=            -82.8314
   XY=              0.0001   XZ=              0.1241   YZ=              0.3322

 Normal termination of Gaussian 16 at Wed May  5 16:46:30 2021.
