 Gaussian 16, Revision A.03,
 Gaussian 16:  EM64L-G16RevA.03 25-Dec-2016

 -------------
 #p 6-31g* mp2
 -------------

 ------------------------------------------------------
 Input file generated by CHIRIPA (05-May-2021 14:55:22)
 ------------------------------------------------------
 Symbolic Z-matrix:
 Charge =  0 Multiplicity = 1

                         Standard orientation:
 ---------------------------------------------------------------------
 Center     Atomic      Atomic             Coordinates (Angstroms)
 Number     Number       Type             X           Y           Z
 ---------------------------------------------------------------------
      1          6           0       -1.101533   -2.251558   -0.222677
      2          6           0       -2.076935   -1.938059   -1.174953
      3          6           0       -2.865475   -0.792371   -1.032995
      4          6           0       -2.650813    0.021179    0.078466
      5          6           0       -1.686987   -0.264267    1.044307
      6          6           0       -0.910010   -1.415136    0.881967
      7          1           0       -0.493468   -3.143569   -0.340870
      8          1           0       -2.227880   -2.585804   -2.033840
      9          1           0       -3.627650   -0.525934   -1.755158
     10          1           0       -1.559754    0.400732    1.889888
     11          1           0       -0.153239   -1.656115    1.623095
     12          7           0       -3.479484    1.236810    0.239540
     13          8           0       -3.270748    1.937260    1.227688
     14          8           0       -4.322041    1.466154   -0.625408
     15          6           0        3.052906    0.870744   -0.446854
     16          6           0        3.723272    2.113521    0.139745
     17          6           0        3.382940    3.388745   -0.632118
     18          1           0        3.357843    0.758266   -1.496285
     19          1           0        1.963997    1.017870   -0.451816
     20          1           0        4.810513    1.963532    0.144876
     21          1           0        3.416854    2.222945    1.187958
     22          1           0        2.302559    3.565784   -0.626376
     23          1           0        3.704137    3.304897   -1.675384
     24          1           0        3.872622    4.264906   -0.195754
     25          6           0        3.383543   -0.412064    0.313942
     26          6           0        2.713176   -1.654842   -0.272658
     27          6           0        3.053508   -2.930067    0.499205
     28          1           0        4.472452   -0.559192    0.318903
     29          1           0        3.078605   -0.299587    1.363373
     30          1           0        3.019595   -1.764266   -1.320871
     31          1           0        1.625935   -1.504854   -0.277789
     32          1           0        2.732312   -2.846218    1.542471
     33          1           0        4.133890   -3.107105    0.493463
     34          1           0        2.563826   -3.806228    0.062841
 ---------------------------------------------------------------------

 SCF Done:  E(RHF) =  -669.534517973     A.U. after   15 cycles
 E2 =    -0.2093454592D+01 EUMP2 =    -0.67162797256512D+03

 The electronic state is 1-A.
 Alpha  occ. eigenvalues --  -20.60827 -20.60822 -15.85882 -11.31271 -11.27844
 Alpha  occ. eigenvalues --  -11.27839 -11.27566 -11.26852 -11.26841 -11.22238
 Alpha  occ. eigenvalues --  -11.22062 -11.21960 -11.21850 -11.21725 -11.21180
 Alpha  occ. eigenvalues --   -1.59903  -1.39455  -1.19454  -1.08962  -1.08815
 Alpha  occ. eigenvalues --   -1.04862  -1.04045  -0.96506  -0.95670  -0.87512
 Alpha  occ. eigenvalues --   -0.86260  -0.82498  -0.80123  -0.78698  -0.77543
 Alpha  occ. eigenvalues --   -0.72100  -0.71227  -0.70558  -0.65679  -0.65094
 Alpha  occ. eigenvalues --   -0.64803  -0.62235  -0.61396  -0.59920  -0.58099
 Alpha  occ. eigenvalues --   -0.55796  -0.55331  -0.53285  -0.53161  -0.52948
 Alpha  occ. eigenvalues --   -0.52889  -0.50435  -0.48861  -0.48854  -0.48420
 Alpha  occ. eigenvalues --   -0.47163  -0.46245  -0.46145  -0.44856  -0.44279
 Alpha  occ. eigenvalues --   -0.37339  -0.36431
 Alpha virt. eigenvalues --    0.04965   0.11074   0.16404   0.19384   0.22827
 Alpha virt. eigenvalues --    0.23995   0.25326   0.26351   0.27163   0.27808
 Alpha virt. eigenvalues --    0.29150   0.30075   0.31161   0.31849   0.32511

 Mulliken charges:
               1
     1  C   -0.170744
     2  C   -0.219178
     3  C   -0.170643
     4  C    0.158419
     5  C   -0.172609
     6  C   -0.220108
     7  H    0.229403
     8  H    0.224121
     9  H    0.276035
    10  H    0.275868
    11  H    0.227114
    12  N    0.488072
    13  O   -0.460335
    14  O   -0.460073
    15  C   -0.299638
    16  C   -0.299951
    17  C   -0.476416
    18  H    0.150472
    19  H    0.152003
    20  H    0.151925
    21  H    0.151788
    22  H    0.158279
    23  H    0.155165
    24  H    0.161646
    25  C   -0.296869
    26  C   -0.312543
    27  C   -0.477949
    28  H    0.151462
    29  H    0.145641
    30  H    0.153935
    31  H    0.158630
    32  H    0.150770
    33  H    0.161709
    34  H    0.154598
 Sum of Mulliken charges =  -0.00000

 Dipole moment (field-independent basis, Debye):
    X=              2.9093    Y=             -4.2013    Z=             -0.6305  Tot=              5.1490
 Quadrupole moment (field-independent basis, Debye-Ang):
   XX=           -108.8544   YY=            -96.3570   ZZ=            -91.3318
   XY=             12.3537   XZ=              3.4892   YZ=              1.3532

 Normal termination of Gaussian 16 at Wed May  5 17:32:11 2021.
