 Gaussian 16, Revision A.03,
 Gaussian 16:  EM64L-G16RevA.03 25-Dec-2016

 -------------
 #p 6-31g* mp2
 -------------

 ------------------------------------------------------
 Input file generated by CHIRIPA (05-May-2021 14:55:25)
 ------------------------------------------------------
 Symbolic Z-matrix:
 Charge =  0 Multiplicity = 1

                         Standard orientation:
 ---------------------------------------------------------------------
 Center     Atomic      Atomic             Coordinates (Angstroms)
 Number     Number       Type             X           Y           Z
 ---------------------------------------------------------------------
      1          6           0        5.182720   -1.759584    0.463232
      2          6           0        4.037409   -1.964020   -0.313292
      3          6           0        3.165687   -0.905388   -0.585225
      4          6           0        3.471331    0.350198   -0.062372
      5          6           0        4.604528    0.585586    0.714640
      6          6           0        5.462132   -0.487675    0.973819
      7          1           0        5.854411   -2.587637    0.669522
      8          1           0        3.817893   -2.950724   -0.711129
      9          1           0        2.272050   -1.035683   -1.183434
     10          1           0        4.796786    1.580532    1.097442
     11          1           0        6.350864   -0.325975    1.577187
     12          7           0        2.555951    1.478668   -0.343504
     13          8           0        2.847653    2.575257    0.128766
     14          8           0        1.564108    1.245205   -1.030803
     15          6           0       -3.926899    0.051710    0.127447
     16          6           0       -2.860833   -0.773266   -0.594289
     17          6           0       -1.446568   -0.236893   -0.370793
     18          1           0       -3.869868    1.093704   -0.215977
     19          1           0       -3.704419    0.064605    1.203426
     20          1           0       -3.086033   -0.785753   -1.668415
     21          1           0       -2.920536   -1.813459   -0.249248
     22          1           0       -1.197275   -0.240253    0.695248
     23          1           0       -1.363712    0.793292   -0.731981
     24          1           0       -0.700308   -0.841464   -0.895626
     25          6           0       -5.345925   -0.472093   -0.086390
     26          6           0       -6.411990    0.352883    0.635345
     27          6           0       -7.826256   -0.183490    0.411849
     28          1           0       -5.568404   -0.484988   -1.162370
     29          1           0       -5.402956   -1.514088    0.257034
     30          1           0       -6.352288    1.393075    0.290305
     31          1           0       -6.186791    0.365369    1.709471
     32          1           0       -7.909112   -1.213674    0.773038
     33          1           0       -8.075549   -0.180130   -0.654192
     34          1           0       -8.572516    0.421081    0.936682
 ---------------------------------------------------------------------

 SCF Done:  E(RHF) =  -669.535612340     A.U. after   15 cycles
 E2 =    -0.2091244127D+01 EUMP2 =    -0.67162685646705D+03

 The electronic state is 1-A.
 Alpha  occ. eigenvalues --  -20.60825 -20.60800 -15.85845 -11.31209 -11.27779
 Alpha  occ. eigenvalues --  -11.27775 -11.27524 -11.26796 -11.26786 -11.21206
 Alpha  occ. eigenvalues --  -11.20929 -11.20901 -11.20772 -11.20753 -11.20039
 Alpha  occ. eigenvalues --   -1.59878  -1.39432  -1.19382  -1.08780  -1.07890
 Alpha  occ. eigenvalues --   -1.04785  -1.02944  -0.95628  -0.95357  -0.86377
 Alpha  occ. eigenvalues --   -0.86183  -0.82448  -0.79017  -0.77707  -0.77476
 Alpha  occ. eigenvalues --   -0.72072  -0.71189  -0.70493  -0.65038  -0.64792
 Alpha  occ. eigenvalues --   -0.64524  -0.62137  -0.60339  -0.58775  -0.56995
 Alpha  occ. eigenvalues --   -0.55290  -0.54645  -0.53114  -0.52886  -0.52062
 Alpha  occ. eigenvalues --   -0.51786  -0.49309  -0.48828  -0.48815  -0.47322
 Alpha  occ. eigenvalues --   -0.46057  -0.45262  -0.45167  -0.44775  -0.43179
 Alpha  occ. eigenvalues --   -0.37363  -0.36387
 Alpha virt. eigenvalues --    0.05017   0.11255   0.16498   0.21067   0.23354
 Alpha virt. eigenvalues --    0.24455   0.26415   0.27179   0.27691   0.28037
 Alpha virt. eigenvalues --    0.29107   0.30256   0.31567   0.32032   0.32341

 Mulliken charges:
               1
     1  C   -0.170626
     2  C   -0.219134
     3  C   -0.171310
     4  C    0.157698
     5  C   -0.170729
     6  C   -0.218667
     7  H    0.225648
     8  H    0.223622
     9  H    0.277893
    10  H    0.275627
    11  H    0.223482
    12  N    0.489491
    13  O   -0.460338
    14  O   -0.459622
    15  C   -0.298050
    16  C   -0.301760
    17  C   -0.469954
    18  H    0.152217
    19  H    0.148295
    20  H    0.150177
    21  H    0.145605
    22  H    0.148950
    23  H    0.173266
    24  H    0.152041
    25  C   -0.297616
    26  C   -0.299347
    27  C   -0.475393
    28  H    0.148847
    29  H    0.147510
    30  H    0.152696
    31  H    0.151304
    32  H    0.154009
    33  H    0.154781
    34  H    0.159385
 Sum of Mulliken charges =  -0.00000

 Dipole moment (field-independent basis, Debye):
    X=              3.4015    Y=             -3.8331    Z=              0.9537  Tot=              5.2127
 Quadrupole moment (field-independent basis, Debye-Ang):
   XX=            -72.9981   YY=            -95.8955   ZZ=            -93.4844
   XY=            -11.5379   XZ=              5.2678   YZ=              1.8772

 Normal termination of Gaussian 16 at Thu May  6 12:42:34 2021.
