 Gaussian 16, Revision A.03,
 Gaussian 16:  EM64L-G16RevA.03 25-Dec-2016

 -------------
 #p 6-31g* mp2
 -------------

 ------------------------------------------------------
 Input file generated by CHIRIPA (05-May-2021 14:55:21)
 ------------------------------------------------------
 Symbolic Z-matrix:
 Charge =  0 Multiplicity = 1

                         Standard orientation:
 ---------------------------------------------------------------------
 Center     Atomic      Atomic             Coordinates (Angstroms)
 Number     Number       Type             X           Y           Z
 ---------------------------------------------------------------------
      1          6           0        1.941147   -2.533165    0.926822
      2          6           0        2.802089   -2.247676   -0.137976
      3          6           0        2.932079   -0.939949   -0.614946
      4          6           0        2.182743    0.062441   -0.000944
      5          6           0        1.316582   -0.190290    1.061686
      6          6           0        1.202443   -1.505372    1.522205
      7          1           0        1.846324   -3.551895    1.290955
      8          1           0        3.377010   -3.043873   -0.602283
      9          1           0        3.591194   -0.690955   -1.437738
     10          1           0        0.756479    0.624474    1.504251
     11          1           0        0.533049   -1.724154    2.349303
     12          7           0        2.311967    1.450767   -0.497183
     13          8           0        1.640819    2.316081    0.060875
     14          8           0        3.081953    1.647334   -1.434797
     15          6           0       -3.267792   -0.324322   -0.312335
     16          6           0       -2.650407   -1.718696   -0.424325
     17          6           0       -3.665444   -2.782743   -0.843011
     18          1           0       -4.092106   -0.352458    0.413377
     19          1           0       -3.711655   -0.048747   -1.278999
     20          1           0       -2.206626   -1.990990    0.541869
     21          1           0       -1.827342   -1.687193   -1.149713
     22          1           0       -4.100486   -2.537906   -1.817380
     23          1           0       -4.481925   -2.843428   -0.116186
     24          1           0       -3.202812   -3.771869   -0.916920
     25          6           0       -2.265508    0.750233    0.105379
     26          6           0       -2.882893    2.144607    0.217369
     27          6           0       -1.867856    3.208655    0.636054
     28          1           0       -1.821645    0.474658    1.072043
     29          1           0       -1.441193    0.778370   -0.620334
     30          1           0       -3.705958    2.113104    0.942757
     31          1           0       -3.326673    2.416900   -0.748826
     32          1           0       -1.051374    3.269340   -0.090772
     33          1           0       -1.432813    2.963817    1.610423
     34          1           0       -2.330487    4.197780    0.709963
 ---------------------------------------------------------------------

 SCF Done:  E(RHF) =  -669.535512979     A.U. after   15 cycles
 E2 =    -0.2093701870D+01 EUMP2 =    -0.67162921484875D+03

 The electronic state is 1-A.
 Alpha  occ. eigenvalues --  -20.60865 -20.60858 -15.85893 -11.31189 -11.27778
 Alpha  occ. eigenvalues --  -11.27742 -11.27514 -11.26768 -11.26757 -11.21815
 Alpha  occ. eigenvalues --  -11.21460 -11.21373 -11.21307 -11.21253 -11.20263
 Alpha  occ. eigenvalues --   -1.59929  -1.39484  -1.19371  -1.08779  -1.08415
 Alpha  occ. eigenvalues --   -1.04765  -1.03407  -0.95832  -0.95623  -0.86847
 Alpha  occ. eigenvalues --   -0.86164  -0.82459  -0.79491  -0.78290  -0.77454
 Alpha  occ. eigenvalues --   -0.72118  -0.71245  -0.70484  -0.65101  -0.64985
 Alpha  occ. eigenvalues --   -0.64774  -0.62119  -0.60801  -0.59262  -0.57441
 Alpha  occ. eigenvalues --   -0.55278  -0.55107  -0.53123  -0.52878  -0.52504
 Alpha  occ. eigenvalues --   -0.52213  -0.49776  -0.48886  -0.48868  -0.47766
 Alpha  occ. eigenvalues --   -0.46548  -0.45790  -0.45714  -0.44750  -0.43691
 Alpha  occ. eigenvalues --   -0.37346  -0.36314
 Alpha virt. eigenvalues --    0.04983   0.11226   0.16373   0.20372   0.23000
 Alpha virt. eigenvalues --    0.23788   0.25450   0.27056   0.27278   0.28287
 Alpha virt. eigenvalues --    0.29857   0.30369   0.31496   0.31792   0.32285

 Mulliken charges:
               1
     1  C   -0.170236
     2  C   -0.219098
     3  C   -0.170759
     4  C    0.155271
     5  C   -0.167195
     6  C   -0.218402
     7  H    0.225709
     8  H    0.223341
     9  H    0.275387
    10  H    0.278943
    11  H    0.223076
    12  N    0.489308
    13  O   -0.461102
    14  O   -0.459868
    15  C   -0.298389
    16  C   -0.298174
    17  C   -0.475581
    18  H    0.148748
    19  H    0.151745
    20  H    0.144233
    21  H    0.154019
    22  H    0.157127
    23  H    0.154949
    24  H    0.157660
    25  C   -0.296523
    26  C   -0.300515
    27  C   -0.480340
    28  H    0.136889
    29  H    0.153908
    30  H    0.148160
    31  H    0.152320
    32  H    0.179588
    33  H    0.148353
    34  H    0.157450
 Sum of Mulliken charges =  -0.00000

 Dipole moment (field-independent basis, Debye):
    X=             -0.3356    Y=             -4.7739    Z=              1.6260  Tot=              5.0544
 Quadrupole moment (field-independent basis, Debye-Ang):
   XX=            -95.7638   YY=            -96.0191   ZZ=            -92.0444
   XY=            -12.5107   XZ=              1.1314   YZ=              0.6557

 Normal termination of Gaussian 16 at Thu May  6 17:32:16 2021.
