 Gaussian 16, Revision A.03,
 Gaussian 16:  EM64L-G16RevA.03 25-Dec-2016

 -------------
 #p 6-31g* mp2
 -------------

 ------------------------------------------------------
 Input file generated by CHIRIPA (05-May-2021 14:55:24)
 ------------------------------------------------------
 Symbolic Z-matrix:
 Charge =  0 Multiplicity = 1

                         Standard orientation:
 ---------------------------------------------------------------------
 Center     Atomic      Atomic             Coordinates (Angstroms)
 Number     Number       Type             X           Y           Z
 ---------------------------------------------------------------------
      1          6           0        2.046976    2.495103    0.556673
      2          6           0        3.362833    2.515583    0.082728
      3          6           0        4.021016    1.324272   -0.236837
      4          6           0        3.330249    0.125032   -0.069639
      5          6           0        2.018948    0.071855    0.400416
      6          6           0        1.380409    1.275454    0.713728
      7          1           0        1.543314    3.425314    0.802490
      8          1           0        3.882962    3.461305   -0.040234
      9          1           0        5.039459    1.311210   -0.605645
     10          1           0        1.526428   -0.886409    0.512543
     11          1           0        0.358472    1.256518    1.081601
     12          7           0        4.016640   -1.142660   -0.404638
     13          8           0        3.386147   -2.186088   -0.248516
     14          8           0        5.172129   -1.068845   -0.816989
     15          6           0       -3.775325   -1.072390    0.242394
     16          6           0       -2.252040   -0.958037    0.309555
     17          6           0       -1.581011   -2.256285    0.759072
     18          1           0       -4.158829   -1.362061    1.230300
     19          1           0       -4.045070   -1.883718   -0.447810
     20          1           0       -1.985271   -0.146255    0.998367
     21          1           0       -1.872134   -0.668418   -0.678579
     22          1           0       -1.818134   -3.071776    0.068169
     23          1           0       -1.931914   -2.546646    1.754641
     24          1           0       -0.492280   -2.152161    0.800103
     25          6           0       -4.460511    0.217445   -0.205459
     26          6           0       -5.983797    0.103091   -0.272622
     27          6           0       -6.654825    1.401339   -0.722139
     28          1           0       -4.190766    1.028772    0.484744
     29          1           0       -4.077008    0.507115   -1.193366
     30          1           0       -6.363703   -0.186528    0.715512
     31          1           0       -6.250566   -0.708690   -0.961433
     32          1           0       -6.303923    1.691700   -1.717708
     33          1           0       -6.417702    2.216830   -0.031234
     34          1           0       -7.743556    1.297215   -0.763169
 ---------------------------------------------------------------------

 SCF Done:  E(RHF) =  -669.535407693     A.U. after   15 cycles
 E2 =    -0.2091618670D+01 EUMP2 =    -0.67162702636357D+03

 The electronic state is 1-A.
 Alpha  occ. eigenvalues --  -20.60732 -20.60726 -15.85782 -11.31135 -11.27706
 Alpha  occ. eigenvalues --  -11.27690 -11.27444 -11.26726 -11.26689 -11.22362
 Alpha  occ. eigenvalues --  -11.22007 -11.21943 -11.21870 -11.21676 -11.21437
 Alpha  occ. eigenvalues --   -1.59806  -1.39360  -1.19308  -1.08976  -1.08706
 Alpha  occ. eigenvalues --   -1.04711  -1.04069  -0.96495  -0.95543  -0.87507
 Alpha  occ. eigenvalues --   -0.86108  -0.82375  -0.80145  -0.78789  -0.77424
 Alpha  occ. eigenvalues --   -0.72003  -0.71129  -0.70432  -0.65604  -0.64960
 Alpha  occ. eigenvalues --   -0.64717  -0.62144  -0.61448  -0.59844  -0.58109
 Alpha  occ. eigenvalues --   -0.55753  -0.55213  -0.53245  -0.53039  -0.53014
 Alpha  occ. eigenvalues --   -0.52658  -0.50412  -0.48763  -0.48758  -0.48444
 Alpha  occ. eigenvalues --   -0.47174  -0.46321  -0.46238  -0.44768  -0.44318
 Alpha  occ. eigenvalues --   -0.37291  -0.36308
 Alpha virt. eigenvalues --    0.05104   0.11341   0.16587   0.19194   0.22617
 Alpha virt. eigenvalues --    0.23692   0.25050   0.25883   0.26536   0.28162
 Alpha virt. eigenvalues --    0.28943   0.29357   0.31113   0.31540   0.32195

 Mulliken charges:
               1
     1  C   -0.171320
     2  C   -0.218862
     3  C   -0.170255
     4  C    0.159402
     5  C   -0.181601
     6  C   -0.224894
     7  H    0.225623
     8  H    0.223213
     9  H    0.275437
    10  H    0.287408
    11  H    0.228595
    12  N    0.486865
    13  O   -0.460464
    14  O   -0.460518
    15  C   -0.298371
    16  C   -0.304306
    17  C   -0.480317
    18  H    0.151322
    19  H    0.153448
    20  H    0.142987
    21  H    0.155088
    22  H    0.163152
    23  H    0.158379
    24  H    0.159108
    25  C   -0.298456
    26  C   -0.300119
    27  C   -0.475968
    28  H    0.146543
    29  H    0.150530
    30  H    0.152735
    31  H    0.153768
    32  H    0.155663
    33  H    0.154333
    34  H    0.161855
 Sum of Mulliken charges =  -0.00000

 Dipole moment (field-independent basis, Debye):
    X=             -2.6024    Y=              4.3686    Z=              1.1328  Tot=              5.2096
 Quadrupole moment (field-independent basis, Debye-Ang):
   XX=           -107.5740   YY=            -93.1093   ZZ=            -94.5703
   XY=             17.9580   XZ=              2.7271   YZ=             -0.3470

 Normal termination of Gaussian 16 at Thu May  6 07:54:43 2021.
