 Gaussian 16, Revision A.03,
 Gaussian 16:  EM64L-G16RevA.03 25-Dec-2016

 -------------
 #p 6-31g* mp2
 -------------

 ------------------------------------------------------
 Input file generated by CHIRIPA (05-May-2021 14:55:23)
 ------------------------------------------------------
 Symbolic Z-matrix:
 Charge =  0 Multiplicity = 1

                         Standard orientation:
 ---------------------------------------------------------------------
 Center     Atomic      Atomic             Coordinates (Angstroms)
 Number     Number       Type             X           Y           Z
 ---------------------------------------------------------------------
      1          6           0        2.132310    2.162747    1.523542
      2          6           0        2.941241    2.391442    0.405576
      3          6           0        3.243705    1.350158   -0.476916
      4          6           0        2.718003    0.086995   -0.209809
      5          6           0        1.909086   -0.172425    0.895471
      6          6           0        1.619717    0.883798    1.764497
      7          1           0        1.902435    2.977444    2.203853
      8          1           0        3.340714    3.383666    0.215947
      9          1           0        3.867342    1.499354   -1.349977
     10          1           0        1.525483   -1.172327    1.058153
     11          1           0        0.991217    0.703271    2.631931
     12          7           0        3.031276   -1.023273   -1.136936
     13          8           0        2.555796   -2.127001   -0.879367
     14          8           0        3.746368   -0.768751   -2.103631
     15          6           0       -2.694914   -0.530824    0.256085
     16          6           0       -2.591911   -1.809958    1.087466
     17          6           0       -1.149170   -2.167445    1.445928
     18          1           0       -2.105954   -0.650405   -0.663573
     19          1           0       -2.238460    0.298528    0.813956
     20          1           0       -3.049660   -2.636367    0.528779
     21          1           0       -3.181342   -1.687389    2.005160
     22          1           0       -0.685225   -1.362287    2.024787
     23          1           0       -0.552796   -2.316657    0.540017
     24          1           0       -1.098753   -3.085093    2.040265
     25          6           0       -4.130997   -0.160326   -0.110147
     26          6           0       -4.234001    1.118807   -0.941527
     27          6           0       -5.676742    1.476293   -1.299990
     28          1           0       -4.587453   -0.989678   -0.668018
     29          1           0       -4.719958   -0.040746    0.809511
     30          1           0       -3.644571    0.996238   -1.859223
     31          1           0       -3.776252    1.945217   -0.382841
     32          1           0       -6.273117    1.625506   -0.394079
     33          1           0       -6.140688    0.671136   -1.878849
     34          1           0       -5.727159    2.393943   -1.894327
 ---------------------------------------------------------------------

 SCF Done:  E(RHF) =  -669.534812494     A.U. after   15 cycles
 E2 =    -0.2092504027D+01 EUMP2 =    -0.67162731652086D+03

 The electronic state is 1-A.
 Alpha  occ. eigenvalues --  -20.60757 -20.60751 -15.85799 -11.31094 -11.27702
 Alpha  occ. eigenvalues --  -11.27590 -11.27452 -11.26702 -11.26685 -11.21924
 Alpha  occ. eigenvalues --  -11.21777 -11.21642 -11.21561 -11.21554 -11.21217
 Alpha  occ. eigenvalues --   -1.59826  -1.39382  -1.19288  -1.08700  -1.08678
 Alpha  occ. eigenvalues --   -1.04696  -1.03804  -0.96285  -0.95534  -0.87319
 Alpha  occ. eigenvalues --   -0.86086  -0.82381  -0.79903  -0.78491  -0.77405
 Alpha  occ. eigenvalues --   -0.72021  -0.71145  -0.70413  -0.65315  -0.64945
 Alpha  occ. eigenvalues --   -0.64708  -0.62111  -0.61192  -0.59617  -0.57857
 Alpha  occ. eigenvalues --   -0.55567  -0.55216  -0.53086  -0.53014  -0.52889
 Alpha  occ. eigenvalues --   -0.52443  -0.50222  -0.48778  -0.48772  -0.48162
 Alpha  occ. eigenvalues --   -0.46893  -0.46021  -0.45936  -0.44793  -0.44043
 Alpha  occ. eigenvalues --   -0.37282  -0.36263
 Alpha virt. eigenvalues --    0.05085   0.11326   0.16516   0.20650   0.22701
 Alpha virt. eigenvalues --    0.24017   0.25579   0.26349   0.27395   0.28034
 Alpha virt. eigenvalues --    0.29007   0.29657   0.31529   0.31663   0.32418

 Mulliken charges:
               1
     1  C   -0.170403
     2  C   -0.219228
     3  C   -0.170322
     4  C    0.155833
     5  C   -0.171945
     6  C   -0.223271
     7  H    0.225176
     8  H    0.223058
     9  H    0.275186
    10  H    0.286370
    11  H    0.223213
    12  N    0.488485
    13  O   -0.462305
    14  O   -0.460291
    15  C   -0.298892
    16  C   -0.299547
    17  C   -0.486872
    18  H    0.154329
    19  H    0.144940
    20  H    0.156680
    21  H    0.151054
    22  H    0.141958
    23  H    0.170194
    24  H    0.164973
    25  C   -0.298599
    26  C   -0.299676
    27  C   -0.475847
    28  H    0.151643
    29  H    0.148719
    30  H    0.154007
    31  H    0.149830
    32  H    0.154617
    33  H    0.156456
    34  H    0.160476
 Sum of Mulliken charges =  -0.00000

 Dipole moment (field-independent basis, Debye):
    X=             -1.1989    Y=              3.8109    Z=              3.1653  Tot=              5.0971
 Quadrupole moment (field-independent basis, Debye-Ang):
   XX=           -100.7461   YY=            -92.1212   ZZ=            -94.6412
   XY=             13.1384   XZ=              7.1656   YZ=             -1.8516

 Normal termination of Gaussian 16 at Thu May  6 03:06:04 2021.
