 Gaussian 16, Revision A.03,
 Gaussian 16:  EM64L-G16RevA.03 25-Dec-2016

 -------------
 #p 6-31g* mp2
 -------------

 ------------------------------------------------------
 Input file generated by CHIRIPA (05-May-2021 14:51:10)
 ------------------------------------------------------
 Symbolic Z-matrix:
 Charge =  0 Multiplicity = 1

                         Standard orientation:
 ---------------------------------------------------------------------
 Center     Atomic      Atomic             Coordinates (Angstroms)
 Number     Number       Type             X           Y           Z
 ---------------------------------------------------------------------
      1          6           0       -3.009323    1.108991    0.319039
      2          6           0       -3.102101    2.397429   -0.499072
      3          6           0       -2.358589    3.564944    0.150461
      4          1           0       -3.414775    1.290216    1.323883
      5          1           0       -1.951587    0.842755    0.452114
      6          1           0       -4.159389    2.660404   -0.631741
      7          1           0       -2.696556    2.213063   -1.502147
      8          1           0       -1.296356    3.327471    0.268223
      9          1           0       -2.767500    3.777353    1.143574
     10          1           0       -2.437924    4.475861   -0.451033
     11          6           0       -3.747697   -0.067230   -0.317385
     12          6           0       -3.654919   -1.355667    0.500726
     13          6           0       -4.398431   -2.523182   -0.148807
     14          1           0       -4.805433    0.199007   -0.450460
     15          1           0       -3.342245   -0.248455   -1.322229
     16          1           0       -4.060464   -1.171302    1.503801
     17          1           0       -2.597631   -1.618642    0.633395
     18          1           0       -3.989519   -2.735591   -1.141920
     19          1           0       -5.460664   -2.285709   -0.266569
     20          1           0       -4.319096   -3.434100    0.452687
     21          6           0        2.954961   -1.120342   -0.212213
     22          6           0        1.523077   -1.069558    0.321748
     23          6           0        0.688175   -2.275649   -0.109619
     24          1           0        2.928721   -1.176511   -1.309072
     25          1           0        3.436416   -2.044401    0.136657
     26          1           0        1.044916   -0.145201   -0.026883
     27          1           0        1.552733   -1.013310    1.417454
     28          1           0        1.139543   -3.205525    0.251206
     29          1           0        0.628842   -2.332485   -1.201338
     30          1           0       -0.331840   -2.218954    0.283084
     31          6           0        3.802058    0.078581    0.210558
     32          6           0        5.233943    0.027796   -0.323402
     33          6           0        6.068845    1.233887    0.107966
     34          1           0        3.320604    1.002640   -0.138311
     35          1           0        3.828299    0.134751    1.307419
     36          1           0        5.204287   -0.028452   -1.419109
     37          1           0        5.712104   -0.896560    0.025229
     38          1           0        6.128178    1.290725    1.199685
     39          1           0        5.617477    2.163765   -0.252861
     40          1           0        7.088860    1.177192   -0.284739
 ---------------------------------------------------------------------

 SCF Done:  E(RHF) =  -470.733384241     A.U. after   11 cycles
 E2 =    -0.1582864990D+01 EUMP2 =    -0.47231624923068D+03

 The electronic state is 1-A.
 Alpha  occ. eigenvalues --  -11.21670 -11.21626 -11.21604 -11.21591 -11.21446
 Alpha  occ. eigenvalues --  -11.21399 -11.21385 -11.21339 -11.21125 -11.21088
 Alpha  occ. eigenvalues --  -11.21074 -11.21056  -1.08474  -1.08425  -1.03577
 Alpha  occ. eigenvalues --   -1.03523  -0.96023  -0.95972  -0.87047  -0.86982
 Alpha  occ. eigenvalues --   -0.79660  -0.79568  -0.78287  -0.78238  -0.65124
 Alpha  occ. eigenvalues --   -0.65049  -0.60968  -0.60958  -0.59439  -0.59289
 Alpha  occ. eigenvalues --   -0.57644  -0.57573  -0.55307  -0.55257  -0.52761
 Alpha  occ. eigenvalues --   -0.52655  -0.52462  -0.52380  -0.49966  -0.49905
 Alpha  occ. eigenvalues --   -0.48042  -0.47832  -0.46687  -0.46595  -0.45835
 Alpha  occ. eigenvalues --   -0.45791  -0.45756  -0.45656  -0.43808  -0.43762
 Alpha virt. eigenvalues --    0.20348   0.23107   0.23688   0.24437   0.25954
 Alpha virt. eigenvalues --    0.26723   0.27118   0.27508   0.27931   0.29166
 Alpha virt. eigenvalues --    0.29670   0.31464   0.31695   0.31918   0.32087

 Mulliken charges:
               1
     1  C   -0.300465
     2  C   -0.299603
     3  C   -0.475665
     4  H    0.149718
     5  H    0.151326
     6  H    0.152011
     7  H    0.151728
     8  H    0.155030
     9  H    0.155306
    10  H    0.160186
    11  C   -0.297589
    12  C   -0.308267
    13  C   -0.475270
    14  H    0.149574
    15  H    0.149730
    16  H    0.152091
    17  H    0.159074
    18  H    0.155508
    19  H    0.155169
    20  H    0.160232
    21  C   -0.298513
    22  C   -0.300142
    23  C   -0.484072
    24  H    0.149706
    25  H    0.149862
    26  H    0.151916
    27  H    0.152469
    28  H    0.155892
    29  H    0.155185
    30  H    0.167496
    31  C   -0.298295
    32  C   -0.299691
    33  C   -0.475744
    34  H    0.149427
    35  H    0.149843
    36  H    0.151967
    37  H    0.152009
    38  H    0.155266
    39  H    0.155251
    40  H    0.160345
 Sum of Mulliken charges =  -0.00000

 Dipole moment (field-independent basis, Debye):
    X=              0.0136    Y=             -0.0103    Z=              0.0052  Tot=              0.0178
 Quadrupole moment (field-independent basis, Debye-Ang):
   XX=            -84.7038   YY=            -85.9896   ZZ=            -83.9753
   XY=             -1.4345   XZ=             -0.5091   YZ=             -0.8084

 Normal termination of Gaussian 16 at Wed May  5 15:11:53 2021.
