 Gaussian 16, Revision A.03,
 Gaussian 16:  EM64L-G16RevA.03 25-Dec-2016

 -------------
 #p 6-31g* mp2
 -------------

 ------------------------------------------------------
 Input file generated by CHIRIPA (05-May-2021 14:53:15)
 ------------------------------------------------------
 Symbolic Z-matrix:
 Charge =  0 Multiplicity = 1

                         Standard orientation:
 ---------------------------------------------------------------------
 Center     Atomic      Atomic             Coordinates (Angstroms)
 Number     Number       Type             X           Y           Z
 ---------------------------------------------------------------------
      1          6           0       -2.929020   -0.378546   -0.155305
      2          6           0       -1.979134    0.067592   -1.267358
      3          6           0       -0.522042   -0.297453   -0.982019
      4          1           0       -2.613896    0.078557    0.792692
      5          1           0       -2.841722   -1.465784   -0.022309
      6          1           0       -2.069211    1.153469   -1.399159
      7          1           0       -2.296670   -0.390475   -2.212854
      8          1           0       -0.410915   -1.380972   -0.871392
      9          1           0       -0.182164    0.171744   -0.053074
     10          1           0        0.139620    0.030738   -1.789704
     11          6           0       -4.389280   -0.020709   -0.426084
     12          6           0       -5.339166   -0.466846    0.685970
     13          6           0       -6.796259   -0.101802    0.400630
     14          1           0       -4.476578    1.066529   -0.559079
     15          1           0       -4.704404   -0.477812   -1.374081
     16          1           0       -5.021630   -0.008780    1.631465
     17          1           0       -5.249090   -1.552724    0.817771
     18          1           0       -7.136136   -0.570999   -0.528314
     19          1           0       -6.907385    0.981717    0.290004
     20          1           0       -7.457921   -0.429992    1.208315
     21          6           0        1.948463    2.503045    0.396096
     22          6           0        2.674817    2.113625   -0.734073
     23          6           0        3.183867    0.815733   -0.838443
     24          6           0        2.946711   -0.070948    0.210767
     25          6           0        2.226845    0.287041    1.349595
     26          6           0        1.727185    1.590120    1.432496
     27          1           0        1.556668    3.513293    0.468834
     28          1           0        2.848207    2.820497   -1.540492
     29          1           0        3.749556    0.487785   -1.702077
     30          1           0        2.070269   -0.439912    2.137276
     31          1           0        1.163442    1.889774    2.311385
     32          7           0        3.480649   -1.447715    0.111640
     33          8           0        3.257980   -2.210049    1.049671
     34          8           0        4.111708   -1.738420   -0.902210
 ---------------------------------------------------------------------

 SCF Done:  E(RHF) =  -669.533575251     A.U. after   15 cycles
 E2 =    -0.2094213778D+01 EUMP2 =    -0.67162778902879D+03

 The electronic state is 1-A.
 Alpha  occ. eigenvalues --  -20.60771 -20.60766 -15.85826 -11.31200 -11.27814
 Alpha  occ. eigenvalues --  -11.27772 -11.27560 -11.26829 -11.26792 -11.21733
 Alpha  occ. eigenvalues --  -11.21634 -11.21526 -11.21464 -11.21198 -11.20819
 Alpha  occ. eigenvalues --   -1.59845  -1.39399  -1.19417  -1.08795  -1.08525
 Alpha  occ. eigenvalues --   -1.04834  -1.03584  -0.96034  -0.95621  -0.87053
 Alpha  occ. eigenvalues --   -0.86215  -0.82461  -0.79670  -0.78352  -0.77499
 Alpha  occ. eigenvalues --   -0.72048  -0.71164  -0.70520  -0.65169  -0.65063
 Alpha  occ. eigenvalues --   -0.64824  -0.62169  -0.61021  -0.59417  -0.57664
 Alpha  occ. eigenvalues --   -0.55520  -0.55319  -0.53548  -0.52912  -0.52589
 Alpha  occ. eigenvalues --   -0.52142  -0.49832  -0.48808  -0.48799  -0.47967
 Alpha  occ. eigenvalues --   -0.46666  -0.45876  -0.45818  -0.44799  -0.43846
 Alpha  occ. eigenvalues --   -0.37378  -0.36317
 Alpha virt. eigenvalues --    0.05021   0.11189   0.16457   0.21339   0.22786
 Alpha virt. eigenvalues --    0.24325   0.26536   0.27152   0.27526   0.27940
 Alpha virt. eigenvalues --    0.28328   0.30872   0.31501   0.31756   0.31960

 Mulliken charges:
               1
     1  C   -0.297491
     2  C   -0.299182
     3  C   -0.483022
     4  H    0.144864
     5  H    0.152245
     6  H    0.146737
     7  H    0.152276
     8  H    0.156986
     9  H    0.160283
    10  H    0.158385
    11  C   -0.298000
    12  C   -0.299521
    13  C   -0.475672
    14  H    0.147481
    15  H    0.150789
    16  H    0.150200
    17  H    0.153362
    18  H    0.155914
    19  H    0.154252
    20  H    0.160555
    21  C   -0.167970
    22  C   -0.217058
    23  C   -0.171449
    24  C    0.168055
    25  C   -0.173347
    26  C   -0.221240
    27  H    0.225813
    28  H    0.223691
    29  H    0.275908
    30  H    0.276008
    31  H    0.223629
    32  N    0.487646
    33  O   -0.460527
    34  O   -0.460598
 Sum of Mulliken charges =  -0.00000

 Dipole moment (field-independent basis, Debye):
    X=             -1.7558    Y=              4.8441    Z=              0.3719  Tot=              5.1659
 Quadrupole moment (field-independent basis, Debye-Ang):
   XX=           -107.0252   YY=            -95.0125   ZZ=            -90.6320
   XY=             15.5465   XZ=             -1.4476   YZ=              0.3391

 Normal termination of Gaussian 16 at Wed May  5 18:38:31 2021.
