 Gaussian 16, Revision A.03,
 Gaussian 16:  EM64L-G16RevA.03 25-Dec-2016

 -------------
 #p 6-31g* mp2
 -------------

 ------------------------------------------------------
 Input file generated by CHIRIPA (05-May-2021 14:55:18)
 ------------------------------------------------------
 Symbolic Z-matrix:
 Charge =  0 Multiplicity = 1

                         Standard orientation:
 ---------------------------------------------------------------------
 Center     Atomic      Atomic             Coordinates (Angstroms)
 Number     Number       Type             X           Y           Z
 ---------------------------------------------------------------------
      1          6           0        2.632996    1.685706    1.857485
      2          6           0        3.809235    1.323091    1.193036
      3          6           0        3.778601    0.387241    0.154867
      4          6           0        2.548878   -0.168669   -0.194466
      5          6           0        1.359830    0.172115    0.448435
      6          6           0        1.414196    1.110076    1.483723
      7          1           0        2.666011    2.413517    2.662841
      8          1           0        4.757195    1.768505    1.481172
      9          1           0        4.674089    0.088430   -0.376387
     10          1           0        0.429868   -0.289053    0.138738
     11          1           0        0.499129    1.389791    1.997977
     12          7           0        2.503885   -1.160529   -1.292004
     13          8           0        1.407823   -1.635802   -1.580797
     14          8           0        3.565533   -1.443895   -1.842680
     15          6           0       -3.639759    0.504096   -0.430702
     16          6           0       -2.867319    1.804572   -0.654495
     17          6           0       -3.615841    2.789612   -1.552940
     18          1           0       -3.843464    0.034177   -1.402621
     19          1           0       -4.616823    0.738066    0.014270
     20          1           0       -1.891447    1.568106   -1.097635
     21          1           0       -2.665262    2.271352    0.318082
     22          1           0       -4.582616    3.054463   -1.112711
     23          1           0       -3.804403    2.347222   -2.536472
     24          1           0       -3.045679    3.712252   -1.699609
     25          6           0       -2.904351   -0.490786    0.465463
     26          6           0       -3.676792   -1.791262    0.689256
     27          6           0       -2.928270   -2.776304    1.587701
     28          1           0       -1.927288   -0.724756    0.020491
     29          1           0       -2.700646   -0.020867    1.437381
     30          1           0       -3.878848   -2.258043   -0.283321
     31          1           0       -4.652664   -1.554797    1.132397
     32          1           0       -2.739707   -2.333913    2.571232
     33          1           0       -1.961495   -3.041154    1.147471
     34          1           0       -3.498431   -3.698944    1.734370
 ---------------------------------------------------------------------

 SCF Done:  E(RHF) =  -669.535881923     A.U. after   15 cycles
 E2 =    -0.2091772090D+01 EUMP2 =    -0.67162765401348D+03

 The electronic state is 1-A.
 Alpha  occ. eigenvalues --  -20.60769 -20.60761 -15.85818 -11.31140 -11.27716
 Alpha  occ. eigenvalues --  -11.27675 -11.27454 -11.26731 -11.26702 -11.21983
 Alpha  occ. eigenvalues --  -11.21869 -11.21775 -11.21669 -11.21315 -11.21166
 Alpha  occ. eigenvalues --   -1.59842  -1.39398  -1.19315  -1.08755  -1.08720
 Alpha  occ. eigenvalues --   -1.04709  -1.03777  -0.96226  -0.95561  -0.87241
 Alpha  occ. eigenvalues --   -0.86115  -0.82391  -0.79855  -0.78636  -0.77430
 Alpha  occ. eigenvalues --   -0.72040  -0.71163  -0.70434  -0.65396  -0.64967
 Alpha  occ. eigenvalues --   -0.64695  -0.62067  -0.61155  -0.59601  -0.57849
 Alpha  occ. eigenvalues --   -0.55509  -0.55217  -0.53047  -0.52902  -0.52841
 Alpha  occ. eigenvalues --   -0.52618  -0.50154  -0.48798  -0.48792  -0.48168
 Alpha  occ. eigenvalues --   -0.46878  -0.46125  -0.46037  -0.44812  -0.44063
 Alpha  occ. eigenvalues --   -0.37301  -0.36308
 Alpha virt. eigenvalues --    0.05076   0.11324   0.16572   0.19840   0.22981
 Alpha virt. eigenvalues --    0.23928   0.24642   0.25353   0.27756   0.28298
 Alpha virt. eigenvalues --    0.30620   0.30740   0.31283   0.31702   0.31921

 Mulliken charges:
               1
     1  C   -0.170593
     2  C   -0.219071
     3  C   -0.169961
     4  C    0.157984
     5  C   -0.180183
     6  C   -0.223299
     7  H    0.225426
     8  H    0.223240
     9  H    0.275411
    10  H    0.289730
    11  H    0.224971
    12  N    0.486705
    13  O   -0.462041
    14  O   -0.460133
    15  C   -0.297258
    16  C   -0.301762
    17  C   -0.475782
    18  H    0.155348
    19  H    0.150523
    20  H    0.153534
    21  H    0.145622
    22  H    0.155459
    23  H    0.158827
    24  H    0.160428
    25  C   -0.308736
    26  C   -0.298421
    27  C   -0.478222
    28  H    0.155262
    29  H    0.142663
    30  H    0.157353
    31  H    0.152140
    32  H    0.151495
    33  H    0.160774
    34  H    0.162567
 Sum of Mulliken charges =  -0.00000

 Dipole moment (field-independent basis, Debye):
    X=              0.0296    Y=              3.4253    Z=              3.7703  Tot=              5.0940
 Quadrupole moment (field-independent basis, Debye-Ang):
   XX=            -88.5223   YY=            -96.9423   ZZ=            -96.6522
   XY=              9.9047   XZ=              9.0139   YZ=             -0.5080

 Normal termination of Gaussian 16 at Wed May  5 22:06:24 2021.
