 Gaussian 16, Revision A.03,
 Gaussian 16:  EM64L-G16RevA.03 25-Dec-2016

 -------------
 #p 6-31g* mp2
 -------------

 ------------------------------------------------------
 Input file generated by CHIRIPA (05-May-2021 14:55:24)
 ------------------------------------------------------
 Symbolic Z-matrix:
 Charge =  0 Multiplicity = 1

                         Standard orientation:
 ---------------------------------------------------------------------
 Center     Atomic      Atomic             Coordinates (Angstroms)
 Number     Number       Type             X           Y           Z
 ---------------------------------------------------------------------
      1          6           0       -1.235072    1.190246    1.304999
      2          6           0       -2.551385    1.319209    1.760202
      3          6           0       -3.594479    0.647290    1.115977
      4          6           0       -3.283972   -0.148828    0.014582
      5          6           0       -1.982707   -0.297428   -0.462825
      6          6           0       -0.955427    0.383761    0.196892
      7          1           0       -0.430914    1.715810    1.811465
      8          1           0       -2.771510    1.944852    2.620529
      9          1           0       -4.622533    0.729383    1.447313
     10          1           0       -1.794354   -0.928315   -1.323012
     11          1           0        0.065894    0.281746   -0.158834
     12          7           0       -4.379878   -0.865066   -0.675630
     13          8           0       -4.080083   -1.560356   -1.643790
     14          8           0       -5.517894   -0.717602   -0.235390
     15          6           0        3.507891    0.640427   -0.083445
     16          6           0        3.782154    1.758319   -1.089966
     17          6           0        2.845035    2.953809   -0.915591
     18          1           0        2.465561    0.309357   -0.187777
     19          1           0        3.608265    1.040700    0.934937
     20          1           0        3.682649    1.355719   -2.106150
     21          1           0        4.824008    2.086634   -0.983356
     22          1           0        2.949589    3.382311    0.086434
     23          1           0        1.801746    2.647245   -1.042738
     24          1           0        3.058624    3.741120   -1.645234
     25          6           0        4.436694   -0.561622   -0.245098
     26          6           0        4.162432   -1.679512    0.761422
     27          6           0        5.099551   -2.875003    0.587048
     28          1           0        4.336321   -0.961894   -1.263480
     29          1           0        5.479025   -0.230551   -0.140766
     30          1           0        3.120578   -2.007828    0.654814
     31          1           0        4.261936   -1.276913    1.777607
     32          1           0        6.142840   -2.568438    0.714196
     33          1           0        4.994996   -3.303506   -0.414977
     34          1           0        4.885961   -3.662314    1.316691
 ---------------------------------------------------------------------

 SCF Done:  E(RHF) =  -669.535594803     A.U. after   15 cycles
 E2 =    -0.2091395869D+01 EUMP2 =    -0.67162699067140D+03

 The electronic state is 1-A.
 Alpha  occ. eigenvalues --  -20.60740 -20.60735 -15.85793 -11.31153 -11.27726
 Alpha  occ. eigenvalues --  -11.27723 -11.27453 -11.26731 -11.26710 -11.22509
 Alpha  occ. eigenvalues --  -11.22450 -11.22294 -11.22160 -11.22004 -11.21595
 Alpha  occ. eigenvalues --   -1.59816  -1.39369  -1.19325  -1.09302  -1.08717
 Alpha  occ. eigenvalues --   -1.04730  -1.04316  -0.96777  -0.95553  -0.87787
 Alpha  occ. eigenvalues --   -0.86129  -0.82389  -0.80388  -0.79133  -0.77438
 Alpha  occ. eigenvalues --   -0.72012  -0.71139  -0.70424  -0.65977  -0.64975
 Alpha  occ. eigenvalues --   -0.64719  -0.62106  -0.61682  -0.60142  -0.58386
 Alpha  occ. eigenvalues --   -0.56080  -0.55218  -0.53427  -0.53221  -0.53049
 Alpha  occ. eigenvalues --   -0.52830  -0.50718  -0.48790  -0.48767  -0.48682
 Alpha  occ. eigenvalues --   -0.47421  -0.46646  -0.46564  -0.44776  -0.44595
 Alpha  occ. eigenvalues --   -0.37299  -0.36334
 Alpha virt. eigenvalues --    0.05100   0.11267   0.16592   0.18900   0.22647
 Alpha virt. eigenvalues --    0.23711   0.24585   0.26287   0.27055   0.28355
 Alpha virt. eigenvalues --    0.29295   0.30278   0.31109   0.31415   0.31523

 Mulliken charges:
               1
     1  C   -0.173712
     2  C   -0.218652
     3  C   -0.171127
     4  C    0.159029
     5  C   -0.173191
     6  C   -0.227389
     7  H    0.226842
     8  H    0.223349
     9  H    0.275493
    10  H    0.275915
    11  H    0.235835
    12  N    0.487998
    13  O   -0.460566
    14  O   -0.460572
    15  C   -0.304585
    16  C   -0.299947
    17  C   -0.477712
    18  H    0.142856
    19  H    0.149964
    20  H    0.154707
    21  H    0.156118
    22  H    0.154166
    23  H    0.151072
    24  H    0.165737
    25  C   -0.298143
    26  C   -0.300144
    27  C   -0.476254
    28  H    0.151726
    29  H    0.153030
    30  H    0.150192
    31  H    0.152152
    32  H    0.156470
    33  H    0.156807
    34  H    0.162538
 Sum of Mulliken charges =  -0.00000

 Dipole moment (field-independent basis, Debye):
    X=              4.0960    Y=              2.5273    Z=              2.4159  Tot=              5.3853
 Quadrupole moment (field-independent basis, Debye-Ang):
   XX=           -117.2208   YY=            -95.8310   ZZ=            -92.5262
   XY=             -9.5655   XZ=            -10.1856   YZ=              1.3624

 Normal termination of Gaussian 16 at Thu May  6 14:19:37 2021.
