 Gaussian 16, Revision A.03,
 Gaussian 16:  EM64L-G16RevA.03 25-Dec-2016

 -------------
 #p 6-31g* mp2
 -------------

 ------------------------------------------------------
 Input file generated by CHIRIPA (05-May-2021 14:51:11)
 ------------------------------------------------------
 Symbolic Z-matrix:
 Charge =  0 Multiplicity = 1

                         Standard orientation:
 ---------------------------------------------------------------------
 Center     Atomic      Atomic             Coordinates (Angstroms)
 Number     Number       Type             X           Y           Z
 ---------------------------------------------------------------------
      1          6           0       -2.955952   -0.702150    0.544671
      2          6           0       -1.502898   -0.508738    0.109688
      3          6           0       -0.518604   -1.307714    0.964437
      4          1           0       -3.059138   -0.406985    1.597845
      5          1           0       -3.207632   -1.770524    0.493384
      6          1           0       -1.254452    0.559117    0.160457
      7          1           0       -1.403199   -0.804217   -0.942627
      8          1           0       -0.738370   -2.378621    0.905596
      9          1           0       -0.588778   -1.007542    2.014948
     10          1           0        0.514216   -1.154797    0.636170
     11          6           0       -3.951875    0.090210   -0.300332
     12          6           0       -5.404929   -0.103203    0.134651
     13          6           0       -6.389223    0.695774   -0.720098
     14          1           0       -3.700195    1.158583   -0.249045
     15          1           0       -3.848688   -0.204956   -1.353506
     16          1           0       -5.504628    0.192276    1.186967
     17          1           0       -5.653375   -1.171057    0.083882
     18          1           0       -6.319049    0.395601   -1.770608
     19          1           0       -6.169457    1.766681   -0.661256
     20          1           0       -7.422043    0.542856   -0.391830
     21          6           0        3.932123   -0.274469   -0.255724
     22          6           0        3.255560   -1.644254   -0.192981
     23          6           0        4.225177   -2.795387   -0.462292
     24          1           0        4.391903   -0.144654   -1.245015
     25          1           0        4.751232   -0.243976    0.476072
     26          1           0        2.437086   -1.671672   -0.923709
     27          1           0        2.797174   -1.770745    0.796210
     28          1           0        5.035812   -2.796417    0.273556
     29          1           0        4.673679   -2.696782   -1.456135
     30          1           0        3.720573   -3.765313   -0.412517
     31          6           0        2.975703    0.886410    0.011385
     32          6           0        3.652267    2.256195   -0.051359
     33          6           0        2.682649    3.407327    0.217952
     34          1           0        2.156594    0.855917   -0.720411
     35          1           0        2.515924    0.756595    1.000676
     36          1           0        4.110654    2.382685   -1.040549
     37          1           0        4.470741    2.283613    0.679370
     38          1           0        2.234149    3.308723    1.211796
     39          1           0        1.872015    3.408358   -0.517895
     40          1           0        3.187254    4.377253    0.168177
 ---------------------------------------------------------------------

 SCF Done:  E(RHF) =  -470.732455295     A.U. after   11 cycles
 E2 =    -0.1583645515D+01 EUMP2 =    -0.47231610080959D+03

 The electronic state is 1-A.
 Alpha  occ. eigenvalues --  -11.21630 -11.21621 -11.21567 -11.21512 -11.21438
 Alpha  occ. eigenvalues --  -11.21379 -11.21349 -11.21286 -11.21094 -11.21087
 Alpha  occ. eigenvalues --  -11.21045 -11.20837  -1.08480  -1.08362  -1.03569
 Alpha  occ. eigenvalues --   -1.03448  -0.96008  -0.95902  -0.87040  -0.86914
 Alpha  occ. eigenvalues --   -0.79697  -0.79482  -0.78301  -0.78183  -0.65100
 Alpha  occ. eigenvalues --   -0.64998  -0.60958  -0.60853  -0.59540  -0.59152
 Alpha  occ. eigenvalues --   -0.57635  -0.57507  -0.55293  -0.55187  -0.52875
 Alpha  occ. eigenvalues --   -0.52535  -0.52403  -0.52298  -0.49949  -0.49846
 Alpha  occ. eigenvalues --   -0.48047  -0.47747  -0.46664  -0.46562  -0.45785
 Alpha  occ. eigenvalues --   -0.45756  -0.45716  -0.45645  -0.43834  -0.43573
 Alpha virt. eigenvalues --    0.21898   0.23154   0.23940   0.24168   0.26152
 Alpha virt. eigenvalues --    0.26474   0.26723   0.27678   0.27885   0.29474
 Alpha virt. eigenvalues --    0.30996   0.31137   0.31534   0.31828   0.32047

 Mulliken charges:
               1
     1  C   -0.298253
     2  C   -0.299141
     3  C   -0.487326
     4  H    0.149458
     5  H    0.149281
     6  H    0.151981
     7  H    0.150569
     8  H    0.153449
     9  H    0.152962
    10  H    0.176047
    11  C   -0.298158
    12  C   -0.299556
    13  C   -0.475659
    14  H    0.149406
    15  H    0.149320
    16  H    0.151878
    17  H    0.151828
    18  H    0.155057
    19  H    0.155138
    20  H    0.160128
    21  C   -0.297509
    22  C   -0.305378
    23  C   -0.474637
    24  H    0.149648
    25  H    0.149582
    26  H    0.153183
    27  H    0.155689
    28  H    0.155226
    29  H    0.155065
    30  H    0.160628
    31  C   -0.301701
    32  C   -0.299524
    33  C   -0.475790
    34  H    0.150742
    35  H    0.151437
    36  H    0.152070
    37  H    0.152055
    38  H    0.155150
    39  H    0.155278
    40  H    0.160376
 Sum of Mulliken charges =  -0.00000

 Dipole moment (field-independent basis, Debye):
    X=              0.0837    Y=              0.0023    Z=             -0.0062  Tot=              0.0839
 Quadrupole moment (field-independent basis, Debye-Ang):
   XX=            -85.8005   YY=            -85.2922   ZZ=            -83.6935
   XY=              0.9595   XZ=             -0.0303   YZ=              0.5925

 Normal termination of Gaussian 16 at Thu May  6 00:39:31 2021.
