 Gaussian 16, Revision A.03,
 Gaussian 16:  EM64L-G16RevA.03 25-Dec-2016

 -------------
 #p 6-31g* mp2
 -------------

 ------------------------------------------------------
 Input file generated by CHIRIPA (05-May-2021 14:53:18)
 ------------------------------------------------------
 Symbolic Z-matrix:
 Charge =  0 Multiplicity = 1

                         Standard orientation:
 ---------------------------------------------------------------------
 Center     Atomic      Atomic             Coordinates (Angstroms)
 Number     Number       Type             X           Y           Z
 ---------------------------------------------------------------------
      1          6           0       -3.412723   -0.542642   -0.033021
      2          6           0       -4.096660   -1.686319    0.716790
      3          6           0       -3.420923   -3.037014    0.478466
      4          1           0       -3.409322   -0.767891   -1.108287
      5          1           0       -2.360317   -0.487131    0.278034
      6          1           0       -5.147814   -1.738773    0.405438
      7          1           0       -4.098604   -1.458232    1.790376
      8          1           0       -2.376747   -3.008560    0.806320
      9          1           0       -3.431919   -3.290695   -0.586488
     10          1           0       -3.925973   -3.840367    1.023816
     11          6           0       -4.076778    0.814067    0.195235
     12          6           0       -3.392841    1.957744   -0.554577
     13          6           0       -4.068578    3.308438   -0.316252
     14          1           0       -5.129184    0.758556   -0.115820
     15          1           0       -4.080179    1.039316    1.270500
     16          1           0       -3.390897    1.729656   -1.628163
     17          1           0       -2.341687    2.010198   -0.243225
     18          1           0       -4.057583    3.562120    0.748701
     19          1           0       -5.112754    3.279984   -0.644106
     20          1           0       -3.563528    4.111792   -0.861603
     21          6           0        4.977017    1.240200    0.524201
     22          6           0        3.706283    1.812408    0.643927
     23          6           0        2.562664    1.075856    0.321168
     24          6           0        2.727261   -0.236173   -0.120168
     25          6           0        3.979743   -0.834293   -0.249916
     26          6           0        5.109458   -0.078998    0.078447
     27          1           0        5.860007    1.819651    0.777104
     28          1           0        3.600408    2.836699    0.989849
     29          1           0        1.566919    1.494121    0.404626
     30          1           0        4.053470   -1.857620   -0.597455
     31          1           0        6.095070   -0.525973   -0.015502
     32          7           0        1.523923   -1.025849   -0.464825
     33          8           0        1.695793   -2.179839   -0.851356
     34          8           0        0.431661   -0.475855   -0.341911
 ---------------------------------------------------------------------

 SCF Done:  E(RHF) =  -669.536043137     A.U. after   15 cycles
 E2 =    -0.2091145972D+01 EUMP2 =    -0.67162718910915D+03

 The electronic state is 1-A.
 Alpha  occ. eigenvalues --  -20.60965 -20.60959 -15.86005 -11.31318 -11.27883
 Alpha  occ. eigenvalues --  -11.27876 -11.27615 -11.26886 -11.26876 -11.20775
 Alpha  occ. eigenvalues --  -11.20508 -11.20420 -11.20393 -11.19879 -11.19785
 Alpha  occ. eigenvalues --   -1.60028  -1.39584  -1.19485  -1.08890  -1.07325
 Alpha  occ. eigenvalues --   -1.04881  -1.02522  -0.95734  -0.94959  -0.86282
 Alpha  occ. eigenvalues --   -0.85975  -0.82570  -0.78601  -0.77630  -0.77049
 Alpha  occ. eigenvalues --   -0.72224  -0.71343  -0.70594  -0.65143  -0.64884
 Alpha  occ. eigenvalues --   -0.63962  -0.62229  -0.59933  -0.58361  -0.56556
 Alpha  occ. eigenvalues --   -0.55385  -0.54247  -0.53213  -0.52973  -0.51717
 Alpha  occ. eigenvalues --   -0.51364  -0.49034  -0.48977  -0.48850  -0.46907
 Alpha  occ. eigenvalues --   -0.45651  -0.45020  -0.44633  -0.44413  -0.42734
 Alpha  occ. eigenvalues --   -0.37464  -0.36482
 Alpha virt. eigenvalues --    0.04902   0.11173   0.16396   0.21199   0.23796
 Alpha virt. eigenvalues --    0.25277   0.26808   0.27454   0.28031   0.28890
 Alpha virt. eigenvalues --    0.29107   0.30951   0.32043   0.32514   0.32565

 Mulliken charges:
               1
     1  C   -0.306994
     2  C   -0.299015
     3  C   -0.474982
     4  H    0.149071
     5  H    0.175740
     6  H    0.146191
     7  H    0.146710
     8  H    0.163814
     9  H    0.155642
    10  H    0.153280
    11  C   -0.297618
    12  C   -0.297970
    13  C   -0.475119
    14  H    0.145239
    15  H    0.144961
    16  H    0.152422
    17  H    0.152877
    18  H    0.152236
    19  H    0.154170
    20  H    0.156084
    21  C   -0.170579
    22  C   -0.218518
    23  C   -0.170724
    24  C    0.157471
    25  C   -0.170474
    26  C   -0.218585
    27  H    0.226095
    28  H    0.223951
    29  H    0.275270
    30  H    0.275964
    31  H    0.223909
    32  N    0.493692
    33  O   -0.458669
    34  O   -0.465542
 Sum of Mulliken charges =  -0.00000

 Dipole moment (field-independent basis, Debye):
    X=              4.6104    Y=              2.6867    Z=              1.1565  Tot=              5.4600
 Quadrupole moment (field-independent basis, Debye-Ang):
   XX=            -71.5145   YY=            -94.9438   ZZ=            -95.1040
   XY=              4.7574   XZ=              2.9031   YZ=              0.7008

 Normal termination of Gaussian 16 at Wed May  5 20:27:36 2021.
