 Gaussian 16, Revision A.03,
 Gaussian 16:  EM64L-G16RevA.03 25-Dec-2016

 -------------
 #p 6-31g* mp2
 -------------

 ------------------------------------------------------
 Input file generated by CHIRIPA (05-May-2021 14:55:24)
 ------------------------------------------------------
 Symbolic Z-matrix:
 Charge =  0 Multiplicity = 1

                         Standard orientation:
 ---------------------------------------------------------------------
 Center     Atomic      Atomic             Coordinates (Angstroms)
 Number     Number       Type             X           Y           Z
 ---------------------------------------------------------------------
      1          6           0       -2.099741    1.715338    1.225976
      2          6           0       -1.809275    1.257140   -0.063289
      3          6           0       -2.609323    0.282814   -0.667574
      4          6           0       -3.696861   -0.213688    0.049390
      5          6           0       -4.012102    0.222604    1.335299
      6          6           0       -3.198290    1.197521    1.919932
      7          1           0       -1.472899    2.472448    1.687766
      8          1           0       -0.956772    1.657488   -0.604589
      9          1           0       -2.407257   -0.089752   -1.664461
     10          1           0       -4.868716   -0.195403    1.849985
     11          1           0       -3.426260    1.551493    2.921320
     12          7           0       -4.551121   -1.245476   -0.579937
     13          8           0       -5.503506   -1.666921    0.072738
     14          8           0       -4.252130   -1.613209   -1.713963
     15          6           0        3.930105    0.492451   -0.116296
     16          6           0        3.510230    1.191508   -1.409745
     17          6           0        2.265027    2.061266   -1.234293
     18          1           0        3.097311   -0.125807    0.245860
     19          1           0        4.116776    1.249780    0.657657
     20          1           0        3.325745    0.433159   -2.181424
     21          1           0        4.344186    1.808024   -1.768967
     22          1           0        2.440843    2.838823   -0.483896
     23          1           0        1.416614    1.456146   -0.898695
     24          1           0        1.982537    2.551571   -2.171128
     25          6           0        5.173432   -0.380742   -0.275666
     26          6           0        5.593306   -1.079799    1.017783
     27          6           0        6.838508   -1.949557    0.842330
     28          1           0        4.986760   -1.138070   -1.049619
     29          1           0        6.006224    0.237516   -0.637822
     30          1           0        4.759348   -1.696315    1.377005
     31          1           0        5.777790   -0.321450    1.789461
     32          1           0        7.686922   -1.344437    0.506733
     33          1           0        6.662693   -2.727114    0.091934
     34          1           0        7.120998   -2.439862    1.779165
 ---------------------------------------------------------------------

 SCF Done:  E(RHF) =  -669.535647942     A.U. after   15 cycles
 E2 =    -0.2090718186D+01 EUMP2 =    -0.67162636612819D+03

 The electronic state is 1-A.
 Alpha  occ. eigenvalues --  -20.60740 -20.60734 -15.85793 -11.31151 -11.27724
 Alpha  occ. eigenvalues --  -11.27713 -11.27454 -11.26734 -11.26684 -11.22318
 Alpha  occ. eigenvalues --  -11.22107 -11.21970 -11.21959 -11.21804 -11.21352
 Alpha  occ. eigenvalues --   -1.59815  -1.39369  -1.19322  -1.08971  -1.08716
 Alpha  occ. eigenvalues --   -1.04724  -1.04107  -0.96581  -0.95553  -0.87609
 Alpha  occ. eigenvalues --   -0.86119  -0.82386  -0.80183  -0.78753  -0.77435
 Alpha  occ. eigenvalues --   -0.72011  -0.71139  -0.70427  -0.65607  -0.64972
 Alpha  occ. eigenvalues --   -0.64739  -0.62113  -0.61474  -0.59953  -0.58167
 Alpha  occ. eigenvalues --   -0.55895  -0.55212  -0.53304  -0.53112  -0.53037
 Alpha  occ. eigenvalues --   -0.52706  -0.50507  -0.48774  -0.48767  -0.48480
 Alpha  occ. eigenvalues --   -0.47190  -0.46304  -0.46201  -0.44776  -0.44343
 Alpha  occ. eigenvalues --   -0.37300  -0.36326
 Alpha virt. eigenvalues --    0.05098   0.11268   0.16562   0.20560   0.22458
 Alpha virt. eigenvalues --    0.23822   0.25460   0.26314   0.27139   0.28254
 Alpha virt. eigenvalues --    0.28685   0.30162   0.31103   0.31341   0.31997

 Mulliken charges:
               1
     1  C   -0.172181
     2  C   -0.225641
     3  C   -0.172543
     4  C    0.158709
     5  C   -0.171086
     6  C   -0.218582
     7  H    0.226054
     8  H    0.233654
     9  H    0.275569
    10  H    0.275458
    11  H    0.223238
    12  N    0.488074
    13  O   -0.460591
    14  O   -0.460565
    15  C   -0.299237
    16  C   -0.299214
    17  C   -0.482421
    18  H    0.150228
    19  H    0.148967
    20  H    0.154875
    21  H    0.155038
    22  H    0.155854
    23  H    0.149535
    24  H    0.162611
    25  C   -0.298867
    26  C   -0.300105
    27  C   -0.476048
    28  H    0.151255
    29  H    0.150502
    30  H    0.152734
    31  H    0.151592
    32  H    0.155525
    33  H    0.156322
    34  H    0.161287
 Sum of Mulliken charges =  -0.00000

 Dipole moment (field-independent basis, Debye):
    X=              3.1960    Y=              3.6201    Z=              2.2109  Tot=              5.3111
 Quadrupole moment (field-independent basis, Debye-Ang):
   XX=           -115.7068   YY=            -96.8661   ZZ=            -91.2968
   XY=            -13.0805   XZ=            -10.8554   YZ=             -0.1446

 Normal termination of Gaussian 16 at Wed May  5 23:59:42 2021.
